
                                 *****************
                                 * O   R   C   A *
                                 *****************

                                            #,                                       
                                            ###                                      
                                            ####                                     
                                            #####                                    
                                            ######                                   
                                           ########,                                 
                                     ,,################,,,,,                         
                               ,,#################################,,                 
                          ,,##########################################,,             
                       ,#########################################, ''#####,          
                    ,#############################################,,   '####,        
                  ,##################################################,,,,####,       
                ,###########''''           ''''###############################       
              ,#####''   ,,,,##########,,,,          '''####'''          '####       
            ,##' ,,,,###########################,,,                        '##       
           ' ,,###''''                  '''############,,,                           
         ,,##''                                '''############,,,,        ,,,,,,###''
      ,#''                                            '''#######################'''  
     '                                                          ''''####''''         
             ,#######,   #######,   ,#######,      ##                                
            ,#'     '#,  ##    ##  ,#'     '#,    #''#        ######   ,####,        
            ##       ##  ##   ,#'  ##            #'  '#       #        #'  '#        
            ##       ##  #######   ##           ,######,      #####,   #    #        
            '#,     ,#'  ##    ##  '#,     ,#' ,#      #,         ##   #,  ,#        
             '#######'   ##     ##  '#######'  #'      '#     #####' # '####'        



                  #######################################################
                  #                        -***-                        #
                  #          Department of theory and spectroscopy      #
                  #    Directorship and core code : Frank Neese         #
                  #        Max Planck Institute fuer Kohlenforschung    #
                  #                Kaiser Wilhelm Platz 1               #
                  #                 D-45470 Muelheim/Ruhr               #
                  #                      Germany                        #
                  #                                                     #
                  #                  All rights reserved                #
                  #                        -***-                        #
                  #######################################################


                         Program Version 5.0.3 -  RELEASE  -


 With contributions from (in alphabetic order):
   Daniel Aravena         : Magnetic Suceptibility
   Michael Atanasov       : Ab Initio Ligand Field Theory (pilot matlab implementation)
   Alexander A. Auer      : GIAO ZORA, VPT2 properties, NMR spectrum
   Ute Becker             : Parallelization
   Giovanni Bistoni       : ED, misc. LED, open-shell LED, HFLD
   Martin Brehm           : Molecular dynamics
   Dmytro Bykov           : SCF Hessian
   Vijay G. Chilkuri      : MRCI spin determinant printing, contributions to CSF-ICE
   Dipayan Datta          : RHF DLPNO-CCSD density
   Achintya Kumar Dutta   : EOM-CC, STEOM-CC
   Dmitry Ganyushin       : Spin-Orbit,Spin-Spin,Magnetic field MRCI
   Miquel Garcia          : C-PCM and meta-GGA Hessian, CC/C-PCM, Gaussian charge scheme
   Yang Guo               : DLPNO-NEVPT2, F12-NEVPT2, CIM, IAO-localization
   Andreas Hansen         : Spin unrestricted coupled pair/coupled cluster methods
   Benjamin Helmich-Paris : MC-RPA, TRAH-SCF, COSX integrals
   Lee Huntington         : MR-EOM, pCC
   Robert Izsak           : Overlap fitted RIJCOSX, COSX-SCS-MP3, EOM
   Marcus Kettner         : VPT2
   Christian Kollmar      : KDIIS, OOCD, Brueckner-CCSD(T), CCSD density, CASPT2, CASPT2-K
   Simone Kossmann        : Meta GGA functionals, TD-DFT gradient, OOMP2, MP2 Hessian
   Martin Krupicka        : Initial AUTO-CI
   Lucas Lang             : DCDCAS
   Marvin Lechner         : AUTO-CI (C++ implementation), FIC-MRCC
   Dagmar Lenk            : GEPOL surface, SMD
   Dimitrios Liakos       : Extrapolation schemes; Compound Job, initial MDCI parallelization
   Dimitrios Manganas     : Further ROCIS development; embedding schemes
   Dimitrios Pantazis     : SARC Basis sets
   Anastasios Papadopoulos: AUTO-CI, single reference methods and gradients
   Taras Petrenko         : DFT Hessian,TD-DFT gradient, ASA, ECA, R-Raman, ABS, FL, XAS/XES, NRVS
   Peter Pinski           : DLPNO-MP2, DLPNO-MP2 Gradient
   Christoph Reimann      : Effective Core Potentials
   Marius Retegan         : Local ZFS, SOC
   Christoph Riplinger    : Optimizer, TS searches, QM/MM, DLPNO-CCSD(T), (RO)-DLPNO pert. Triples
   Tobias Risthaus        : Range-separated hybrids, TD-DFT gradient, RPA, STAB
   Michael Roemelt        : Original ROCIS implementation
   Masaaki Saitow         : Open-shell DLPNO-CCSD energy and density
   Barbara Sandhoefer     : DKH picture change effects
   Avijit Sen             : IP-ROCIS
   Kantharuban Sivalingam : CASSCF convergence, NEVPT2, FIC-MRCI
   Bernardo de Souza      : ESD, SOC TD-DFT
   Georgi Stoychev        : AutoAux, RI-MP2 NMR, DLPNO-MP2 response
   Willem Van den Heuvel  : Paramagnetic NMR
   Boris Wezisla          : Elementary symmetry handling
   Frank Wennmohs         : Technical directorship


 We gratefully acknowledge several colleagues who have allowed us to
 interface, adapt or use parts of their codes:
   Stefan Grimme, W. Hujo, H. Kruse, P. Pracht,  : VdW corrections, initial TS optimization,
                  C. Bannwarth, S. Ehlert          DFT functionals, gCP, sTDA/sTD-DF
   Ed Valeev, F. Pavosevic, A. Kumar             : LibInt (2-el integral package), F12 methods
   Garnet Chan, S. Sharma, J. Yang, R. Olivares  : DMRG
   Ulf Ekstrom                                   : XCFun DFT Library
   Mihaly Kallay                                 : mrcc  (arbitrary order and MRCC methods)
   Jiri Pittner, Ondrej Demel                    : Mk-CCSD
   Frank Weinhold                                : gennbo (NPA and NBO analysis)
   Christopher J. Cramer and Donald G. Truhlar   : smd solvation model
   Lars Goerigk                                  : TD-DFT with DH, B97 family of functionals
   V. Asgeirsson, H. Jonsson                     : NEB implementation
   FAccTs GmbH                                   : IRC, NEB, NEB-TS, DLPNO-Multilevel, CI-OPT
                                                   MM, QMMM, 2- and 3-layer-ONIOM, Crystal-QMMM,
                                                   LR-CPCM, SF, NACMEs, symmetry and pop. for TD-DFT,
                                                   nearIR, NL-DFT gradient (VV10), updates on ESD,
                                                   ML-optimized integration grids
   S Lehtola, MJT Oliveira, MAL Marques          : LibXC Library
   Liviu Ungur et al                             : ANISO software


 Your calculation uses the libint2 library for the computation of 2-el integrals
 For citations please refer to: http://libint.valeyev.net

 Your ORCA version has been built with support for libXC version: 5.1.0
 For citations please refer to: https://tddft.org/programs/libxc/

 This ORCA versions uses:
   CBLAS   interface :  Fast vector & matrix operations
   LAPACKE interface :  Fast linear algebra routines
   SCALAPACK package :  Parallel linear algebra routines
   Shared memory     :  Shared parallel matrices
   BLAS/LAPACK       :  OpenBLAS 0.3.15  USE64BITINT DYNAMIC_ARCH NO_AFFINITY Haswell SINGLE_THREADED
        Core in use  :  Haswell
   Copyright (c) 2011-2014, The OpenBLAS Project




***************************************
The coordinates will be read from file: pbe.xyz
***************************************


================================================================================

cite the ECPs for Au [Def2-ECP] as follows:
Ce-Yb(ecp-28): M. Dolg, H. Stoll, H.Preuss, J. Chem. Phys., 1989, 90, 1730-1734.
Y-Cd(ecp-28), Hf-Hg(ecp-46): D. Andrae,U. Haeussermann, M. Dolg, H. Stoll, H. Preuss, Theor. Chim. Acta, 1990, 77, 123-141.
In-Sb(ecp-28), Tl-Bi(ecp-46): B. Metz, H. Stoll, M. Dolg, J. Chem. Phys., 2000, 113, 2563-2569.
Te-Xe(ecp-28), Po-Rn(ecp-46): K. A. Peterson, D. Figgen, E. Goll, H. Stoll, M. Dolg, J. Chem. Phys., 2003, 119, 11113-11123.
Rb(ecp-28), Cs(ecp-46): T. Leininger, A. Nicklass, W. Kuechle, H. Stoll, M. Dolg, A. Bergner, Chem. Phys. Lett., 1996, 255, 274-280.
Sr(ecp-28), Ba(ecp-46): M. Kaupp, P. V. Schleyer, H. Stoll and H. Preuss, J. Chem. Phys., 1991, 94, 1360-1366.
La(ecp-46): M. Dolg, H. Stoll, A. Savin, H. Preuss, Theor. Chim. Acta, 1989, 75, 173-194.
Lu(ecp-28): X. Cao, M. Dolg, J. Chem. Phys., 2001, 115, 7348-7355.

ECP parameters for Au [Def2-ECP] have been obtained from:
TURBOMOLE (7.0.2)

----- Orbital basis set information -----
Your calculation utilizes the basis: def2-TZVP
   F. Weigend and R. Ahlrichs, Phys. Chem. Chem. Phys. 7, 3297 (2005).

----- AuxJ basis set information -----
Your calculation utilizes the auxiliary basis: def2/J
   F. Weigend, Phys. Chem. Chem. Phys. 8, 1057 (2006).

================================================================================
                                        WARNINGS
                       Please study these warnings very carefully!
================================================================================


WARNING: your system is open-shell and RHF/RKS was chosen
  ===> : WILL SWITCH to UHF/UKS


INFO   : the flag for use of the SHARK integral package has been found!



***************************************
The coordinates will be read from file: pbe.xyz
***************************************


================================================================================

cite the ECPs for Au [Def2-ECP] as follows:
Ce-Yb(ecp-28): M. Dolg, H. Stoll, H.Preuss, J. Chem. Phys., 1989, 90, 1730-1734.
Y-Cd(ecp-28), Hf-Hg(ecp-46): D. Andrae,U. Haeussermann, M. Dolg, H. Stoll, H. Preuss, Theor. Chim. Acta, 1990, 77, 123-141.
In-Sb(ecp-28), Tl-Bi(ecp-46): B. Metz, H. Stoll, M. Dolg, J. Chem. Phys., 2000, 113, 2563-2569.
Te-Xe(ecp-28), Po-Rn(ecp-46): K. A. Peterson, D. Figgen, E. Goll, H. Stoll, M. Dolg, J. Chem. Phys., 2003, 119, 11113-11123.
Rb(ecp-28), Cs(ecp-46): T. Leininger, A. Nicklass, W. Kuechle, H. Stoll, M. Dolg, A. Bergner, Chem. Phys. Lett., 1996, 255, 274-280.
Sr(ecp-28), Ba(ecp-46): M. Kaupp, P. V. Schleyer, H. Stoll and H. Preuss, J. Chem. Phys., 1991, 94, 1360-1366.
La(ecp-46): M. Dolg, H. Stoll, A. Savin, H. Preuss, Theor. Chim. Acta, 1989, 75, 173-194.
Lu(ecp-28): X. Cao, M. Dolg, J. Chem. Phys., 2001, 115, 7348-7355.

ECP parameters for Au [Def2-ECP] have been obtained from:
TURBOMOLE (7.0.2)

----- Orbital basis set information -----
Your calculation utilizes the basis: def2-TZVP
   F. Weigend and R. Ahlrichs, Phys. Chem. Chem. Phys. 7, 3297 (2005).

----- AuxJ basis set information -----
Your calculation utilizes the auxiliary basis: def2/J
   F. Weigend, Phys. Chem. Chem. Phys. 8, 1057 (2006).

================================================================================
                                        WARNINGS
                       Please study these warnings very carefully!
================================================================================


INFO   : the flag for use of the SHARK integral package has been found!

================================================================================
                                       INPUT FILE
================================================================================
NAME = pbeSP.inp
|  1> !PBE def2-TZVP VERYSLOWCONV
|  2> 
|  3> %scf
|  4>   AutoTRAHIter 200
|  5>   maxiter 400
|  6> end
|  7> 
|  8> 
|  9> %pal nprocs 6 end 
| 10> 
| 11> *xyzfile 0 5 pbe.xyz
| 12> 
| 13> $new_job
| 14> 
| 15> !PBE def2-TZVP VERYSLOWCONV
| 16> 
| 17> %scf
| 18>   AutoTRAHIter 200
| 19>   maxiter 400
| 20> end
| 21>  
| 22> 
| 23> %pal nprocs 6 end 
| 24> 
| 25> *xyzfile 0 3 pbe.xyz
| 26> 
| 27> 
| 28> 
| 29> 
| 30> 
| 31>                          ****END OF INPUT****
================================================================================


                 $$$$$$$$$$$$$$$$$$$$$$$$$$$$$$$$$$$$$$$$$$$$$$ 
                 $ THERE ARE  2 JOBS TO BE PROCESSED THIS RUN $
                 $$$$$$$$$$$$$$$$$$$$$$$$$$$$$$$$$$$$$$$$$$$$$$ 




                 $$$$$$$$$$$$$$$$  JOB NUMBER  1 $$$$$$$$$$$$$$


                       ****************************
                       * Single Point Calculation *
                       ****************************

---------------------------------
CARTESIAN COORDINATES (ANGSTROEM)
---------------------------------
  Au     6.989877    6.828196    7.636510
  Au     8.527556    4.771606    8.084420
  Au    10.162749    2.638091    8.111101
  Au     8.353427    8.042387    5.220853
  Au     6.022225    9.061814    6.371986
  Au     8.334218    9.430548    7.747540
  Au    10.687750    6.821280    5.077246
  Au    11.184208    4.826437    7.053060
  Au    12.376678    7.184855    7.373716
  Au    10.783326    9.033607    8.632733
  Fe     9.616086    7.066753    7.400963

----------------------------
CARTESIAN COORDINATES (A.U.)
----------------------------
  NO LB      ZA    FRAG     MASS         X           Y           Z
   0 Au   19.0000*   0   196.966   13.208954   12.903421   14.430913
   1 Au   19.0000*   0   196.966   16.114745    9.017028   15.277339
   2 Au   19.0000*   0   196.966   19.204813    4.985270   15.327759
   3 Au   19.0000*   0   196.966   15.785689   15.197910    9.865983
   4 Au   19.0000*   0   196.966   11.380356   17.124347   12.041308
   5 Au   19.0000*   0   196.966   15.749389   17.821152   14.640730
   6 Au   19.0000*   0   196.966   20.196921   12.890351    9.594604
   7 Au   19.0000*   0   196.966   21.135090    9.120645   13.328352
   8 Au   19.0000*   0   196.966   23.388532   13.577408   13.934304
   9 Au   19.0000*   0   196.966   20.377533   17.071043   16.313501
  10 Fe   26.0000    0    55.850   18.171769   13.354228   13.985794
* core charge reduced due to ECP

--------------------------------
INTERNAL COORDINATES (ANGSTROEM)
--------------------------------
 Au     0   0   0     0.000000000000     0.00000000     0.00000000
 Au     1   0   0     2.606653362830     0.00000000     0.00000000
 Au     2   1   0     2.688206794544   170.64956248     0.00000000
 Au     1   2   3     3.028023544169   100.82502569   326.49770214
 Au     1   2   3     2.743067886539   158.39681903   330.35770502
 Au     5   1   2     2.715405095278    64.95646737   285.40410584
 Au     4   1   2     2.638331458163   104.84804579   347.21540416
 Au     3   2   1     2.636605045556    64.71953807    59.80794081
 Au     8   3   2     2.662130775754   149.37256262    82.26929685
 Au     6   5   1     2.634247393745   160.28100795    47.35386294
 Fe     7   4   1     2.570677812002    62.46811887   331.33749100

---------------------------
INTERNAL COORDINATES (A.U.)
---------------------------
 Au     0   0   0     0.000000000000     0.00000000     0.00000000
 Au     1   0   0     4.925860981813     0.00000000     0.00000000
 Au     2   1   0     5.079974633034   170.64956248     0.00000000
 Au     1   2   3     5.722135225545   100.82502569   326.49770214
 Au     1   2   3     5.183647072313   158.39681903   330.35770502
 Au     5   1   2     5.131371972730    64.95646737   285.40410584
 Au     4   1   2     4.985723906438   104.84804579   347.21540416
 Au     3   2   1     4.982461459416    64.71953807    59.80794081
 Au     8   3   2     5.030698098859   149.37256262    82.26929685
 Au     6   5   1     4.978006143173   160.28100795    47.35386294
 Fe     7   4   1     4.857877043231    62.46811887   331.33749100

---------------------
BASIS SET INFORMATION
---------------------
There are 2 groups of distinct atoms

 Group   1 Type Au  : 8s7p6d1f contracted to 6s4p3d1f pattern {311111/4111/411/1}
 Group   2 Type Fe  : 17s11p7d1f contracted to 6s4p4d1f pattern {842111/6311/4111/1}

Atom   0Au   basis set group =>   1
Atom   1Au   basis set group =>   1
Atom   2Au   basis set group =>   1
Atom   3Au   basis set group =>   1
Atom   4Au   basis set group =>   1
Atom   5Au   basis set group =>   1
Atom   6Au   basis set group =>   1
Atom   7Au   basis set group =>   1
Atom   8Au   basis set group =>   1
Atom   9Au   basis set group =>   1
Atom  10Fe   basis set group =>   2
---------------------------------
AUXILIARY/J BASIS SET INFORMATION
---------------------------------
There are 2 groups of distinct atoms

 Group   1 Type Au  : 11s5p5d3f3g contracted to 8s5p5d2f3g pattern {41111111/11111/11111/21/111}
 Group   2 Type Fe  : 19s5p5d3f3g contracted to 8s5p5d2f3g pattern {121111111/11111/11111/21/111}

Atom   0Au   basis set group =>   1
Atom   1Au   basis set group =>   1
Atom   2Au   basis set group =>   1
Atom   3Au   basis set group =>   1
Atom   4Au   basis set group =>   1
Atom   5Au   basis set group =>   1
Atom   6Au   basis set group =>   1
Atom   7Au   basis set group =>   1
Atom   8Au   basis set group =>   1
Atom   9Au   basis set group =>   1
Atom  10Fe   basis set group =>   2
-------------------------
ECP PARAMETER INFORMATION
-------------------------

 Group 1, Type Au ECP Def2-ECP (replacing 60 core electrons, lmax=3)

Atom   0Au   ECP group =>   1
Atom   1Au   ECP group =>   1
Atom   2Au   ECP group =>   1
Atom   3Au   ECP group =>   1
Atom   4Au   ECP group =>   1
Atom   5Au   ECP group =>   1
Atom   6Au   ECP group =>   1
Atom   7Au   ECP group =>   1
Atom   8Au   ECP group =>   1
Atom   9Au   ECP group =>   1



           ************************************************************
           *        Program running with 6 parallel MPI-processes     *
           *              working on a common directory               *
           ************************************************************
------------------------------------------------------------------------------
                           ORCA GTO INTEGRAL CALCULATION
                           -- RI-GTO INTEGRALS CHOSEN --
------------------------------------------------------------------------------
------------------------------------------------------------------------------
                   ___                                                        
                  /   \      - P O W E R E D   B Y -                         
                 /     \                                                     
                 |  |  |   _    _      __       _____    __    __             
                 |  |  |  | |  | |    /  \     |  _  \  |  |  /  |          
                  \  \/   | |  | |   /    \    | | | |  |  | /  /          
                 / \  \   | |__| |  /  /\  \   | |_| |  |  |/  /          
                |  |  |   |  __  | /  /__\  \  |    /   |      \           
                |  |  |   | |  | | |   __   |  |    \   |  |\   \          
                \     /   | |  | | |  |  |  |  | |\  \  |  | \   \       
                 \___/    |_|  |_| |__|  |__|  |_| \__\ |__|  \__/        
                                                                              
                      - O R C A' S   B I G   F R I E N D -                    
                                      &                                       
                       - I N T E G R A L  F E E D E R -                       
                                                                              
 v1 FN, 2020, v2 2021                                                         
------------------------------------------------------------------------------


Reading SHARK input file pbeSP.SHARKINP.tmp ... ok
----------------------
SHARK INTEGRAL PACKAGE
----------------------

Number of atoms                             ...     11
Number of basis functions                   ...    445
Number of shells                            ...    155
Maximum angular momentum                    ...      3
Integral batch strategy                     ... SHARK/LIBINT Hybrid
RI-J (if used) integral strategy            ... SPLIT-RIJ (Revised 2003 algorithm where possible)
Printlevel                                  ...      1
Contraction scheme used                     ... SEGMENTED contraction
Coulomb Range Separation                    ... NOT USED
Exchange Range Separation                   ... NOT USED
Finite Nucleus Model                        ... NOT USED
Auxiliary Coulomb fitting basis             ... AVAILABLE
   # of basis functions in Aux-J            ...    979
   # of shells in Aux-J                     ...    253
   Maximum angular momentum in Aux-J        ...      4
Auxiliary J/K fitting basis                 ... NOT available
Auxiliary Correlation fitting basis         ... NOT available
Auxiliary 'external' fitting basis          ... NOT available
Integral threshold                          ...     1.000000e-10
Primitive cut-off                           ...     1.000000e-11
Primitive pair pre-selection threshold      ...     1.000000e-11

Calculating pre-screening integrals         ... done (  0.1 sec) Dimension = 155
Organizing shell pair data                  ... done (  0.2 sec)
Shell pair information
Total number of shell pairs                 ...     12090
Shell pairs after pre-screening             ...      9650
Total number of primitive shell pairs       ...     33105
Primitive shell pairs kept                  ...     19368
          la=0 lb=0:   1527 shell pairs
          la=1 lb=0:   2199 shell pairs
          la=1 lb=1:    829 shell pairs
          la=2 lb=0:   1924 shell pairs
          la=2 lb=1:   1348 shell pairs
          la=2 lb=2:    563 shell pairs
          la=3 lb=0:    498 shell pairs
          la=3 lb=1:    380 shell pairs
          la=3 lb=2:    330 shell pairs
          la=3 lb=3:     52 shell pairs

Calculating one electron integrals          ... done (  0.0 sec)
Calculating ECP integrals                   ... done (  3.3 sec)
Calculating RI/J V-Matrix + Cholesky decomp.... done (  0.0 sec)
Calculating Nuclear repulsion               ... done (  0.0 sec) ENN=   3101.623594710843 Eh

SHARK setup successfully completed in   3.7 seconds

Maximum memory used throughout the entire GTOINT-calculation: 26.8 MB


           ************************************************************
           *        Program running with 6 parallel MPI-processes     *
           *              working on a common directory               *
           ************************************************************
-------------------------------------------------------------------------------
                                 ORCA SCF
-------------------------------------------------------------------------------

------------
SCF SETTINGS
------------
Hamiltonian:
 Density Functional     Method          .... DFT(GTOs)
 Exchange Functional    Exchange        .... PBE
   PBE kappa parameter   XKappa         ....  0.804000
   PBE mue parameter    XMuePBE         ....  0.219520
 Correlation Functional Correlation     .... PBE
   PBE beta parameter  CBetaPBE         ....  0.066725
 LDA part of GGA corr.  LDAOpt          .... PW91-LDA
 Gradients option       PostSCFGGA      .... off
   Density functional embedding theory  .... OFF
   NL short-range parameter             ....  6.400000
 RI-approximation to the Coulomb term is turned on
   Number of AuxJ basis functions       .... 979


General Settings:
 Integral files         IntName         .... pbeSP
 Hartree-Fock type      HFTyp           .... UHF
 Total Charge           Charge          ....    0
 Multiplicity           Mult            ....    5
 Number of Electrons    NEL             ....  216
 Basis Dimension        Dim             ....  445
 Nuclear Repulsion      ENuc            ....   3101.6235947108 Eh

Convergence Acceleration:
 DIIS                   CNVDIIS         .... on
   Start iteration      DIISMaxIt       ....     0
   Startup error        DIISStart       ....  0.200000
   # of expansion vecs  DIISMaxEq       ....     5
   Bias factor          DIISBfac        ....   1.050
   Max. coefficient     DIISMaxC        ....  10.000
 Trust-Rad. Augm. Hess. CNVTRAH         .... auto
   Auto Start mean grad. ratio tolernc. ....  1.125000
   Auto Start start iteration           ....   200
   Auto Start num. interpolation iter.  ....    10
   Max. Number of Micro iterations      ....    16
   Max. Number of Macro iterations      .... Maxiter - #DIIS iter
   Number of Davidson start vectors     ....     2
   Converg. threshold I  (grad. norm)   ....   5.000e-05
   Converg. threshold II (energy diff.) ....   1.000e-06
   Grad. Scal. Fac. for Micro threshold ....   0.100
   Minimum threshold for Micro iter.    ....   0.010
   NR start threshold (gradient norm)   ....   0.001
   Initial trust radius                 ....   0.400
   Minimum AH scaling param. (alpha)    ....   1.000
   Maximum AH scaling param. (alpha)    .... 1000.000
   Orbital update algorithm             .... Taylor
   White noise on init. David. guess    .... on
   Maximum white noise                  ....   0.010
   Quad. conv. algorithm                .... NR
 SOSCF                  CNVSOSCF        .... off
 Level Shifting         CNVShift        .... on
   Level shift para.    LevelShift      ....    0.2500
   Turn off err/grad.   ShiftErr        ....    0.0000
 Zerner damping         CNVZerner       .... off
 Static damping         CNVDamp         .... on
   Fraction old density DampFac         ....    0.9200
   Max. Damping (<1)    DampMax         ....    0.9800
   Min. Damping (>=0)   DampMin         ....    0.0000
   Turn off err/grad.   DampErr         ....    0.0030
 Fernandez-Rico         CNVRico         .... off

SCF Procedure:
 Maximum # iterations   MaxIter         ....   400
 SCF integral mode      SCFMode         .... Direct
   Integral package                     .... SHARK and LIBINT hybrid scheme
 Reset frequency        DirectResetFreq ....    20
 Integral Threshold     Thresh          ....  1.000e-10 Eh
 Primitive CutOff       TCut            ....  1.000e-11 Eh

Convergence Tolerance:
 Convergence Check Mode ConvCheckMode   .... Total+1el-Energy
 Convergence forced     ConvForced      .... 0
 Energy Change          TolE            ....  1.000e-06 Eh
 1-El. energy change                    ....  1.000e-03 Eh
 DIIS Error             TolErr          ....  1.000e-06


Diagonalization of the overlap matrix:
Smallest eigenvalue                        ... 4.895e-04
Time for diagonalization                   ...    0.022 sec
Threshold for overlap eigenvalues          ... 1.000e-08
Number of eigenvalues below threshold      ... 0
Time for construction of square roots      ...    0.014 sec
Total time needed                          ...    0.036 sec

Time for model grid setup =    0.257 sec

------------------------------
INITIAL GUESS: MODEL POTENTIAL
------------------------------
Loading Hartree-Fock densities                     ... done
  calling /media/Programs/ORCA501/orca pbeSP_atom79.inp > pbeSP_atom79.out in order to generate an atomic fitting density for atom 0 (Au with ECP) on-the-fly... 
    atom 0 (Au), assumed electronic state with S=2: 1s2 2s2 2p6 3s2 3p6 4s2 3d10 4p6 5s2 4d10 5p6 6s1 4f14 5d10           ... done
Calculating cut-offs                               ... done
Initializing the effective Hamiltonian             ... done
Setting up the integral package (SHARK)            ... done
Starting the Coulomb interaction                   ... done (   0.1 sec)
Reading the grid                                   ... done
Mapping shells                                     ... done
Starting the XC term evaluation                    ... done (   0.2 sec)
  promolecular density results
     # of electrons  =    816.012427319
     EX              =  -3712.263715960
     EC              =    -49.548265205
     EX+EC           =  -3761.811981165
Transforming the Hamiltonian                       ... done (   0.0 sec)
Diagonalizing the Hamiltonian                      ... done (   0.0 sec)
Back transforming the eigenvectors                 ... done (   0.0 sec)
Now organizing SCF variables                       ... done
                      ------------------
                      INITIAL GUESS DONE (   1.1 sec)
                      ------------------
-------------------
DFT GRID GENERATION
-------------------

General Integration Accuracy     IntAcc      ... 4.388
Radial Grid Type                 RadialGrid  ... OptM3 with GC (2021)
Angular Grid (max. ang.)         AngularGrid ... 4 (Lebedev-302)
Angular grid pruning method      GridPruning ... 4 (adaptive)
Weight generation scheme         WeightScheme... Becke
Basis function cutoff            BFCut       ... 1.0000e-10
Integration weight cutoff        WCut        ... 1.0000e-14
Angular grids for H and He will be reduced by one unit
Partially contracted basis set               ... off
Rotationally invariant grid construction     ... off

Total number of grid points                  ...   123814
Total number of batches                      ...     1941
Average number of points per batch           ...       63
Average number of grid points per atom       ...    11256
Time for grid setup =    0.904 sec

--------------
SCF ITERATIONS
--------------
ITER       Energy         Delta-E        Max-DP      RMS-DP      [F,P]     Damp
               ***  Starting incremental Fock matrix formation  ***
  0  -2619.0699177178   0.000000000000 0.12428674  0.00092265  0.4852477 0.9200
  1  -2620.1364140244  -1.066496306621 0.11153597  0.00082396  0.2972298 0.9200
                               ***Turning on DIIS***
  2  -2620.6885578501  -0.552143825659 0.07566468  0.00064633  0.2409753 0.9200
  3  -2620.8847228892  -0.196165039156 0.04796992  0.00049059  0.2209849 0.9200
  4  -2620.8909899878  -0.006267098574 0.01942024  0.00035028  0.2025584 0.9200
  5  -2620.8890352913   0.001954696504 0.02085498  0.00028959  0.1857551 0.9200
  6  -2620.9551281150  -0.066092823740 0.02621511  0.00026743  0.1703131 0.9200
  7  -2621.0448959881  -0.089767873086 0.02640782  0.00024513  0.1563331 0.9200
  8  -2621.1072104754  -0.062314487266 0.02492974  0.00022200  0.1438333 0.9200
  9  -2621.1544792559  -0.047268780570 0.02124054  0.00021610  0.1322981 0.9200
 10  -2621.1910588646  -0.036579608610 0.01927357  0.00019699  0.1216110 0.9200
 11  -2621.2201692983  -0.029110433751 0.01897378  0.00017697  0.1118219 0.9200
 12  -2621.2590075582  -0.038838259840 0.01823569  0.00017691  0.1027396 0.9200
 13  -2621.3009729335  -0.041965375377 0.01696289  0.00015482  0.0943174 0.9200
 14  -2621.3340013681  -0.033028434609 0.01527288  0.00014488  0.0867364 0.9200
 15  -2621.3643942458  -0.030392877627 0.01363733  0.00014085  0.0797600 0.9200
 16  -2621.3909480788  -0.026553833086 0.01271572  0.00012939  0.0733386 0.9200
 17  -2621.4152658606  -0.024317781702 0.01187185  0.00011758  0.0674536 0.9200
 18  -2621.4404469078  -0.025181047251 0.01096069  0.00011155  0.0619744 0.9200
 19  -2621.4633900739  -0.022943166075 0.00986947  0.00010085  0.0569401 0.9200
               *** Restarting incremental Fock matrix formation ***
                                   *** Resetting DIIS ***
 20  -2621.4843545325  -0.020964458606 0.00869860  0.00009499  0.0523629 0.9200
 21  -2621.5038856307  -0.019531098176 0.00783165  0.00008832  0.0480865 0.9200
 22  -2621.5220736468  -0.018188016098 0.00731466  0.00008186  0.0441759 0.9200
 23  -2621.5388820890  -0.016808442268 0.00689973  0.00007619  0.0406031 0.9200
 24  -2621.5543724101  -0.015490321073 0.00640417  0.00007137  0.0373299 0.9200
 25  -2621.5687132493  -0.014340839206 0.00583207  0.00006685  0.0343320 0.9200
 26  -2621.5820245069  -0.013311257604 0.00527104  0.00006271  0.0315768 0.9200
 27  -2621.5943610784  -0.012336571532 0.00481037  0.00005854  0.0290438 0.9200
 28  -2621.6057544457  -0.011393367230 0.00455035  0.00005447  0.0267104 0.9200
 29  -2621.6162712868  -0.010516841140 0.00414718  0.00005075  0.0245613 0.9200
 30  -2621.6260095144  -0.009738227596 0.00372788  0.00004740  0.0225874 0.9200
 31  -2621.6350287046  -0.009019190236 0.00346694  0.00004416  0.0207749 0.9200
 32  -2621.6433618490  -0.008333144337 0.00328303  0.00004094  0.0191078 0.9200
 33  -2621.6510526352  -0.007690786204 0.00305189  0.00003795  0.0175721 0.9200
 34  -2621.6581556704  -0.007103035194 0.00278093  0.00003529  0.0161594 0.9200
 35  -2621.6647249354  -0.006569265049 0.00257431  0.00003286  0.0148618 0.9200
 36  -2621.6707931903  -0.006068254888 0.00243082  0.00003045  0.0136693 0.9200
 37  -2621.6763914287  -0.005598238393 0.00226572  0.00002816  0.0125716 0.9200
 38  -2621.6815555874  -0.005164158718 0.00207388  0.00002609  0.0115611 0.9200
 39  -2621.6863235913  -0.004768003897 0.00171457  0.00002421  0.0106324 0.9200
               *** Restarting incremental Fock matrix formation ***
                                   *** Resetting DIIS ***
 40  -2621.6907260525  -0.004402461188 0.00159000  0.00002216  0.0097792 0.9200
 41  -2621.6947908673  -0.004064814773 0.00146189  0.00002018  0.0089837 0.9200
 42  -2621.6985374889  -0.003746621594 0.00135518  0.00001852  0.0082537 0.9200
 43  -2621.7019894022  -0.003451913327 0.00140561  0.00001723  0.0075852 0.9200
 44  -2621.7051715070  -0.003182104788 0.00137035  0.00001617  0.0069748 0.9200
 45  -2621.7081052813  -0.002933774268 0.00125737  0.00001517  0.0064159 0.9200
 46  -2621.7108091904  -0.002703909174 0.00118618  0.00001411  0.0059020 0.9200
 47  -2621.7133003467  -0.002491156280 0.00110341  0.00001309  0.0054281 0.9200
 48  -2621.7155952902  -0.002294943503 0.00099827  0.00001217  0.0049915 0.9200
 49  -2621.7177110060  -0.002115715766 0.00091913  0.00001137  0.0045906 0.9200
 50  -2621.7196607858  -0.001949779809 0.00087512  0.00001058  0.0042225 0.9200
 51  -2621.7214567893  -0.001796003479 0.00082255  0.00000981  0.0038838 0.9200
 52  -2621.7231109566  -0.001654167338 0.00075135  0.00000908  0.0035717 0.9200
 53  -2621.7246348086  -0.001523852002 0.00068148  0.00000845  0.0032848 0.9200
 54  -2621.7260388830  -0.001404074399 0.00064114  0.00000788  0.0030213 0.9200
 55  -2621.7273320102  -0.001293127234 0.00765947  0.00009140  0.0027790 0.0000
 56  -2621.7423061790  -0.014974168745 0.00039114  0.00000402  0.0002273 0.0000
 57  -2621.7423073187  -0.000001139667 0.00033902  0.00000238  0.0005066 0.0000
 58  -2621.7423092328  -0.000001914183 0.00018092  0.00000187  0.0000884 0.0000
 59  -2621.7423100216  -0.000000788727 0.00067318  0.00000459  0.0000691 0.0000
               *** Restarting incremental Fock matrix formation ***
                                   *** Resetting DIIS ***
 60  -2621.7423093477   0.000000673859 0.00026692  0.00000214  0.0000651 0.0000
 61  -2621.7423098516  -0.000000503855 0.00011424  0.00000133  0.0000610 0.0000
 62  -2621.7423102271  -0.000000375586 0.00012397  0.00000122  0.0000575 0.0000
 63  -2621.7423105564  -0.000000329263 0.00009680  0.00000113  0.0000612 0.0000
                 **** Energy Check signals convergence ****

               *****************************************************
               *                     SUCCESS                       *
               *           SCF CONVERGED AFTER  64 CYCLES          *
               *****************************************************


----------------
TOTAL SCF ENERGY
----------------

Total Energy       :        -2621.74231086 Eh          -71341.23520 eV

Components:
Nuclear Repulsion  :         3101.62359471 Eh           84399.46880 eV
Electronic Energy  :        -5723.36590557 Eh         -155740.70399 eV
One Electron Energy:       -10327.73720890 Eh         -281032.01685 eV
Two Electron Energy:         4604.37130333 Eh          125291.31285 eV

Virial components:
Potential Energy   :        -4341.09874212 Eh         -118127.30225 eV
Kinetic Energy     :         1719.35643127 Eh           46786.06705 eV
Virial Ratio       :            2.52483933


DFT components:
N(Alpha)           :      110.000019796743 electrons
N(Beta)            :      106.000014834382 electrons
N(Total)           :      216.000034631124 electrons
E(X)               :     -174.774249320775 Eh       
E(C)               :       -9.389983426103 Eh       
E(XC)              :     -184.164232746878 Eh       
DFET-embed. en.    :        0.000000000000 Eh       

---------------
SCF CONVERGENCE
---------------

  Last Energy change         ...   -3.0012e-07  Tolerance :   1.0000e-06
  Last MAX-Density change    ...    1.1475e-04  Tolerance :   1.0000e-05
  Last RMS-Density change    ...    1.1802e-06  Tolerance :   1.0000e-06
  Last DIIS Error            ...    5.4942e-05  Tolerance :   1.0000e-06

             **** THE GBW FILE WAS UPDATED (pbeSP.gbw) ****
             **** DENSITY pbeSP.scfp WAS UPDATED ****
             **** ENERGY FILE WAS UPDATED (pbeSP.en.tmp) ****
----------------------
UHF SPIN CONTAMINATION
----------------------

Warning: in a DFT calculation there is little theoretical justification to 
         calculate <S**2> as in Hartree-Fock theory. We will do it anyways
         but you should keep in mind that the values have only limited relevance

Expectation value of <S**2>     :     6.182698
Ideal value S*(S+1) for S=2.0   :     6.000000
Deviation                       :     0.182698

             **** THE GBW FILE WAS UPDATED (pbeSP.gbw) ****
             **** DENSITY pbeSP.scfp WAS UPDATED ****
----------------
ORBITAL ENERGIES
----------------
                 SPIN UP ORBITALS
  NO   OCC          E(Eh)            E(eV) 
   0   1.0000    -254.773585     -6932.7417 
   1   1.0000     -29.617436      -805.9314 
   2   1.0000     -25.561971      -695.5766 
   3   1.0000     -25.549587      -695.2396 
   4   1.0000     -25.544636      -695.1049 
   5   1.0000      -4.027597      -109.5965 
   6   1.0000      -4.027434      -109.5920 
   7   1.0000      -4.026114      -109.5561 
   8   1.0000      -4.025258      -109.5328 
   9   1.0000      -4.024874      -109.5224 
  10   1.0000      -4.023180      -109.4763 
  11   1.0000      -4.021789      -109.4384 
  12   1.0000      -4.020986      -109.4166 
  13   1.0000      -4.020353      -109.3994 
  14   1.0000      -4.005898      -109.0060 
  15   1.0000      -3.397082       -92.4393 
  16   1.0000      -2.249297       -61.2065 
  17   1.0000      -2.247453       -61.1563 
  18   1.0000      -2.245725       -61.1093 
  19   1.0000      -2.244240       -61.0689 
  20   1.0000      -2.243435       -61.0470 
  21   1.0000      -2.241629       -60.9978 
  22   1.0000      -2.241400       -60.9916 
  23   1.0000      -2.241057       -60.9823 
  24   1.0000      -2.239609       -60.9429 
  25   1.0000      -2.239336       -60.9354 
  26   1.0000      -2.238784       -60.9204 
  27   1.0000      -2.237958       -60.8979 
  28   1.0000      -2.237412       -60.8831 
  29   1.0000      -2.237370       -60.8819 
  30   1.0000      -2.236318       -60.8533 
  31   1.0000      -2.235888       -60.8416 
  32   1.0000      -2.233807       -60.7850 
  33   1.0000      -2.233158       -60.7673 
  34   1.0000      -2.232403       -60.7468 
  35   1.0000      -2.232002       -60.7359 
  36   1.0000      -2.231689       -60.7274 
  37   1.0000      -2.231236       -60.7150 
  38   1.0000      -2.231152       -60.7127 
  39   1.0000      -2.230124       -60.6848 
  40   1.0000      -2.229484       -60.6674 
  41   1.0000      -2.229466       -60.6669 
  42   1.0000      -2.228436       -60.6388 
  43   1.0000      -2.228063       -60.6287 
  44   1.0000      -2.225119       -60.5486 
  45   1.0000      -2.219361       -60.3919 
  46   1.0000      -2.211664       -60.1824 
  47   1.0000      -2.205000       -60.0011 
  48   1.0000      -2.195085       -59.7313 
  49   1.0000      -0.412081       -11.2133 
  50   1.0000      -0.387072       -10.5328 
  51   1.0000      -0.380642       -10.3578 
  52   1.0000      -0.376217       -10.2374 
  53   1.0000      -0.367676       -10.0050 
  54   1.0000      -0.365587        -9.9481 
  55   1.0000      -0.359611        -9.7855 
  56   1.0000      -0.351651        -9.5689 
  57   1.0000      -0.349077        -9.4989 
  58   1.0000      -0.345448        -9.4001 
  59   1.0000      -0.339987        -9.2515 
  60   1.0000      -0.335855        -9.1391 
  61   1.0000      -0.334655        -9.1064 
  62   1.0000      -0.332045        -9.0354 
  63   1.0000      -0.327051        -8.8995 
  64   1.0000      -0.326029        -8.8717 
  65   1.0000      -0.323610        -8.8059 
  66   1.0000      -0.318826        -8.6757 
  67   1.0000      -0.315867        -8.5952 
  68   1.0000      -0.313357        -8.5269 
  69   1.0000      -0.309890        -8.4325 
  70   1.0000      -0.305962        -8.3257 
  71   1.0000      -0.301126        -8.1941 
  72   1.0000      -0.298009        -8.1092 
  73   1.0000      -0.296596        -8.0708 
  74   1.0000      -0.293664        -7.9910 
  75   1.0000      -0.290184        -7.8963 
  76   1.0000      -0.288625        -7.8539 
  77   1.0000      -0.284736        -7.7481 
  78   1.0000      -0.283686        -7.7195 
  79   1.0000      -0.280435        -7.6310 
  80   1.0000      -0.279718        -7.6115 
  81   1.0000      -0.276394        -7.5211 
  82   1.0000      -0.274922        -7.4810 
  83   1.0000      -0.274097        -7.4586 
  84   1.0000      -0.272499        -7.4151 
  85   1.0000      -0.271060        -7.3759 
  86   1.0000      -0.270515        -7.3611 
  87   1.0000      -0.269749        -7.3402 
  88   1.0000      -0.267480        -7.2785 
  89   1.0000      -0.267115        -7.2686 
  90   1.0000      -0.263737        -7.1767 
  91   1.0000      -0.263357        -7.1663 
  92   1.0000      -0.262105        -7.1322 
  93   1.0000      -0.260100        -7.0777 
  94   1.0000      -0.259538        -7.0624 
  95   1.0000      -0.258254        -7.0274 
  96   1.0000      -0.254795        -6.9333 
  97   1.0000      -0.252700        -6.8763 
  98   1.0000      -0.252033        -6.8582 
  99   1.0000      -0.249395        -6.7864 
 100   1.0000      -0.247116        -6.7244 
 101   1.0000      -0.246261        -6.7011 
 102   1.0000      -0.245710        -6.6861 
 103   1.0000      -0.242928        -6.6104 
 104   1.0000      -0.238326        -6.4852 
 105   1.0000      -0.236491        -6.4353 
 106   1.0000      -0.233388        -6.3508 
 107   1.0000      -0.225692        -6.1414 
 108   1.0000      -0.214151        -5.8273 
 109   1.0000      -0.199538        -5.4297 
 110   0.0000      -0.163672        -4.4537 
 111   0.0000      -0.139105        -3.7852 
 112   0.0000      -0.128861        -3.5065 
 113   0.0000      -0.122594        -3.3359 
 114   0.0000      -0.105580        -2.8730 
 115   0.0000      -0.078527        -2.1368 
 116   0.0000      -0.062247        -1.6938 
 117   0.0000      -0.055945        -1.5224 
 118   0.0000      -0.050023        -1.3612 
 119   0.0000      -0.044552        -1.2123 
 120   0.0000      -0.033612        -0.9146 
 121   0.0000      -0.032754        -0.8913 
 122   0.0000      -0.024639        -0.6705 
 123   0.0000      -0.012877        -0.3504 
 124   0.0000       0.000818         0.0223 
 125   0.0000       0.007721         0.2101 
 126   0.0000       0.023292         0.6338 
 127   0.0000       0.029367         0.7991 
 128   0.0000       0.035882         0.9764 
 129   0.0000       0.044226         1.2035 
 130   0.0000       0.049261         1.3405 
 131   0.0000       0.054706         1.4886 
 132   0.0000       0.058261         1.5854 
 133   0.0000       0.062557         1.7023 
 134   0.0000       0.064066         1.7433 
 135   0.0000       0.066751         1.8164 
 136   0.0000       0.077995         2.1223 
 137   0.0000       0.085848         2.3360 
 138   0.0000       0.092081         2.5057 
 139   0.0000       0.095826         2.6076 
 140   0.0000       0.100549         2.7361 
 141   0.0000       0.104531         2.8444 
 142   0.0000       0.112404         3.0587 
 143   0.0000       0.131607         3.5812 
 144   0.0000       0.136315         3.7093 
 145   0.0000       0.146845         3.9959 
 146   0.0000       0.149323         4.0633 
 147   0.0000       0.153906         4.1880 
 148   0.0000       0.157737         4.2922 
 149   0.0000       0.172720         4.7000 
 150   0.0000       0.181437         4.9372 
 151   0.0000       0.183998         5.0069 
 152   0.0000       0.193495         5.2653 
 153   0.0000       0.199204         5.4206 
 154   0.0000       0.200850         5.4654 
 155   0.0000       0.210057         5.7159 
 156   0.0000       0.217062         5.9066 
 157   0.0000       0.221960         6.0398 
 158   0.0000       0.226749         6.1702 
 159   0.0000       0.236668         6.4401 
 160   0.0000       0.242298         6.5933 
 161   0.0000       0.251175         6.8348 
 162   0.0000       0.254831         6.9343 
 163   0.0000       0.261425         7.1137 
 164   0.0000       0.265666         7.2291 
 165   0.0000       0.274587         7.4719 
 166   0.0000       0.278438         7.5767 
 167   0.0000       0.282578         7.6893 
 168   0.0000       0.287647         7.8273 
 169   0.0000       0.292416         7.9571 
 170   0.0000       0.294539         8.0148 
 171   0.0000       0.303544         8.2599 
 172   0.0000       0.305365         8.3094 
 173   0.0000       0.312679         8.5084 
 174   0.0000       0.316874         8.6226 
 175   0.0000       0.321769         8.7558 
 176   0.0000       0.324356         8.8262 
 177   0.0000       0.327482         8.9113 
 178   0.0000       0.333094         9.0639 
 179   0.0000       0.338747         9.2178 
 180   0.0000       0.342645         9.3238 
 181   0.0000       0.344738         9.3808 
 182   0.0000       0.351397         9.5620 
 183   0.0000       0.363896         9.9021 
 184   0.0000       0.367775        10.0077 
 185   0.0000       0.370261        10.0753 
 186   0.0000       0.378672        10.3042 
 187   0.0000       0.380310        10.3488 
 188   0.0000       0.383361        10.4318 
 189   0.0000       0.395408        10.7596 
 190   0.0000       0.399287        10.8652 
 191   0.0000       0.400143        10.8884 
 192   0.0000       0.410090        11.1591 
 193   0.0000       0.417189        11.3523 
 194   0.0000       0.421733        11.4759 
 195   0.0000       0.430399        11.7118 
 196   0.0000       0.433774        11.8036 
 197   0.0000       0.445256        12.1160 
 198   0.0000       0.447252        12.1703 
 199   0.0000       0.453467        12.3395 
 200   0.0000       0.457455        12.4480 
 201   0.0000       0.464142        12.6299 
 202   0.0000       0.471080        12.8187 
 203   0.0000       0.474665        12.9163 
 204   0.0000       0.476890        12.9768 
 205   0.0000       0.483974        13.1696 
 206   0.0000       0.494265        13.4496 
 207   0.0000       0.502227        13.6663 
 208   0.0000       0.511144        13.9089 
 209   0.0000       0.512349        13.9417 
 210   0.0000       0.523181        14.2365 
 211   0.0000       0.532960        14.5026 
 212   0.0000       0.546888        14.8816 
 213   0.0000       0.548699        14.9309 
 214   0.0000       0.591214        16.0877 
 215   0.0000       0.599081        16.3018 
 216   0.0000       0.610072        16.6009 
 217   0.0000       0.614416        16.7191 
 218   0.0000       0.637599        17.3500 
 219   0.0000       0.646670        17.5968 
 220   0.0000       0.678190        18.4545 
 221   0.0000       0.679474        18.4894 
 222   0.0000       0.682687        18.5768 
 223   0.0000       0.702125        19.1058 
 224   0.0000       0.716349        19.4928 
 225   0.0000       0.724927        19.7263 
 226   0.0000       0.731756        19.9121 
 227   0.0000       0.736235        20.0340 
 228   0.0000       0.757777        20.6202 
 229   0.0000       0.773636        21.0517 
 230   0.0000       0.801916        21.8213 
 231   0.0000       0.808723        22.0065 
 232   0.0000       0.836526        22.7630 
 233   0.0000       0.853343        23.2207 
 234   0.0000       0.873778        23.7767 
 235   0.0000       0.888626        24.1807 
 236   0.0000       0.903893        24.5962 
 237   0.0000       0.909062        24.7368 
 238   0.0000       0.915308        24.9068 
 239   0.0000       0.927731        25.2448 
 240   0.0000       0.934379        25.4257 
 241   0.0000       0.936984        25.4966 
 242   0.0000       0.946133        25.7456 
 243   0.0000       0.965985        26.2858 
 244   0.0000       0.972615        26.4662 
 245   0.0000       0.985647        26.8208 
 246   0.0000       1.010302        27.4917 
 247   0.0000       1.035567        28.1792 
 248   0.0000       1.112344        30.2684 
 249   0.0000       1.208555        32.8864 
 250   0.0000       1.224466        33.3194 
 251   0.0000       1.239790        33.7364 
 252   0.0000       1.268375        34.5142 
 253   0.0000       1.269341        34.5405 
 254   0.0000       1.279199        34.8088 
 255   0.0000       1.282811        34.9071 
 256   0.0000       1.308226        35.5986 
 257   0.0000       1.314036        35.7567 
 258   0.0000       1.315847        35.8060 
 259   0.0000       1.327856        36.1328 
 260   0.0000       1.347081        36.6559 
 261   0.0000       1.350008        36.7356 
 262   0.0000       1.361243        37.0413 
 263   0.0000       1.368172        37.2299 
 264   0.0000       1.374195        37.3937 
 265   0.0000       1.381664        37.5970 
 266   0.0000       1.386682        37.7335 
 267   0.0000       1.389566        37.8120 
 268   0.0000       1.395300        37.9680 
 269   0.0000       1.399634        38.0860 
 270   0.0000       1.407420        38.2978 
 271   0.0000       1.410981        38.3947 
 272   0.0000       1.418783        38.6070 
 273   0.0000       1.428127        38.8613 
 274   0.0000       1.432888        38.9909 
 275   0.0000       1.434834        39.0438 
 276   0.0000       1.439448        39.1694 
 277   0.0000       1.448012        39.4024 
 278   0.0000       1.450458        39.4690 
 279   0.0000       1.452591        39.5270 
 280   0.0000       1.457828        39.6695 
 281   0.0000       1.462786        39.8044 
 282   0.0000       1.465282        39.8724 
 283   0.0000       1.468410        39.9575 
 284   0.0000       1.470371        40.0108 
 285   0.0000       1.474743        40.1298 
 286   0.0000       1.478829        40.2410 
 287   0.0000       1.480688        40.2916 
 288   0.0000       1.482186        40.3323 
 289   0.0000       1.483519        40.3686 
 290   0.0000       1.485202        40.4144 
 291   0.0000       1.486319        40.4448 
 292   0.0000       1.487700        40.4824 
 293   0.0000       1.489892        40.5420 
 294   0.0000       1.492616        40.6161 
 295   0.0000       1.494864        40.6773 
 296   0.0000       1.496910        40.7330 
 297   0.0000       1.497353        40.7450 
 298   0.0000       1.500555        40.8322 
 299   0.0000       1.502350        40.8810 
 300   0.0000       1.503208        40.9044 
 301   0.0000       1.505176        40.9579 
 302   0.0000       1.506326        40.9892 
 303   0.0000       1.507355        41.0172 
 304   0.0000       1.511441        41.1284 
 305   0.0000       1.514078        41.2002 
 306   0.0000       1.514648        41.2157 
 307   0.0000       1.517650        41.2974 
 308   0.0000       1.519848        41.3572 
 309   0.0000       1.522303        41.4240 
 310   0.0000       1.522823        41.4381 
 311   0.0000       1.526694        41.5435 
 312   0.0000       1.526777        41.5457 
 313   0.0000       1.529669        41.6244 
 314   0.0000       1.531038        41.6617 
 315   0.0000       1.533697        41.7340 
 316   0.0000       1.534772        41.7633 
 317   0.0000       1.539029        41.8791 
 318   0.0000       1.540825        41.9280 
 319   0.0000       1.541983        41.9595 
 320   0.0000       1.544420        42.0258 
 321   0.0000       1.546682        42.0874 
 322   0.0000       1.548954        42.1492 
 323   0.0000       1.550189        42.1828 
 324   0.0000       1.554826        42.3090 
 325   0.0000       1.555172        42.3184 
 326   0.0000       1.555868        42.3373 
 327   0.0000       1.559318        42.4312 
 328   0.0000       1.560137        42.4535 
 329   0.0000       1.564323        42.5674 
 330   0.0000       1.564993        42.5856 
 331   0.0000       1.569501        42.7083 
 332   0.0000       1.572941        42.8019 
 333   0.0000       1.576729        42.9050 
 334   0.0000       1.579166        42.9713 
 335   0.0000       1.582815        43.0706 
 336   0.0000       1.584244        43.1095 
 337   0.0000       1.586544        43.1721 
 338   0.0000       1.590657        43.2840 
 339   0.0000       1.594807        43.3969 
 340   0.0000       1.601578        43.5812 
 341   0.0000       1.606652        43.7192 
 342   0.0000       1.607442        43.7407 
 343   0.0000       1.610248        43.8171 
 344   0.0000       1.614306        43.9275 
 345   0.0000       1.619594        44.0714 
 346   0.0000       1.621400        44.1205 
 347   0.0000       1.632460        44.4215 
 348   0.0000       1.634539        44.4781 
 349   0.0000       1.641611        44.6705 
 350   0.0000       1.658518        45.1306 
 351   0.0000       1.675695        45.5980 
 352   0.0000       1.681443        45.7544 
 353   0.0000       1.694660        46.1141 
 354   0.0000       1.699830        46.2547 
 355   0.0000       1.711899        46.5831 
 356   0.0000       1.724536        46.9270 
 357   0.0000       1.744203        47.4622 
 358   0.0000       1.772530        48.2330 
 359   0.0000       1.788170        48.6586 
 360   0.0000       1.807593        49.1871 
 361   0.0000       1.828084        49.7447 
 362   0.0000       1.840611        50.0856 
 363   0.0000       1.865152        50.7534 
 364   0.0000       1.880902        51.1819 
 365   0.0000       1.922469        52.3130 
 366   0.0000       1.938159        52.7400 
 367   0.0000       1.949315        53.0435 
 368   0.0000       1.977100        53.7996 
 369   0.0000       2.066909        56.2434 
 370   0.0000       2.108587        57.3776 
 371   0.0000       2.143683        58.3326 
 372   0.0000       2.192177        59.6522 
 373   0.0000       2.225373        60.5555 
 374   0.0000       2.305177        62.7271 
 375   0.0000       2.355323        64.0916 
 376   0.0000       2.374058        64.6014 
 377   0.0000       2.414755        65.7088 
 378   0.0000       2.455322        66.8127 
 379   0.0000       2.469611        67.2015 
 380   0.0000       2.494441        67.8772 
 381   0.0000       2.534770        68.9746 
 382   0.0000       3.034451        82.5716 
 383   0.0000       3.441502        93.6480 
 384   0.0000       3.481788        94.7443 
 385   0.0000       3.595523        97.8392 
 386   0.0000       3.614780        98.3632 
 387   0.0000       3.619294        98.4860 
 388   0.0000       3.869292       105.2888 
 389   0.0000       3.877065       105.5003 
 390   0.0000       3.884344       105.6984 
 391   0.0000       3.887256       105.7776 
 392   0.0000       3.896115       106.0187 
 393   0.0000       3.905862       106.2839 
 394   0.0000       3.909785       106.3906 
 395   0.0000      23.636635       643.1855 
 396   0.0000      23.643839       643.3816 
 397   0.0000      23.782198       647.1465 
 398   0.0000      23.959274       651.9650 
 399   0.0000      24.137053       656.8026 
 400   0.0000      24.200829       658.5380 
 401   0.0000      24.301837       661.2866 
 402   0.0000      24.504930       666.8130 
 403   0.0000      24.563361       668.4030 
 404   0.0000      24.887294       677.2177 
 405   0.0000      24.989031       679.9861 
 406   0.0000      25.243227       686.9031 
 407   0.0000      25.479844       693.3418 
 408   0.0000      25.582660       696.1396 
 409   0.0000      25.839116       703.1181 
 410   0.0000      26.100467       710.2298 
 411   0.0000      26.209317       713.1918 
 412   0.0000      26.295457       715.5358 
 413   0.0000      26.471213       720.3183 
 414   0.0000      26.793256       729.0816 
 415   0.0000      26.850884       730.6497 
 416   0.0000      27.020683       735.2702 
 417   0.0000      27.324166       743.5283 
 418   0.0000      27.387958       745.2642 
 419   0.0000      27.665140       752.8067 
 420   0.0000      27.916377       759.6432 
 421   0.0000      28.148675       765.9644 
 422   0.0000      28.302545       770.1514 
 423   0.0000      28.552614       776.9561 
 424   0.0000      28.749104       782.3029 
 425   0.0000      43.820941      1192.4284 
 426   0.0000      43.920185      1195.1290 
 427   0.0000      43.942144      1195.7265 
 428   0.0000      44.003632      1197.3997 
 429   0.0000      44.035665      1198.2714 
 430   0.0000      44.076623      1199.3859 
 431   0.0000      44.119886      1200.5631 
 432   0.0000      44.133831      1200.9426 
 433   0.0000      44.145284      1201.2542 
 434   0.0000      44.182722      1202.2730 
 435   0.0000     205.059534      5579.9536 
 436   0.0000     205.100815      5581.0769 
 437   0.0000     205.105894      5581.2151 
 438   0.0000     205.130961      5581.8972 
 439   0.0000     205.146463      5582.3191 
 440   0.0000     205.163292      5582.7770 
 441   0.0000     205.182899      5583.3105 
 442   0.0000     205.186741      5583.4151 
 443   0.0000     205.192498      5583.5717 
 444   0.0000     205.203782      5583.8788 

                 SPIN DOWN ORBITALS
  NO   OCC          E(Eh)            E(eV) 
   0   1.0000    -254.772788     -6932.7200 
   1   1.0000     -29.555009      -804.2327 
   2   1.0000     -25.510282      -694.1701 
   3   1.0000     -25.503518      -693.9860 
   4   1.0000     -25.500888      -693.9144 
   5   1.0000      -4.026619      -109.5699 
   6   1.0000      -4.025422      -109.5373 
   7   1.0000      -4.025377      -109.5361 
   8   1.0000      -4.023692      -109.4902 
   9   1.0000      -4.023263      -109.4785 
  10   1.0000      -4.021878      -109.4409 
  11   1.0000      -4.020954      -109.4157 
  12   1.0000      -4.020191      -109.3950 
  13   1.0000      -4.019751      -109.3830 
  14   1.0000      -4.005773      -109.0026 
  15   1.0000      -3.255802       -88.5949 
  16   1.0000      -2.246908       -61.1415 
  17   1.0000      -2.246317       -61.1254 
  18   1.0000      -2.244784       -61.0837 
  19   1.0000      -2.242167       -61.0125 
  20   1.0000      -2.240803       -60.9753 
  21   1.0000      -2.239908       -60.9510 
  22   1.0000      -2.239631       -60.9434 
  23   1.0000      -2.239019       -60.9268 
  24   1.0000      -2.237663       -60.8899 
  25   1.0000      -2.237468       -60.8846 
  26   1.0000      -2.236888       -60.8688 
  27   1.0000      -2.236662       -60.8627 
  28   1.0000      -2.236374       -60.8548 
  29   1.0000      -2.236071       -60.8466 
  30   1.0000      -2.235269       -60.8248 
  31   1.0000      -2.235053       -60.8189 
  32   1.0000      -2.233215       -60.7689 
  33   1.0000      -2.232573       -60.7514 
  34   1.0000      -2.231632       -60.7258 
  35   1.0000      -2.231431       -60.7203 
  36   1.0000      -2.231220       -60.7146 
  37   1.0000      -2.230594       -60.6975 
  38   1.0000      -2.229685       -60.6728 
  39   1.0000      -2.229025       -60.6549 
  40   1.0000      -2.228470       -60.6398 
  41   1.0000      -2.227749       -60.6201 
  42   1.0000      -2.226436       -60.5844 
  43   1.0000      -2.224938       -60.5436 
  44   1.0000      -2.219263       -60.3892 
  45   1.0000      -2.211498       -60.1779 
  46   1.0000      -2.077394       -56.5288 
  47   1.0000      -2.070373       -56.3377 
  48   1.0000      -2.067673       -56.2642 
  49   1.0000      -0.407216       -11.0809 
  50   1.0000      -0.385280       -10.4840 
  51   1.0000      -0.376395       -10.2422 
  52   1.0000      -0.369589       -10.0570 
  53   1.0000      -0.361515        -9.8373 
  54   1.0000      -0.356312        -9.6957 
  55   1.0000      -0.348472        -9.4824 
  56   1.0000      -0.340812        -9.2740 
  57   1.0000      -0.337471        -9.1831 
  58   1.0000      -0.335834        -9.1385 
  59   1.0000      -0.332458        -9.0466 
  60   1.0000      -0.330449        -8.9920 
  61   1.0000      -0.326240        -8.8775 
  62   1.0000      -0.320789        -8.7291 
  63   1.0000      -0.319060        -8.6821 
  64   1.0000      -0.318081        -8.6554 
  65   1.0000      -0.313871        -8.5409 
  66   1.0000      -0.313450        -8.5294 
  67   1.0000      -0.310463        -8.4481 
  68   1.0000      -0.309739        -8.4284 
  69   1.0000      -0.306761        -8.3474 
  70   1.0000      -0.298583        -8.1248 
  71   1.0000      -0.296047        -8.0559 
  72   1.0000      -0.293484        -7.9861 
  73   1.0000      -0.292173        -7.9504 
  74   1.0000      -0.289604        -7.8805 
  75   1.0000      -0.288925        -7.8620 
  76   1.0000      -0.286405        -7.7935 
  77   1.0000      -0.281987        -7.6733 
  78   1.0000      -0.277841        -7.5604 
  79   1.0000      -0.275505        -7.4969 
  80   1.0000      -0.273748        -7.4491 
  81   1.0000      -0.272462        -7.4141 
  82   1.0000      -0.271080        -7.3765 
  83   1.0000      -0.270542        -7.3618 
  84   1.0000      -0.269372        -7.3300 
  85   1.0000      -0.268759        -7.3133 
  86   1.0000      -0.267642        -7.2829 
  87   1.0000      -0.264306        -7.1921 
  88   1.0000      -0.262438        -7.1413 
  89   1.0000      -0.261375        -7.1124 
  90   1.0000      -0.258944        -7.0462 
  91   1.0000      -0.257288        -7.0012 
  92   1.0000      -0.256634        -6.9834 
  93   1.0000      -0.254395        -6.9224 
  94   1.0000      -0.253417        -6.8958 
  95   1.0000      -0.251364        -6.8400 
  96   1.0000      -0.248567        -6.7639 
  97   1.0000      -0.245633        -6.6840 
  98   1.0000      -0.242386        -6.5957 
  99   1.0000      -0.238866        -6.4999 
 100   1.0000      -0.236561        -6.4372 
 101   1.0000      -0.232556        -6.3282 
 102   1.0000      -0.229571        -6.2469 
 103   1.0000      -0.220224        -5.9926 
 104   1.0000      -0.208429        -5.6717 
 105   1.0000      -0.192262        -5.2317 
 106   0.0000      -0.177410        -4.8276 
 107   0.0000      -0.172302        -4.6886 
 108   0.0000      -0.169062        -4.6004 
 109   0.0000      -0.158189        -4.3045 
 110   0.0000      -0.153348        -4.1728 
 111   0.0000      -0.131502        -3.5784 
 112   0.0000      -0.123864        -3.3705 
 113   0.0000      -0.118811        -3.2330 
 114   0.0000      -0.097730        -2.6594 
 115   0.0000      -0.074331        -2.0226 
 116   0.0000      -0.059549        -1.6204 
 117   0.0000      -0.051516        -1.4018 
 118   0.0000      -0.046747        -1.2720 
 119   0.0000      -0.041029        -1.1165 
 120   0.0000      -0.030635        -0.8336 
 121   0.0000      -0.029796        -0.8108 
 122   0.0000      -0.020717        -0.5637 
 123   0.0000      -0.009721        -0.2645 
 124   0.0000       0.001506         0.0410 
 125   0.0000       0.011044         0.3005 
 126   0.0000       0.025918         0.7053 
 127   0.0000       0.031972         0.8700 
 128   0.0000       0.038382         1.0444 
 129   0.0000       0.046113         1.2548 
 130   0.0000       0.050932         1.3859 
 131   0.0000       0.057141         1.5549 
 132   0.0000       0.060859         1.6561 
 133   0.0000       0.064098         1.7442 
 134   0.0000       0.065719         1.7883 
 135   0.0000       0.070623         1.9217 
 136   0.0000       0.079553         2.1647 
 137   0.0000       0.088095         2.3972 
 138   0.0000       0.093517         2.5447 
 139   0.0000       0.098720         2.6863 
 140   0.0000       0.103105         2.8056 
 141   0.0000       0.106058         2.8860 
 142   0.0000       0.114475         3.1150 
 143   0.0000       0.135740         3.6937 
 144   0.0000       0.143534         3.9058 
 145   0.0000       0.148741         4.0474 
 146   0.0000       0.153514         4.1773 
 147   0.0000       0.159825         4.3491 
 148   0.0000       0.164854         4.4859 
 149   0.0000       0.177135         4.8201 
 150   0.0000       0.188459         5.1282 
 151   0.0000       0.189191         5.1482 
 152   0.0000       0.197579         5.3764 
 153   0.0000       0.201445         5.4816 
 154   0.0000       0.207316         5.6414 
 155   0.0000       0.212191         5.7740 
 156   0.0000       0.223861         6.0916 
 157   0.0000       0.224334         6.1044 
 158   0.0000       0.228117         6.2074 
 159   0.0000       0.238127         6.4798 
 160   0.0000       0.243866         6.6359 
 161   0.0000       0.255783         6.9602 
 162   0.0000       0.257617         7.0101 
 163   0.0000       0.262987         7.1562 
 164   0.0000       0.266734         7.2582 
 165   0.0000       0.276142         7.5142 
 166   0.0000       0.280325         7.6280 
 167   0.0000       0.283582         7.7167 
 168   0.0000       0.288576         7.8526 
 169   0.0000       0.293606         7.9894 
 170   0.0000       0.296038         8.0556 
 171   0.0000       0.304798         8.2940 
 172   0.0000       0.307089         8.3563 
 173   0.0000       0.313733         8.5371 
 174   0.0000       0.318418         8.6646 
 175   0.0000       0.322876         8.7859 
 176   0.0000       0.325836         8.8664 
 177   0.0000       0.328678         8.9438 
 178   0.0000       0.333569         9.0769 
 179   0.0000       0.339412         9.2359 
 180   0.0000       0.343508         9.3473 
 181   0.0000       0.345827         9.4104 
 182   0.0000       0.353032         9.6065 
 183   0.0000       0.365293         9.9401 
 184   0.0000       0.368903        10.0384 
 185   0.0000       0.371560        10.1107 
 186   0.0000       0.379606        10.3296 
 187   0.0000       0.381227        10.3737 
 188   0.0000       0.385325        10.4852 
 189   0.0000       0.397586        10.8189 
 190   0.0000       0.401202        10.9173 
 191   0.0000       0.402178        10.9438 
 192   0.0000       0.411987        11.2107 
 193   0.0000       0.419562        11.4169 
 194   0.0000       0.423405        11.5214 
 195   0.0000       0.432254        11.7622 
 196   0.0000       0.435412        11.8482 
 197   0.0000       0.447321        12.1722 
 198   0.0000       0.450711        12.2645 
 199   0.0000       0.454613        12.3707 
 200   0.0000       0.460592        12.5333 
 201   0.0000       0.466309        12.6889 
 202   0.0000       0.473259        12.8780 
 203   0.0000       0.476206        12.9582 
 204   0.0000       0.480745        13.0817 
 205   0.0000       0.486874        13.2485 
 206   0.0000       0.496735        13.5169 
 207   0.0000       0.504255        13.7215 
 208   0.0000       0.512537        13.9468 
 209   0.0000       0.515643        14.0314 
 210   0.0000       0.524902        14.2833 
 211   0.0000       0.534561        14.5462 
 212   0.0000       0.549199        14.9445 
 213   0.0000       0.551514        15.0074 
 214   0.0000       0.597220        16.2512 
 215   0.0000       0.608093        16.5470 
 216   0.0000       0.612219        16.6593 
 217   0.0000       0.625406        17.0182 
 218   0.0000       0.644821        17.5465 
 219   0.0000       0.652297        17.7499 
 220   0.0000       0.681959        18.5571 
 221   0.0000       0.683509        18.5992 
 222   0.0000       0.685867        18.6634 
 223   0.0000       0.706302        19.2195 
 224   0.0000       0.721557        19.6346 
 225   0.0000       0.729209        19.8428 
 226   0.0000       0.735818        20.0226 
 227   0.0000       0.737361        20.0646 
 228   0.0000       0.762042        20.7362 
 229   0.0000       0.778834        21.1932 
 230   0.0000       0.805295        21.9132 
 231   0.0000       0.810848        22.0643 
 232   0.0000       0.837757        22.7965 
 233   0.0000       0.855599        23.2820 
 234   0.0000       0.882046        24.0017 
 235   0.0000       0.896941        24.4070 
 236   0.0000       0.910898        24.7868 
 237   0.0000       0.919451        25.0195 
 238   0.0000       0.924912        25.1681 
 239   0.0000       0.936985        25.4967 
 240   0.0000       0.945080        25.7169 
 241   0.0000       0.946965        25.7682 
 242   0.0000       0.964967        26.2581 
 243   0.0000       0.979214        26.6458 
 244   0.0000       0.982680        26.7401 
 245   0.0000       0.997683        27.1483 
 246   0.0000       1.017111        27.6770 
 247   0.0000       1.038790        28.2669 
 248   0.0000       1.116651        30.3856 
 249   0.0000       1.209408        32.9097 
 250   0.0000       1.225345        33.3433 
 251   0.0000       1.240640        33.7595 
 252   0.0000       1.269340        34.5405 
 253   0.0000       1.271124        34.5891 
 254   0.0000       1.280287        34.8384 
 255   0.0000       1.284286        34.9472 
 256   0.0000       1.309690        35.6385 
 257   0.0000       1.314993        35.7828 
 258   0.0000       1.317274        35.8448 
 259   0.0000       1.329394        36.1746 
 260   0.0000       1.348858        36.7043 
 261   0.0000       1.351088        36.7650 
 262   0.0000       1.361931        37.0600 
 263   0.0000       1.369725        37.2721 
 264   0.0000       1.375627        37.4327 
 265   0.0000       1.383187        37.6384 
 266   0.0000       1.388558        37.7846 
 267   0.0000       1.390669        37.8420 
 268   0.0000       1.397331        38.0233 
 269   0.0000       1.401852        38.1463 
 270   0.0000       1.408831        38.3362 
 271   0.0000       1.413088        38.4521 
 272   0.0000       1.420473        38.6530 
 273   0.0000       1.429478        38.8981 
 274   0.0000       1.435029        39.0491 
 275   0.0000       1.437449        39.1150 
 276   0.0000       1.440715        39.2038 
 277   0.0000       1.449531        39.4438 
 278   0.0000       1.452365        39.5209 
 279   0.0000       1.454171        39.5700 
 280   0.0000       1.458858        39.6976 
 281   0.0000       1.463613        39.8269 
 282   0.0000       1.466638        39.9093 
 283   0.0000       1.470316        40.0093 
 284   0.0000       1.472269        40.0625 
 285   0.0000       1.476267        40.1713 
 286   0.0000       1.479822        40.2680 
 287   0.0000       1.482600        40.3436 
 288   0.0000       1.484217        40.3876 
 289   0.0000       1.484825        40.4041 
 290   0.0000       1.487069        40.4652 
 291   0.0000       1.488003        40.4906 
 292   0.0000       1.490198        40.5503 
 293   0.0000       1.490959        40.5711 
 294   0.0000       1.494201        40.6593 
 295   0.0000       1.496468        40.7210 
 296   0.0000       1.498304        40.7709 
 297   0.0000       1.498538        40.7773 
 298   0.0000       1.502087        40.8739 
 299   0.0000       1.504024        40.9266 
 300   0.0000       1.505185        40.9582 
 301   0.0000       1.506929        41.0056 
 302   0.0000       1.508199        41.0402 
 303   0.0000       1.509097        41.0646 
 304   0.0000       1.512752        41.1641 
 305   0.0000       1.515845        41.2482 
 306   0.0000       1.516330        41.2614 
 307   0.0000       1.519055        41.3356 
 308   0.0000       1.521920        41.4136 
 309   0.0000       1.524386        41.4806 
 310   0.0000       1.524643        41.4876 
 311   0.0000       1.527984        41.5785 
 312   0.0000       1.528642        41.5965 
 313   0.0000       1.531327        41.6695 
 314   0.0000       1.532789        41.7093 
 315   0.0000       1.536516        41.8107 
 316   0.0000       1.536812        41.8188 
 317   0.0000       1.540907        41.9302 
 318   0.0000       1.542962        41.9861 
 319   0.0000       1.544311        42.0228 
 320   0.0000       1.546388        42.0793 
 321   0.0000       1.548890        42.1474 
 322   0.0000       1.551271        42.2122 
 323   0.0000       1.551793        42.2264 
 324   0.0000       1.555921        42.3388 
 325   0.0000       1.556591        42.3570 
 326   0.0000       1.558585        42.4112 
 327   0.0000       1.560952        42.4757 
 328   0.0000       1.562191        42.5094 
 329   0.0000       1.566102        42.6158 
 330   0.0000       1.567027        42.6410 
 331   0.0000       1.571344        42.7585 
 332   0.0000       1.575099        42.8606 
 333   0.0000       1.579301        42.9750 
 334   0.0000       1.581133        43.0248 
 335   0.0000       1.585462        43.1426 
 336   0.0000       1.585540        43.1447 
 337   0.0000       1.588755        43.2322 
 338   0.0000       1.593236        43.3542 
 339   0.0000       1.596860        43.4528 
 340   0.0000       1.603719        43.6394 
 341   0.0000       1.608843        43.7788 
 342   0.0000       1.609389        43.7937 
 343   0.0000       1.611982        43.8643 
 344   0.0000       1.617057        44.0023 
 345   0.0000       1.621018        44.1101 
 346   0.0000       1.623776        44.1852 
 347   0.0000       1.638021        44.5728 
 348   0.0000       1.639874        44.6232 
 349   0.0000       1.648178        44.8492 
 350   0.0000       1.662905        45.2499 
 351   0.0000       1.678657        45.6786 
 352   0.0000       1.685482        45.8643 
 353   0.0000       1.700357        46.2691 
 354   0.0000       1.705068        46.3973 
 355   0.0000       1.717637        46.7393 
 356   0.0000       1.730913        47.1005 
 357   0.0000       1.753762        47.7223 
 358   0.0000       1.781821        48.4858 
 359   0.0000       1.790292        48.7163 
 360   0.0000       1.815140        49.3925 
 361   0.0000       1.831455        49.8364 
 362   0.0000       1.843248        50.1573 
 363   0.0000       1.868182        50.8358 
 364   0.0000       1.889038        51.4033 
 365   0.0000       1.928466        52.4762 
 366   0.0000       1.940235        52.7965 
 367   0.0000       1.950834        53.0849 
 368   0.0000       1.981435        53.9176 
 369   0.0000       2.072229        56.3882 
 370   0.0000       2.163536        58.8728 
 371   0.0000       2.183675        59.4208 
 372   0.0000       2.200687        59.8837 
 373   0.0000       2.233880        60.7870 
 374   0.0000       2.313983        62.9667 
 375   0.0000       2.359862        64.2151 
 376   0.0000       2.378529        64.7231 
 377   0.0000       2.451160        66.6995 
 378   0.0000       2.456582        66.8470 
 379   0.0000       2.471389        67.2499 
 380   0.0000       2.496909        67.9443 
 381   0.0000       2.539330        69.0987 
 382   0.0000       3.125393        85.0463 
 383   0.0000       3.548190        96.5512 
 384   0.0000       3.571903        97.1964 
 385   0.0000       3.686165       100.3057 
 386   0.0000       3.704242       100.7976 
 387   0.0000       3.714779       101.0843 
 388   0.0000       3.994981       108.7090 
 389   0.0000       4.001285       108.8805 
 390   0.0000       4.002608       108.9165 
 391   0.0000       4.009709       109.1097 
 392   0.0000       4.015412       109.2649 
 393   0.0000       4.018663       109.3534 
 394   0.0000       4.031934       109.7145 
 395   0.0000      23.637065       643.1972 
 396   0.0000      23.644169       643.3906 
 397   0.0000      23.782884       647.1652 
 398   0.0000      23.960025       651.9854 
 399   0.0000      24.137615       656.8179 
 400   0.0000      24.201721       658.5623 
 401   0.0000      24.302483       661.3042 
 402   0.0000      24.505875       666.8388 
 403   0.0000      24.564469       668.4332 
 404   0.0000      24.887975       677.2362 
 405   0.0000      24.989606       680.0018 
 406   0.0000      25.243648       686.9146 
 407   0.0000      25.480742       693.3663 
 408   0.0000      25.583617       696.1656 
 409   0.0000      25.840004       703.1422 
 410   0.0000      26.101612       710.2610 
 411   0.0000      26.210366       713.2203 
 412   0.0000      26.296117       715.5537 
 413   0.0000      26.472061       720.3414 
 414   0.0000      26.794068       729.1037 
 415   0.0000      26.851902       730.6774 
 416   0.0000      27.021158       735.2831 
 417   0.0000      27.325421       743.5625 
 418   0.0000      27.388906       745.2900 
 419   0.0000      27.665723       752.8226 
 420   0.0000      27.917011       759.6605 
 421   0.0000      28.149727       765.9930 
 422   0.0000      28.304547       770.2059 
 423   0.0000      28.554052       776.9952 
 424   0.0000      28.750763       782.3480 
 425   0.0000      43.821415      1192.4413 
 426   0.0000      43.920516      1195.1380 
 427   0.0000      43.942528      1195.7370 
 428   0.0000      44.004152      1197.4138 
 429   0.0000      44.036200      1198.2859 
 430   0.0000      44.076997      1199.3961 
 431   0.0000      44.120179      1200.5711 
 432   0.0000      44.134237      1200.9536 
 433   0.0000      44.145707      1201.2658 
 434   0.0000      44.183396      1202.2913 
 435   0.0000     205.059894      5579.9634 
 436   0.0000     205.101062      5581.0836 
 437   0.0000     205.106211      5581.2238 
 438   0.0000     205.131382      5581.9087 
 439   0.0000     205.146795      5582.3281 
 440   0.0000     205.163527      5582.7834 
 441   0.0000     205.183142      5583.3172 
 442   0.0000     205.187016      5583.4225 
 443   0.0000     205.192889      5583.5824 
 444   0.0000     205.204277      5583.8922 

                    ********************************
                    * MULLIKEN POPULATION ANALYSIS *
                    ********************************

--------------------------------------------
MULLIKEN ATOMIC CHARGES AND SPIN POPULATIONS
--------------------------------------------
   0 Au:    0.086890    0.106739
   1 Au:   -0.100201    0.099437
   2 Au:    0.292007    0.052517
   3 Au:   -0.000372    0.084431
   4 Au:    0.350103    0.059912
   5 Au:    0.058953    0.009622
   6 Au:    0.214359    0.089294
   7 Au:   -0.024388    0.033930
   8 Au:    0.188535    0.027092
   9 Au:    0.194211    0.071096
  10 Fe:   -1.260097    3.365929
Sum of atomic charges         :   -0.0000000
Sum of atomic spin populations:    4.0000000

-----------------------------------------------------
MULLIKEN REDUCED ORBITAL CHARGES AND SPIN POPULATIONS
-----------------------------------------------------
CHARGE
  0 Aus       :     3.057578  s :     3.057578
      pz      :     2.055548  p :     6.168295
      px      :     1.989271
      py      :     2.123476
      dz2     :     1.954290  d :     9.682187
      dxz     :     1.951430
      dyz     :     1.966685
      dx2y2   :     1.903441
      dxy     :     1.906341
      f0      :     0.000537  f :     0.005050
      f+1     :     0.000482
      f-1     :     0.000684
      f+2     :     0.000514
      f-2     :     0.000776
      f+3     :     0.001102
      f-3     :     0.000955
  1 Aus       :     3.101641  s :     3.101641
      pz      :     2.021148  p :     6.326564
      px      :     2.153010
[...]
      f+1     :     0.000004
      f-1     :     0.000010
      f+2     :    -0.000009
      f-2     :     0.000016
      f+3     :     0.000005
      f-3     :     0.000009
  8 Aus       :    -0.267887  s :    -0.267887
      pz      :    -0.010505  p :    -0.015170
      px      :     0.005071
      py      :    -0.009736
      dz2     :     0.001452  d :    -0.014071
      dxz     :    -0.003491
      dyz     :    -0.000561
      dx2y2   :     0.002001
      dxy     :    -0.013472
      f0      :    -0.000011  f :     0.000063
      f+1     :     0.000029
      f-1     :    -0.000004
      f+2     :    -0.000012
      f-2     :     0.000002
      f+3     :     0.000063
      f-3     :    -0.000005
  9 Aus       :    -0.045086  s :    -0.045086
      pz      :     0.001493  p :    -0.009669
      px      :    -0.009467
      py      :    -0.001695
      dz2     :     0.002686  d :     0.009303
      dxz     :    -0.012757
      dyz     :     0.008529
      dx2y2   :    -0.003205
      dxy     :     0.014051
      f0      :     0.000010  f :     0.000160
      f+1     :    -0.000003
      f-1     :     0.000020
      f+2     :     0.000013
      f-2     :     0.000070
      f+3     :     0.000038
      f-3     :     0.000012
 10 Fes       :     0.013152  s :     0.013152
      pz      :     0.012319  p :     0.035696
      px      :     0.013973
      py      :     0.009404
      dz2     :     0.809344  d :     2.893119
      dxz     :     0.423843
      dyz     :     0.482507
      dx2y2   :     0.600392
      dxy     :     0.577033
      f0      :     0.000002  f :     0.000023
      f+1     :     0.000003
      f-1     :     0.000002
      f+2     :     0.000004
      f-2     :     0.000005
      f+3     :     0.000007
      f-3     :     0.000002


                     *******************************
                     * LOEWDIN POPULATION ANALYSIS *
                     *******************************

-------------------------------------------
LOEWDIN ATOMIC CHARGES AND SPIN POPULATIONS
-------------------------------------------
   0 Au:    0.018088   -0.085444
   1 Au:    0.001122    0.002922
   2 Au:    0.085328   -0.045610
   3 Au:    0.009508   -0.109820
   4 Au:    0.090814   -0.099214
   5 Au:   -0.023320   -0.078342
   6 Au:    0.113340   -0.106978
   7 Au:   -0.066038   -0.055273
   8 Au:    0.067161   -0.227489
   9 Au:    0.104796   -0.102445
  10 Fe:   -0.400799    2.907693

----------------------------------------------------
LOEWDIN REDUCED ORBITAL CHARGES AND SPIN POPULATIONS
----------------------------------------------------
CHARGE
  0 Aus       :     2.639165  s :     2.639165
      pz      :     2.112336  p :     6.510923
      px      :     2.120689
      py      :     2.277898
      dz2     :     1.979790  d :     9.825359
      dxz     :     1.972076
      dyz     :     1.987256
      dx2y2   :     1.943121
      dxy     :     1.943115
      f0      :     0.000675  f :     0.006465
      f+1     :     0.000649
      f-1     :     0.000817
      f+2     :     0.000698
      f-2     :     0.000971
      f+3     :     0.001539
      f-3     :     0.001116
  1 Aus       :     2.685744  s :     2.685744
      pz      :     2.043950  p :     6.488108
      px      :     2.211438
      py      :     2.232720
      dz2     :     1.988499  d :     9.818171
      dxz     :     1.980965
      dyz     :     1.967404
      dx2y2   :     1.963934
      dxy     :     1.917370
      f0      :     0.000603  f :     0.006855
      f+1     :     0.000641
      f-1     :     0.000919
      f+2     :     0.000531
      f-2     :     0.000798
      f+3     :     0.002081
      f-3     :     0.001283
  2 Aus       :     2.872203  s :     2.872203
      pz      :     2.024354  p :     6.165023
      px      :     2.056808
      py      :     2.083860
      dz2     :     1.986261  d :     9.873563
      dxz     :     1.989047
      dyz     :     1.976495
      dx2y2   :     1.975725
      dxy     :     1.946035
      f0      :     0.000396  f :     0.003884
      f+1     :     0.000230
      f-1     :     0.000558
      f+2     :     0.000373
      f-2     :     0.000630
      f+3     :     0.000957
      f-3     :     0.000740
  3 Aus       :     2.603997  s :     2.603997
      pz      :     2.142374  p :     6.500561
      px      :     2.227370
      py      :     2.130816
      dz2     :     1.967992  d :     9.879895
      dxz     :     1.963141
      dyz     :     1.989515
      dx2y2   :     1.977608
      dxy     :     1.981638
      f0      :     0.000728  f :     0.006039
      f+1     :     0.000930
      f-1     :     0.000916
      f+2     :     0.000663
      f-2     :     0.000824
      f+3     :     0.000728
      f-3     :     0.001248
  4 Aus       :     2.790097  s :     2.790097
      pz      :     2.069181  p :     6.247428
      px      :     2.092821
      py      :     2.085425
      dz2     :     1.989818  d :     9.867514
      dxz     :     1.958355
      dyz     :     1.969873
      dx2y2   :     1.968698
      dxy     :     1.980770
      f0      :     0.000459  f :     0.004147
      f+1     :     0.000529
      f-1     :     0.000292
      f+2     :     0.000843
      f-2     :     0.000664
      f+3     :     0.000738
      f-3     :     0.000621
  5 Aus       :     2.611950  s :     2.611950
      pz      :     2.153624  p :     6.535960
      px      :     2.267801
      py      :     2.114536
      dz2     :     1.977531  d :     9.868673
      dxz     :     1.977424
      dyz     :     1.979270
      dx2y2   :     1.971600
      dxy     :     1.962848
      f0      :     0.000780  f :     0.006737
      f+1     :     0.000865
      f-1     :     0.000785
      f+2     :     0.001311
      f-2     :     0.000619
      f+3     :     0.001392
      f-3     :     0.000983
  6 Aus       :     2.663921  s :     2.663921
      pz      :     2.122639  p :     6.384735
      px      :     2.157235
      py      :     2.104860
      dz2     :     1.948889  d :     9.832661
      dxz     :     1.958735
      dyz     :     1.976268
      dx2y2   :     1.980940
      dxy     :     1.967830
      f0      :     0.000726  f :     0.005343
      f+1     :     0.001035
      f-1     :     0.000783
      f+2     :     0.000716
      f-2     :     0.000653
      f+3     :     0.000635
      f-3     :     0.000793
  7 Aus       :     2.614388  s :     2.614388
      pz      :     2.123980  p :     6.579077
      px      :     2.161487
      py      :     2.293610
      dz2     :     1.975783  d :     9.865343
      dxz     :     1.990032
      dyz     :     1.962818
      dx2y2   :     1.979859
      dxy     :     1.956851
      f0      :     0.000718  f :     0.007230
      f+1     :     0.000463
      f-1     :     0.001067
      f+2     :     0.001101
      f-2     :     0.000904
      f+3     :     0.001896
      f-3     :     0.001083
  8 Aus       :     2.664858  s :     2.664858
      pz      :     2.135489  p :     6.401785
      px      :     2.094625
      py      :     2.171671
      dz2     :     1.969302  d :     9.861164
      dxz     :     1.994507
      dyz     :     1.978188
      dx2y2   :     1.945067
      dxy     :     1.974101
      f0      :     0.000545  f :     0.005032
      f+1     :     0.000705
      f-1     :     0.000575
      f+2     :     0.000596
      f-2     :     0.000720
      f+3     :     0.001047
      f-3     :     0.000844
  9 Aus       :     2.766365  s :     2.766365
      pz      :     2.055204  p :     6.305596
      px      :     2.165347
      py      :     2.085045
      dz2     :     1.982270  d :     9.818476
      dxz     :     1.959732
      dyz     :     1.967186
      dx2y2   :     1.957867
      dxy     :     1.951421
      f0      :     0.000504  f :     0.004767
      f+1     :     0.000610
      f-1     :     0.000418
      f+2     :     0.000827
      f-2     :     0.000771
      f+3     :     0.000901
      f-3     :     0.000734
 10 Fes       :     6.341916  s :     6.341916
      pz      :     4.181606  p :    12.621786
      px      :     4.222994
      py      :     4.217186
      dz2     :     1.266996  d :     7.436566
      dxz     :     1.628154
      dyz     :     1.569113
      dx2y2   :     1.436254
      dxy     :     1.536049
      f0      :     0.000064  f :     0.000531
      f+1     :     0.000092
      f-1     :     0.000062
      f+2     :     0.000056
      f-2     :     0.000071
      f+3     :     0.000128
      f-3     :     0.000058

SPIN
  0 Aus       :    -0.049206  s :    -0.049206
      pz      :    -0.005967  p :    -0.018607
      px      :    -0.009514
      py      :    -0.003126
      dz2     :    -0.001302  d :    -0.017873
      dxz     :    -0.005465
      dyz     :    -0.006383
      dx2y2   :     0.010851
      dxy     :    -0.015574
      f0      :     0.000010  f :     0.000242
      f+1     :     0.000045
      f-1     :    -0.000007
      f+2     :     0.000005
      f-2     :     0.000008
      f+3     :     0.000164
      f-3     :     0.000017
  1 Aus       :    -0.003751  s :    -0.003751
      pz      :     0.002377  p :    -0.014516
      px      :    -0.004909
      py      :    -0.011984
      dz2     :     0.002704  d :     0.021022
      dxz     :    -0.000023
      dyz     :     0.013965
      dx2y2   :     0.001048
      dxy     :     0.003328
      f0      :     0.000041  f :     0.000167
      f+1     :    -0.000007
      f-1     :     0.000009
      f+2     :     0.000037
      f-2     :     0.000075
      f+3     :    -0.000041
      f-3     :     0.000053
  2 Aus       :    -0.036724  s :    -0.036724
      pz      :    -0.001265  p :    -0.003575
      px      :     0.001292
      py      :    -0.003602
      dz2     :    -0.000292  d :    -0.005256
      dxz     :    -0.000151
      dyz     :    -0.001420
      dx2y2   :     0.000570
      dxy     :    -0.003963
      f0      :     0.000001  f :    -0.000055
      f+1     :    -0.000001
      f-1     :    -0.000012
      f+2     :    -0.000009
      f-2     :    -0.000007
      f+3     :    -0.000020
      f-3     :    -0.000005
  3 Aus       :    -0.088308  s :    -0.088308
      pz      :    -0.012047  p :    -0.045115
      px      :    -0.027249
      py      :    -0.005818
      dz2     :     0.013736  d :     0.023555
      dxz     :     0.011584
      dyz     :    -0.004101
      dx2y2   :    -0.001053
      dxy     :     0.003390
      f0      :    -0.000013  f :     0.000047
      f+1     :     0.000093
      f-1     :    -0.000013
      f+2     :    -0.000012
      f-2     :     0.000022
      f+3     :    -0.000016
      f-3     :    -0.000015
  4 Aus       :    -0.045500  s :    -0.045500
      pz      :    -0.016433  p :    -0.033021
      px      :    -0.010359
      py      :    -0.006229
      dz2     :     0.000713  d :    -0.020590
      dxz     :    -0.013570
      dyz     :    -0.002305
      dx2y2   :    -0.002724
      dxy     :    -0.002704
      f0      :    -0.000028  f :    -0.000103
      f+1     :    -0.000002
      f-1     :    -0.000000
      f+2     :    -0.000049
      f-2     :    -0.000005
      f+3     :    -0.000001
      f-3     :    -0.000018
  5 Aus       :    -0.054518  s :    -0.054518
      pz      :    -0.010264  p :    -0.034007
      px      :    -0.022654
      py      :    -0.001089
      dz2     :    -0.007968  d :     0.010145
      dxz     :     0.003477
      dyz     :     0.003203
      dx2y2   :     0.007621
      dxy     :     0.003813
      f0      :     0.000008  f :     0.000038
      f+1     :    -0.000003
      f-1     :    -0.000018
      f+2     :    -0.000032
      f-2     :     0.000018
      f+3     :     0.000065
      f-3     :     0.000000
  6 Aus       :    -0.030272  s :    -0.030272
      pz      :    -0.013518  p :    -0.080841
      px      :    -0.041731
      py      :    -0.025593
      dz2     :     0.006787  d :     0.003821
      dxz     :     0.008088
      dyz     :    -0.002461
      dx2y2   :    -0.003907
      dxy     :    -0.004685
      f0      :     0.000105  f :     0.000314
      f+1     :     0.000200
      f-1     :    -0.000001
      f+2     :     0.000046
      f-2     :     0.000010
      f+3     :    -0.000017
      f-3     :    -0.000029
  7 Aus       :    -0.023098  s :    -0.023098
      pz      :    -0.007513  p :    -0.036972
      px      :    -0.019286
      py      :    -0.010173
      dz2     :     0.001598  d :     0.004769
      dxz     :     0.001205
      dyz     :    -0.002657
      dx2y2   :     0.003943
      dxy     :     0.000679
      f0      :    -0.000006  f :     0.000028
      f+1     :     0.000008
      f-1     :     0.000019
      f+2     :    -0.000019
      f-2     :     0.000014
      f+3     :    -0.000007
      f-3     :     0.000019
  8 Aus       :    -0.142901  s :    -0.142901
      pz      :    -0.018406  p :    -0.071159
      px      :    -0.016636
      py      :    -0.036117
      dz2     :     0.002445  d :    -0.013525
      dxz     :    -0.004501
      dyz     :    -0.000409
      dx2y2   :     0.003937
      dxy     :    -0.014998
      f0      :    -0.000020  f :     0.000096
      f+1     :     0.000051
      f-1     :    -0.000007
      f+2     :    -0.000027
      f-2     :    -0.000004
      f+3     :     0.000104
      f-3     :    -0.000003
  9 Aus       :    -0.027685  s :    -0.027685
      pz      :     0.000780  p :    -0.081212
      px      :    -0.064881
      py      :    -0.017111
      dz2     :     0.002411  d :     0.006196
      dxz     :    -0.014636
      dyz     :     0.008682
      dx2y2   :    -0.004357
      dxy     :     0.014096
      f0      :     0.000028  f :     0.000256
      f+1     :    -0.000008
      f-1     :     0.000033
      f+2     :     0.000024
      f-2     :     0.000119
      f+3     :     0.000056
      f-3     :     0.000005
 10 Fes       :     0.018724  s :     0.018724
      pz      :     0.009812  p :     0.020499
      px      :     0.007372
      py      :     0.003315
      dz2     :     0.791529  d :     2.868453
      dxz     :     0.423322
      dyz     :     0.486575
      dx2y2   :     0.587443
      dxy     :     0.579584
      f0      :     0.000000  f :     0.000016
      f+1     :     0.000002
      f-1     :     0.000001
      f+2     :     0.000003
      f-2     :     0.000003
      f+3     :     0.000006
      f-3     :     0.000000


                      *****************************
                      * MAYER POPULATION ANALYSIS *
                      *****************************

  NA   - Mulliken gross atomic population
  ZA   - Total nuclear charge
  QA   - Mulliken gross atomic charge
  VA   - Mayer's total valence
  BVA  - Mayer's bonded valence
  FA   - Mayer's free valence

  ATOM       NA         ZA         QA         VA         BVA        FA
  0 Au    18.8969    19.0000     0.1031     1.8875     1.8731     0.0145
  1 Au    19.1034    19.0000    -0.1034     2.0245     2.0230     0.0015
  2 Au    18.7022    19.0000     0.2978     1.3463     1.3421     0.0042
  3 Au    18.9696    19.0000     0.0304     1.8179     1.7748     0.0431
  4 Au    18.6433    19.0000     0.3567     1.4118     1.4064     0.0054
  5 Au    18.9680    19.0000     0.0320     1.8846     1.8635     0.0211
  6 Au    18.7978    19.0000     0.2022     1.5972     1.5888     0.0084
  7 Au    19.0270    19.0000    -0.0270     1.8799     1.8700     0.0098
  8 Au    18.7704    19.0000     0.2296     1.5691     1.4959     0.0732
  9 Au    18.7993    19.0000     0.2007     1.5248     1.5185     0.0063
 10 Fe    27.3221    26.0000    -1.3221     6.7991     4.4209     2.3782

  Mayer bond orders larger than 0.100000
B(  0-Au,  1-Au) :   0.5250 B(  0-Au,  3-Au) :   0.1432 B(  0-Au,  4-Au) :   0.2855 
B(  0-Au,  5-Au) :   0.1459 B(  0-Au, 10-Fe) :   0.5541 B(  1-Au,  2-Au) :   0.4539 
B(  1-Au,  7-Au) :   0.2572 B(  1-Au, 10-Fe) :   0.5831 B(  2-Au,  7-Au) :   0.5676 
B(  3-Au,  4-Au) :   0.3623 B(  3-Au,  5-Au) :   0.1871 B(  3-Au,  6-Au) :   0.4160 
B(  3-Au, 10-Fe) :   0.5229 B(  4-Au,  5-Au) :   0.4012 B(  5-Au,  9-Au) :   0.4281 
B(  5-Au, 10-Fe) :   0.5543 B(  6-Au,  7-Au) :   0.1976 B(  6-Au,  8-Au) :   0.1572 
B(  6-Au, 10-Fe) :   0.5717 B(  7-Au,  8-Au) :   0.3256 B(  7-Au, 10-Fe) :   0.3679 
B(  8-Au,  9-Au) :   0.2745 B(  8-Au, 10-Fe) :   0.5128 B(  9-Au, 10-Fe) :   0.5901 


-------
TIMINGS
-------

Total SCF time: 0 days 0 hours 1 min 19 sec 

Total time                  ....      79.615 sec
Sum of individual times     ....      78.357 sec  ( 98.4%)

Fock matrix formation       ....      69.587 sec  ( 87.4%)
  Split-RI-J                ....      21.612 sec  ( 31.1% of F)
  XC integration            ....      47.047 sec  ( 67.6% of F)
    Basis function eval.    ....       7.335 sec  ( 15.6% of XC)
    Density eval.           ....      20.180 sec  ( 42.9% of XC)
    XC-Functional eval.     ....       1.450 sec  (  3.1% of XC)
    XC-Potential eval.      ....      16.477 sec  ( 35.0% of XC)
Diagonalization             ....       5.184 sec  (  6.5%)
Density matrix formation    ....       0.298 sec  (  0.4%)
Population analysis         ....       0.062 sec  (  0.1%)
Initial guess               ....       0.085 sec  (  0.1%)
Orbital Transformation      ....       0.000 sec  (  0.0%)
Orbital Orthonormalization  ....       0.068 sec  (  0.1%)
DIIS solution               ....       2.240 sec  (  2.8%)
Grid generation             ....       0.901 sec  (  1.1%)

Maximum memory used throughout the entire SCF-calculation: 60.6 MB

-------------------------   --------------------
FINAL SINGLE POINT ENERGY     -2621.718140852414
-------------------------   --------------------


                            ***************************************
                            *     ORCA property calculations      *
                            ***************************************

                                    ---------------------
                                    Active property flags
                                    ---------------------
   (+) Dipole Moment


------------------------------------------------------------------------------
                       ORCA ELECTRIC PROPERTIES CALCULATION
------------------------------------------------------------------------------

Dipole Moment Calculation                       ... on
Quadrupole Moment Calculation                   ... off
Polarizability Calculation                      ... off
GBWName                                         ... pbeSP_job2.gbw
Electron density                                ... pbeSP_job2.scfp
The origin for moment calculation is the CENTER OF MASS  = (17.668473, 12.981428 13.489550)

-------------
DIPOLE MOMENT
-------------
                                X             Y             Z
Electronic contribution:    -10.34562      -7.62667     -10.39521
Nuclear contribution   :     10.37419       7.68436      10.22883
                        -----------------------------------------
Total Dipole Moment    :      0.02857       0.05769      -0.16638
                        -----------------------------------------
Magnitude (a.u.)       :      0.17840
Magnitude (Debye)      :      0.45345



--------------------
Rotational spectrum 
--------------------
 
Rotational constants in cm-1:     0.002153     0.001288     0.001054 
Rotational constants in MHz :    64.540103    38.613376    31.598429 

 Dipole components along the rotational axes: 
x,y,z [a.u.] :     0.051701     0.065495    -0.157680 
x,y,z [Debye]:     0.131413     0.166474    -0.400792 

 

Timings for individual modules:

Sum of individual times         ...       83.612 sec (=   1.394 min)
GTO integral calculation        ...        3.866 sec (=   0.064 min)   4.6 %
SCF iterations                  ...       79.746 sec (=   1.329 min)  95.4 %



                             ****ORCA TERMINATED NORMALLY****
TOTAL RUN TIME: 0 days 0 hours 2 minutes 39 seconds 592 msec
