
                                 *****************
                                 * O   R   C   A *
                                 *****************

                                            #,                                       
                                            ###                                      
                                            ####                                     
                                            #####                                    
                                            ######                                   
                                           ########,                                 
                                     ,,################,,,,,                         
                               ,,#################################,,                 
                          ,,##########################################,,             
                       ,#########################################, ''#####,          
                    ,#############################################,,   '####,        
                  ,##################################################,,,,####,       
                ,###########''''           ''''###############################       
              ,#####''   ,,,,##########,,,,          '''####'''          '####       
            ,##' ,,,,###########################,,,                        '##       
           ' ,,###''''                  '''############,,,                           
         ,,##''                                '''############,,,,        ,,,,,,###''
      ,#''                                            '''#######################'''  
     '                                                          ''''####''''         
             ,#######,   #######,   ,#######,      ##                                
            ,#'     '#,  ##    ##  ,#'     '#,    #''#        ######   ,####,        
            ##       ##  ##   ,#'  ##            #'  '#       #        #'  '#        
            ##       ##  #######   ##           ,######,      #####,   #    #        
            '#,     ,#'  ##    ##  '#,     ,#' ,#      #,         ##   #,  ,#        
             '#######'   ##     ##  '#######'  #'      '#     #####' # '####'        



                  #######################################################
                  #                        -***-                        #
                  #          Department of theory and spectroscopy      #
                  #    Directorship and core code : Frank Neese         #
                  #        Max Planck Institute fuer Kohlenforschung    #
                  #                Kaiser Wilhelm Platz 1               #
                  #                 D-45470 Muelheim/Ruhr               #
                  #                      Germany                        #
                  #                                                     #
                  #                  All rights reserved                #
                  #                        -***-                        #
                  #######################################################


                         Program Version 5.0.3 -  RELEASE  -


 With contributions from (in alphabetic order):
   Daniel Aravena         : Magnetic Suceptibility
   Michael Atanasov       : Ab Initio Ligand Field Theory (pilot matlab implementation)
   Alexander A. Auer      : GIAO ZORA, VPT2 properties, NMR spectrum
   Ute Becker             : Parallelization
   Giovanni Bistoni       : ED, misc. LED, open-shell LED, HFLD
   Martin Brehm           : Molecular dynamics
   Dmytro Bykov           : SCF Hessian
   Vijay G. Chilkuri      : MRCI spin determinant printing, contributions to CSF-ICE
   Dipayan Datta          : RHF DLPNO-CCSD density
   Achintya Kumar Dutta   : EOM-CC, STEOM-CC
   Dmitry Ganyushin       : Spin-Orbit,Spin-Spin,Magnetic field MRCI
   Miquel Garcia          : C-PCM and meta-GGA Hessian, CC/C-PCM, Gaussian charge scheme
   Yang Guo               : DLPNO-NEVPT2, F12-NEVPT2, CIM, IAO-localization
   Andreas Hansen         : Spin unrestricted coupled pair/coupled cluster methods
   Benjamin Helmich-Paris : MC-RPA, TRAH-SCF, COSX integrals
   Lee Huntington         : MR-EOM, pCC
   Robert Izsak           : Overlap fitted RIJCOSX, COSX-SCS-MP3, EOM
   Marcus Kettner         : VPT2
   Christian Kollmar      : KDIIS, OOCD, Brueckner-CCSD(T), CCSD density, CASPT2, CASPT2-K
   Simone Kossmann        : Meta GGA functionals, TD-DFT gradient, OOMP2, MP2 Hessian
   Martin Krupicka        : Initial AUTO-CI
   Lucas Lang             : DCDCAS
   Marvin Lechner         : AUTO-CI (C++ implementation), FIC-MRCC
   Dagmar Lenk            : GEPOL surface, SMD
   Dimitrios Liakos       : Extrapolation schemes; Compound Job, initial MDCI parallelization
   Dimitrios Manganas     : Further ROCIS development; embedding schemes
   Dimitrios Pantazis     : SARC Basis sets
   Anastasios Papadopoulos: AUTO-CI, single reference methods and gradients
   Taras Petrenko         : DFT Hessian,TD-DFT gradient, ASA, ECA, R-Raman, ABS, FL, XAS/XES, NRVS
   Peter Pinski           : DLPNO-MP2, DLPNO-MP2 Gradient
   Christoph Reimann      : Effective Core Potentials
   Marius Retegan         : Local ZFS, SOC
   Christoph Riplinger    : Optimizer, TS searches, QM/MM, DLPNO-CCSD(T), (RO)-DLPNO pert. Triples
   Tobias Risthaus        : Range-separated hybrids, TD-DFT gradient, RPA, STAB
   Michael Roemelt        : Original ROCIS implementation
   Masaaki Saitow         : Open-shell DLPNO-CCSD energy and density
   Barbara Sandhoefer     : DKH picture change effects
   Avijit Sen             : IP-ROCIS
   Kantharuban Sivalingam : CASSCF convergence, NEVPT2, FIC-MRCI
   Bernardo de Souza      : ESD, SOC TD-DFT
   Georgi Stoychev        : AutoAux, RI-MP2 NMR, DLPNO-MP2 response
   Willem Van den Heuvel  : Paramagnetic NMR
   Boris Wezisla          : Elementary symmetry handling
   Frank Wennmohs         : Technical directorship


 We gratefully acknowledge several colleagues who have allowed us to
 interface, adapt or use parts of their codes:
   Stefan Grimme, W. Hujo, H. Kruse, P. Pracht,  : VdW corrections, initial TS optimization,
                  C. Bannwarth, S. Ehlert          DFT functionals, gCP, sTDA/sTD-DF
   Ed Valeev, F. Pavosevic, A. Kumar             : LibInt (2-el integral package), F12 methods
   Garnet Chan, S. Sharma, J. Yang, R. Olivares  : DMRG
   Ulf Ekstrom                                   : XCFun DFT Library
   Mihaly Kallay                                 : mrcc  (arbitrary order and MRCC methods)
   Jiri Pittner, Ondrej Demel                    : Mk-CCSD
   Frank Weinhold                                : gennbo (NPA and NBO analysis)
   Christopher J. Cramer and Donald G. Truhlar   : smd solvation model
   Lars Goerigk                                  : TD-DFT with DH, B97 family of functionals
   V. Asgeirsson, H. Jonsson                     : NEB implementation
   FAccTs GmbH                                   : IRC, NEB, NEB-TS, DLPNO-Multilevel, CI-OPT
                                                   MM, QMMM, 2- and 3-layer-ONIOM, Crystal-QMMM,
                                                   LR-CPCM, SF, NACMEs, symmetry and pop. for TD-DFT,
                                                   nearIR, NL-DFT gradient (VV10), updates on ESD,
                                                   ML-optimized integration grids
   S Lehtola, MJT Oliveira, MAL Marques          : LibXC Library
   Liviu Ungur et al                             : ANISO software


 Your calculation uses the libint2 library for the computation of 2-el integrals
 For citations please refer to: http://libint.valeyev.net

 Your ORCA version has been built with support for libXC version: 5.1.0
 For citations please refer to: https://tddft.org/programs/libxc/

 This ORCA versions uses:
   CBLAS   interface :  Fast vector & matrix operations
   LAPACKE interface :  Fast linear algebra routines
   SCALAPACK package :  Parallel linear algebra routines
   Shared memory     :  Shared parallel matrices
   BLAS/LAPACK       :  OpenBLAS 0.3.15  USE64BITINT DYNAMIC_ARCH NO_AFFINITY Haswell SINGLE_THREADED
        Core in use  :  Haswell
   Copyright (c) 2011-2014, The OpenBLAS Project




***************************************
The coordinates will be read from file: pbe.xyz
***************************************


================================================================================

cite the ECPs for Au [Def2-ECP] as follows:
Ce-Yb(ecp-28): M. Dolg, H. Stoll, H.Preuss, J. Chem. Phys., 1989, 90, 1730-1734.
Y-Cd(ecp-28), Hf-Hg(ecp-46): D. Andrae,U. Haeussermann, M. Dolg, H. Stoll, H. Preuss, Theor. Chim. Acta, 1990, 77, 123-141.
In-Sb(ecp-28), Tl-Bi(ecp-46): B. Metz, H. Stoll, M. Dolg, J. Chem. Phys., 2000, 113, 2563-2569.
Te-Xe(ecp-28), Po-Rn(ecp-46): K. A. Peterson, D. Figgen, E. Goll, H. Stoll, M. Dolg, J. Chem. Phys., 2003, 119, 11113-11123.
Rb(ecp-28), Cs(ecp-46): T. Leininger, A. Nicklass, W. Kuechle, H. Stoll, M. Dolg, A. Bergner, Chem. Phys. Lett., 1996, 255, 274-280.
Sr(ecp-28), Ba(ecp-46): M. Kaupp, P. V. Schleyer, H. Stoll and H. Preuss, J. Chem. Phys., 1991, 94, 1360-1366.
La(ecp-46): M. Dolg, H. Stoll, A. Savin, H. Preuss, Theor. Chim. Acta, 1989, 75, 173-194.
Lu(ecp-28): X. Cao, M. Dolg, J. Chem. Phys., 2001, 115, 7348-7355.

ECP parameters for Au [Def2-ECP] have been obtained from:
TURBOMOLE (7.0.2)

----- Orbital basis set information -----
Your calculation utilizes the basis: def2-TZVP
   F. Weigend and R. Ahlrichs, Phys. Chem. Chem. Phys. 7, 3297 (2005).

----- AuxJ basis set information -----
Your calculation utilizes the auxiliary basis: def2/J
   F. Weigend, Phys. Chem. Chem. Phys. 8, 1057 (2006).

----- AuxC basis set information -----
Your calculation utilizes the auxiliary basis: def2-TZVP/C
  H-La, Hf-Rn : A. Hellweg, C. Hattig, S. Hofener and W. Klopper, Theor. Chem. Acc. 117, 587 (2007).
        Ce-Lu : J. Chmela and M. E. Harding, Mol. Phys. (2018).

================================================================================
                                        WARNINGS
                       Please study these warnings very carefully!
================================================================================


WARNING: your system is open-shell and RHF/RKS was chosen
  ===> : WILL SWITCH to UHF/UKS


WARNING: No MP2 level density has been requested!
         To caclulate MP2 level properties use
         %mp2 Density relaxed end
         or
         %mp2 Density unrelaxed end
         Otherwise for double-hybrid DFT only the energy is correct!

WARNING: The frozen-core approximation is turned on by default for 
         the MP2 part of double-hybrid DFT.

INFO   : the flag for use of the SHARK integral package has been found!



***************************************
The coordinates will be read from file: pbe.xyz
***************************************


================================================================================

cite the ECPs for Au [Def2-ECP] as follows:
Ce-Yb(ecp-28): M. Dolg, H. Stoll, H.Preuss, J. Chem. Phys., 1989, 90, 1730-1734.
Y-Cd(ecp-28), Hf-Hg(ecp-46): D. Andrae,U. Haeussermann, M. Dolg, H. Stoll, H. Preuss, Theor. Chim. Acta, 1990, 77, 123-141.
In-Sb(ecp-28), Tl-Bi(ecp-46): B. Metz, H. Stoll, M. Dolg, J. Chem. Phys., 2000, 113, 2563-2569.
Te-Xe(ecp-28), Po-Rn(ecp-46): K. A. Peterson, D. Figgen, E. Goll, H. Stoll, M. Dolg, J. Chem. Phys., 2003, 119, 11113-11123.
Rb(ecp-28), Cs(ecp-46): T. Leininger, A. Nicklass, W. Kuechle, H. Stoll, M. Dolg, A. Bergner, Chem. Phys. Lett., 1996, 255, 274-280.
Sr(ecp-28), Ba(ecp-46): M. Kaupp, P. V. Schleyer, H. Stoll and H. Preuss, J. Chem. Phys., 1991, 94, 1360-1366.
La(ecp-46): M. Dolg, H. Stoll, A. Savin, H. Preuss, Theor. Chim. Acta, 1989, 75, 173-194.
Lu(ecp-28): X. Cao, M. Dolg, J. Chem. Phys., 2001, 115, 7348-7355.

ECP parameters for Au [Def2-ECP] have been obtained from:
TURBOMOLE (7.0.2)

----- Orbital basis set information -----
Your calculation utilizes the basis: def2-TZVP
   F. Weigend and R. Ahlrichs, Phys. Chem. Chem. Phys. 7, 3297 (2005).

----- AuxJ basis set information -----
Your calculation utilizes the auxiliary basis: def2/J
   F. Weigend, Phys. Chem. Chem. Phys. 8, 1057 (2006).

----- AuxC basis set information -----
Your calculation utilizes the auxiliary basis: def2-TZVP/C
  H-La, Hf-Rn : A. Hellweg, C. Hattig, S. Hofener and W. Klopper, Theor. Chem. Acc. 117, 587 (2007).
        Ce-Lu : J. Chmela and M. E. Harding, Mol. Phys. (2018).

================================================================================
                                        WARNINGS
                       Please study these warnings very carefully!
================================================================================


WARNING: No MP2 level density has been requested!
         To caclulate MP2 level properties use
         %mp2 Density relaxed end
         or
         %mp2 Density unrelaxed end
         Otherwise for double-hybrid DFT only the energy is correct!

WARNING: The frozen-core approximation is turned on by default for 
         the MP2 part of double-hybrid DFT.

INFO   : the flag for use of the SHARK integral package has been found!

================================================================================
                                       INPUT FILE
================================================================================
NAME = b2plyp.inp
|  1> !RI-B2PLYP def2-TZVP def2-TZVP/C
|  2> !RIJCOSX VERYSLOWCONV
|  3> 
|  4> %scf
|  5>   AutoTRAHIter 200
|  6>   maxiter 400
|  7> end
|  8> 
|  9> 
| 10> %pal nprocs 6 end 
| 11> 
| 12> *xyzfile 0 5 pbe.xyz
| 13> 
| 14> $new_job
| 15> 
| 16> !RI-B2PLYP def2-TZVP def2-TZVP/C
| 17> !RIJCOSX VERYSLOWCONV
| 18> 
| 19> %scf
| 20>   AutoTRAHIter 200
| 21>   maxiter 400
| 22> end
| 23> 
| 24> 
| 25> %pal nprocs 6 end 
| 26> 
| 27> *xyzfile 0 3 pbe.xyz
| 28> 
| 29> 
| 30> 
| 31> 
| 32> 
| 33>                          ****END OF INPUT****
================================================================================


                 $$$$$$$$$$$$$$$$$$$$$$$$$$$$$$$$$$$$$$$$$$$$$$ 
                 $ THERE ARE  2 JOBS TO BE PROCESSED THIS RUN $
                 $$$$$$$$$$$$$$$$$$$$$$$$$$$$$$$$$$$$$$$$$$$$$$ 




                 $$$$$$$$$$$$$$$$  JOB NUMBER  1 $$$$$$$$$$$$$$


                       ****************************
                       * Single Point Calculation *
                       ****************************

---------------------------------
CARTESIAN COORDINATES (ANGSTROEM)
---------------------------------
  Au     7.601548    6.389867    9.609934
  Au     5.727820    8.487832    9.220021
  Au     9.772119    7.507355    6.931755
  Au     9.624628   10.301767    6.795076
  Au     8.499877    8.976350    8.979840
  Au     9.804725    8.773597    4.427493
  Au     8.113453   11.041506    4.587198
  Au     6.881474   10.079631    7.001247
  Au     8.562744    5.079395    7.339004
  Au     7.270663    8.652696    3.281239
  Au     8.154414    6.529438    4.834599
  Au     5.437340   10.300877    4.646408
  Au     5.412480    7.473066    4.976204
  Au     4.496381    6.506011    7.640148
  Au     4.251838    9.208038    6.913606
  Au     6.108609    4.993887    6.001953
  Fe     7.008060    7.297289    7.234636

----------------------------
CARTESIAN COORDINATES (A.U.)
----------------------------
  NO LB      ZA    FRAG     MASS         X           Y           Z
   0 Au   19.0000*   0   196.966   14.364845   12.075099   18.160143
   1 Au   19.0000*   0   196.966   10.824011   16.039678   17.423315
   2 Au   19.0000*   0   196.966   18.466628   14.186846   13.099119
   3 Au   19.0000*   0   196.966   18.187911   19.467519   12.840832
   4 Au   19.0000*   0   196.966   16.062440   16.962843   16.969439
   5 Au   19.0000*   0   196.966   18.528245   16.579695    8.366748
   6 Au   19.0000*   0   196.966   15.332204   20.865423    8.668549
   7 Au   19.0000*   0   196.966   13.004101   19.047741   13.230440
   8 Au   19.0000*   0   196.966   16.181242    9.598665   13.868708
   9 Au   19.0000*   0   196.966   13.739562   16.351226    6.200644
  10 Au   19.0000*   0   196.966   15.409608   12.338850    9.136068
  11 Au   19.0000*   0   196.966   10.275084   19.465836    8.780439
  12 Au   19.0000*   0   196.966   10.228105   14.122049    9.403663
  13 Au   19.0000*   0   196.966    8.496929   12.294579   14.437787
  14 Au   19.0000*   0   196.966    8.034810   17.400669   13.064822
  15 Au   19.0000*   0   196.966   11.543597    9.437078   11.342048
  16 Fe   26.0000    0    55.850   13.243314   13.789878   13.671480
* core charge reduced due to ECP

--------------------------------
INTERNAL COORDINATES (ANGSTROEM)
--------------------------------
 Au     0   0   0     0.000000000000     0.00000000     0.00000000
 Au     1   0   0     2.839779239995     0.00000000     0.00000000
 Au     1   2   0     3.623919622219    93.77946968     0.00000000
 Au     3   1   2     2.801637555040   108.18531363    32.57249021
 Au     4   3   1     2.791951054408    60.62843164    10.92815765
 Au     3   1   2     2.806378974384   143.66463246   327.98330184
 Au     4   3   1     2.775893612682   109.46686896   254.46496288
 Au     4   3   1     2.759844853987    88.18917432   314.49430311
 Au     3   1   2     2.742887446216    49.70119618   235.95515134
 Au     6   3   1     2.783879086601   109.70939565   340.55519696
 Au    10   6   3     2.775277427012    60.85014123   325.38931317
 Au     8   4   3     2.771234438939   116.61921103   259.51040058
 Au    10   6   3     2.777998856106   112.09150766     3.51788761
 Au     2   1   3     2.817810812075    81.12600936    94.33082538
 Au     8   4   3     2.771703510147   165.00627733   333.61041347
 Au    14   2   1     2.751268502147   117.66517832   316.93462483
 Fe     1   2   3     2.611069203920    57.88461968   323.38551579

---------------------------
INTERNAL COORDINATES (A.U.)
---------------------------
 Au     0   0   0     0.000000000000     0.00000000     0.00000000
 Au     1   0   0     5.366405044385     0.00000000     0.00000000
 Au     1   2   0     6.848215617338    93.77946968     0.00000000
 Au     3   1   2     5.294327705534   108.18531363    32.57249021
 Au     4   3   1     5.276022872143    60.62843164    10.92815765
 Au     3   1   2     5.303287689580   143.66463246   327.98330184
 Au     4   3   1     5.245678704870   109.46686896   254.46496288
 Au     4   3   1     5.215350946148    88.18917432   314.49430311
 Au     3   1   2     5.183306089519    49.70119618   235.95515134
 Au     6   3   1     5.260769063627   109.70939565   340.55519696
 Au    10   6   3     5.244514282706    60.85014123   325.38931317
 Au     8   4   3     5.236874142486   116.61921103   259.51040058
 Au    10   6   3     5.249657038387   112.09150766     3.51788761
 Au     2   1   3     5.324890732024    81.12600936    94.33082538
 Au     8   4   3     5.237760558605   165.00627733   333.61041347
 Au    14   2   1     5.199143989942   117.66517832   316.93462483
 Fe     1   2   3     4.934205712124    57.88461968   323.38551579

---------------------
BASIS SET INFORMATION
---------------------
There are 2 groups of distinct atoms

 Group   1 Type Au  : 8s7p6d1f contracted to 6s4p3d1f pattern {311111/4111/411/1}
 Group   2 Type Fe  : 17s11p7d1f contracted to 6s4p4d1f pattern {842111/6311/4111/1}

Atom   0Au   basis set group =>   1
Atom   1Au   basis set group =>   1
Atom   2Au   basis set group =>   1
Atom   3Au   basis set group =>   1
Atom   4Au   basis set group =>   1
Atom   5Au   basis set group =>   1
Atom   6Au   basis set group =>   1
Atom   7Au   basis set group =>   1
Atom   8Au   basis set group =>   1
Atom   9Au   basis set group =>   1
Atom  10Au   basis set group =>   1
Atom  11Au   basis set group =>   1
Atom  12Au   basis set group =>   1
Atom  13Au   basis set group =>   1
Atom  14Au   basis set group =>   1
Atom  15Au   basis set group =>   1
Atom  16Fe   basis set group =>   2
---------------------------------
AUXILIARY/J BASIS SET INFORMATION
---------------------------------
There are 2 groups of distinct atoms

 Group   1 Type Au  : 11s5p5d3f3g contracted to 8s5p5d2f3g pattern {41111111/11111/11111/21/111}
 Group   2 Type Fe  : 19s5p5d3f3g contracted to 8s5p5d2f3g pattern {121111111/11111/11111/21/111}

Atom   0Au   basis set group =>   1
Atom   1Au   basis set group =>   1
Atom   2Au   basis set group =>   1
Atom   3Au   basis set group =>   1
Atom   4Au   basis set group =>   1
Atom   5Au   basis set group =>   1
Atom   6Au   basis set group =>   1
Atom   7Au   basis set group =>   1
Atom   8Au   basis set group =>   1
Atom   9Au   basis set group =>   1
Atom  10Au   basis set group =>   1
Atom  11Au   basis set group =>   1
Atom  12Au   basis set group =>   1
Atom  13Au   basis set group =>   1
Atom  14Au   basis set group =>   1
Atom  15Au   basis set group =>   1
Atom  16Fe   basis set group =>   2
---------------------------------
AUXILIARY/C BASIS SET INFORMATION
---------------------------------
There are 2 groups of distinct atoms

 Group   1 Type Au  : 8s8p7d5f3g2h contracted to 8s8p7d5f3g2h pattern {11111111/11111111/1111111/11111/111/11}
 Group   2 Type Fe  : 11s9p8d6f5g2h contracted to 9s8p8d6f5g2h pattern {311111111/21111111/11111111/111111/11111/11}

Atom   0Au   basis set group =>   1
Atom   1Au   basis set group =>   1
Atom   2Au   basis set group =>   1
Atom   3Au   basis set group =>   1
Atom   4Au   basis set group =>   1
Atom   5Au   basis set group =>   1
Atom   6Au   basis set group =>   1
Atom   7Au   basis set group =>   1
Atom   8Au   basis set group =>   1
Atom   9Au   basis set group =>   1
Atom  10Au   basis set group =>   1
Atom  11Au   basis set group =>   1
Atom  12Au   basis set group =>   1
Atom  13Au   basis set group =>   1
Atom  14Au   basis set group =>   1
Atom  15Au   basis set group =>   1
Atom  16Fe   basis set group =>   2
-------------------------
ECP PARAMETER INFORMATION
-------------------------

 Group 1, Type Au ECP Def2-ECP (replacing 60 core electrons, lmax=3)

Atom   0Au   ECP group =>   1
Atom   1Au   ECP group =>   1
Atom   2Au   ECP group =>   1
Atom   3Au   ECP group =>   1
Atom   4Au   ECP group =>   1
Atom   5Au   ECP group =>   1
Atom   6Au   ECP group =>   1
Atom   7Au   ECP group =>   1
Atom   8Au   ECP group =>   1
Atom   9Au   ECP group =>   1
Atom  10Au   ECP group =>   1
Atom  11Au   ECP group =>   1
Atom  12Au   ECP group =>   1
Atom  13Au   ECP group =>   1
Atom  14Au   ECP group =>   1
Atom  15Au   ECP group =>   1



           ************************************************************
           *        Program running with 6 parallel MPI-processes     *
           *              working on a common directory               *
           ************************************************************
------------------------------------------------------------------------------
                           ORCA GTO INTEGRAL CALCULATION
                           -- RI-GTO INTEGRALS CHOSEN --
------------------------------------------------------------------------------
------------------------------------------------------------------------------
                   ___                                                        
                  /   \      - P O W E R E D   B Y -                         
                 /     \                                                     
                 |  |  |   _    _      __       _____    __    __             
                 |  |  |  | |  | |    /  \     |  _  \  |  |  /  |          
                  \  \/   | |  | |   /    \    | | | |  |  | /  /          
                 / \  \   | |__| |  /  /\  \   | |_| |  |  |/  /          
                |  |  |   |  __  | /  /__\  \  |    /   |      \           
                |  |  |   | |  | | |   __   |  |    \   |  |\   \          
                \     /   | |  | | |  |  |  |  | |\  \  |  | \   \       
                 \___/    |_|  |_| |__|  |__|  |_| \__\ |__|  \__/        
                                                                              
                      - O R C A' S   B I G   F R I E N D -                    
                                      &                                       
                       - I N T E G R A L  F E E D E R -                       
                                                                              
 v1 FN, 2020, v2 2021                                                         
------------------------------------------------------------------------------


Reading SHARK input file b2plyp.SHARKINP.tmp ... ok
----------------------
SHARK INTEGRAL PACKAGE
----------------------

Number of atoms                             ...     17
Number of basis functions                   ...    685
Number of shells                            ...    239
Maximum angular momentum                    ...      3
Integral batch strategy                     ... SHARK/LIBINT Hybrid
RI-J (if used) integral strategy            ... SPLIT-RIJ (Revised 2003 algorithm where possible)
Printlevel                                  ...      1
Contraction scheme used                     ... SEGMENTED contraction
Coulomb Range Separation                    ... NOT USED
Exchange Range Separation                   ... NOT USED
Finite Nucleus Model                        ... NOT USED
Auxiliary Coulomb fitting basis             ... AVAILABLE
   # of basis functions in Aux-J            ...   1513
   # of shells in Aux-J                     ...    391
   Maximum angular momentum in Aux-J        ...      4
Auxiliary J/K fitting basis                 ... NOT available
Auxiliary Correlation fitting basis         ... AVAILABLE
   # of basis functions in Aux-C            ...   2598
   # of shells in Aux-C                     ...    566
   Maximum angular momentum in Aux-C        ...      5
Auxiliary 'external' fitting basis          ... NOT available
Integral threshold                          ...     1.000000e-10
Primitive cut-off                           ...     1.000000e-11
Primitive pair pre-selection threshold      ...     1.000000e-11

Calculating pre-screening integrals         ... done (  0.1 sec) Dimension = 239
Organizing shell pair data                  ... done (  0.3 sec)
Shell pair information
Total number of shell pairs                 ...     28680
Shell pairs after pre-screening             ...     22217
Total number of primitive shell pairs       ...     75765
Primitive shell pairs kept                  ...     42029
          la=0 lb=0:   3517 shell pairs
          la=1 lb=0:   5063 shell pairs
          la=1 lb=1:   1909 shell pairs
          la=2 lb=0:   4409 shell pairs
          la=2 lb=1:   3128 shell pairs
          la=2 lb=2:   1288 shell pairs
          la=3 lb=0:   1137 shell pairs
          la=3 lb=1:    874 shell pairs
          la=3 lb=2:    776 shell pairs
          la=3 lb=3:    116 shell pairs

Calculating one electron integrals          ... done (  0.0 sec)
Calculating ECP integrals                   ... done ( 11.4 sec)
Calculating RI/J V-Matrix + Cholesky decomp.... done (  0.1 sec)
Calculating RI/C V-Matrix + Cholesky decomp.... done (  0.3 sec)
Calculating Nuclear repulsion               ... done (  0.0 sec) ENN=   7069.488583770011 Eh

SHARK setup successfully completed in  12.6 seconds

Maximum memory used throughout the entire GTOINT-calculation: 60.8 MB


           ************************************************************
           *        Program running with 6 parallel MPI-processes     *
           *              working on a common directory               *
           ************************************************************
-------------------------------------------------------------------------------
                                 ORCA SCF
-------------------------------------------------------------------------------

------------
SCF SETTINGS
------------
Hamiltonian:
 Density Functional     Method          .... DFT(GTOs)
 Exchange Functional    Exchange        .... B88
   X-Alpha parameter    XAlpha          ....  0.666667
   Becke's b parameter  XBeta           ....  0.004200
 Correlation Functional Correlation     .... LYP
 LDA part of GGA corr.  LDAOpt          .... VWN-3
 Gradients option       PostSCFGGA      .... off
 Hybrid DFT is turned on
   Fraction HF Exchange ScalHFX         ....  0.530000
   Scaling of DF-GGA-X  ScalDFX         ....  0.470000
   Scaling of DF-GGA-C  ScalDFC         ....  0.730000
   Scaling of DF-LDA-C  ScalLDAC        ....  0.730000
   Perturbative correction              ....  0.270000
   Density functional embedding theory  .... OFF
   NL short-range parameter             ....  7.800000
 RI-approximation to the Coulomb term is turned on
   Number of AuxJ basis functions       .... 1513
   RIJ-COSX (HFX calculated with COS-X)).... on


General Settings:
 Integral files         IntName         .... b2plyp
 Hartree-Fock type      HFTyp           .... UHF
 Total Charge           Charge          ....    0
 Multiplicity           Mult            ....    5
 Number of Electrons    NEL             ....  330
 Basis Dimension        Dim             ....  685
 Nuclear Repulsion      ENuc            ....   7069.4885837700 Eh

Convergence Acceleration:
 DIIS                   CNVDIIS         .... on
   Start iteration      DIISMaxIt       ....     0
   Startup error        DIISStart       ....  0.200000
   # of expansion vecs  DIISMaxEq       ....     5
   Bias factor          DIISBfac        ....   1.050
   Max. coefficient     DIISMaxC        ....  10.000
 Trust-Rad. Augm. Hess. CNVTRAH         .... auto
   Auto Start mean grad. ratio tolernc. ....  1.125000
   Auto Start start iteration           ....   200
   Auto Start num. interpolation iter.  ....    10
   Max. Number of Micro iterations      ....    16
   Max. Number of Macro iterations      .... Maxiter - #DIIS iter
   Number of Davidson start vectors     ....     2
   Converg. threshold I  (grad. norm)   ....   5.000e-05
   Converg. threshold II (energy diff.) ....   1.000e-06
   Grad. Scal. Fac. for Micro threshold ....   0.100
   Minimum threshold for Micro iter.    ....   0.010
   NR start threshold (gradient norm)   ....   0.001
   Initial trust radius                 ....   0.400
   Minimum AH scaling param. (alpha)    ....   1.000
   Maximum AH scaling param. (alpha)    .... 1000.000
   Orbital update algorithm             .... Taylor
   White noise on init. David. guess    .... on
   Maximum white noise                  ....   0.010
   Quad. conv. algorithm                .... NR
 SOSCF                  CNVSOSCF        .... off
 Level Shifting         CNVShift        .... on
   Level shift para.    LevelShift      ....    0.2500
   Turn off err/grad.   ShiftErr        ....    0.0000
 Zerner damping         CNVZerner       .... off
 Static damping         CNVDamp         .... on
   Fraction old density DampFac         ....    0.9200
   Max. Damping (<1)    DampMax         ....    0.9800
   Min. Damping (>=0)   DampMin         ....    0.0000
   Turn off err/grad.   DampErr         ....    0.0030
 Fernandez-Rico         CNVRico         .... off

SCF Procedure:
 Maximum # iterations   MaxIter         ....   400
 SCF integral mode      SCFMode         .... Direct
   Integral package                     .... SHARK and LIBINT hybrid scheme
 Reset frequency        DirectResetFreq ....    20
 Integral Threshold     Thresh          ....  1.000e-10 Eh
 Primitive CutOff       TCut            ....  1.000e-11 Eh

Convergence Tolerance:
 Convergence Check Mode ConvCheckMode   .... Total+1el-Energy
 Convergence forced     ConvForced      .... 0
 Energy Change          TolE            ....  1.000e-06 Eh
 1-El. energy change                    ....  1.000e-03 Eh
 DIIS Error             TolErr          ....  1.000e-06


Diagonalization of the overlap matrix:
Smallest eigenvalue                        ... 3.206e-04
Time for diagonalization                   ...    0.066 sec
Threshold for overlap eigenvalues          ... 1.000e-08
Number of eigenvalues below threshold      ... 0
Time for construction of square roots      ...    0.041 sec
Total time needed                          ...    0.108 sec

Time for model grid setup =    0.466 sec

------------------------------
INITIAL GUESS: MODEL POTENTIAL
------------------------------
Loading Hartree-Fock densities                     ... done
  calling /media/Programs/ORCA501/orca b2plyp_atom79.inp > b2plyp_atom79.out in order to generate an atomic fitting density for atom 0 (Au with ECP) on-the-fly... 
    atom 0 (Au), assumed electronic state with S=2: 1s2 2s2 2p6 3s2 3p6 4s2 3d10 4p6 5s2 4d10 5p6 6s1 4f14 5d10           ... done
Calculating cut-offs                               ... done
Initializing the effective Hamiltonian             ... done
Setting up the integral package (SHARK)            ... done
Starting the Coulomb interaction                   ... done (   0.5 sec)
Reading the grid                                   ... done
Mapping shells                                     ... done
Starting the XC term evaluation                    ... done (   0.5 sec)
  promolecular density results
     # of electrons  =   1290.015371697
     EX              =  -5932.393843419
     EC              =    -26.246118582
     EX+EC           =  -5958.639962001
Transforming the Hamiltonian                       ... done (   0.0 sec)
Diagonalizing the Hamiltonian                      ... done (   0.1 sec)
Back transforming the eigenvectors                 ... done (   0.0 sec)
Now organizing SCF variables                       ... done
                      ------------------
                      INITIAL GUESS DONE (   2.1 sec)
                      ------------------
-------------------
DFT GRID GENERATION
-------------------

General Integration Accuracy     IntAcc      ... 4.388
Radial Grid Type                 RadialGrid  ... OptM3 with GC (2021)
Angular Grid (max. ang.)         AngularGrid ... 4 (Lebedev-302)
Angular grid pruning method      GridPruning ... 4 (adaptive)
Weight generation scheme         WeightScheme... Becke
Basis function cutoff            BFCut       ... 1.0000e-10
Integration weight cutoff        WCut        ... 1.0000e-14
Angular grids for H and He will be reduced by one unit
Partially contracted basis set               ... off
Rotationally invariant grid construction     ... off

Total number of grid points                  ...   186876
Total number of batches                      ...     2927
Average number of points per batch           ...       63
Average number of grid points per atom       ...    10993
Time for grid setup =    1.473 sec

--------------------
COSX GRID GENERATION
--------------------

GRIDX 1
-------
General Integration Accuracy     IntAcc      ... 3.816
Radial Grid Type                 RadialGrid  ... OptM3 with GC (2021)
Angular Grid (max. ang.)         AngularGrid ... 1 (Lebedev-50)
Angular grid pruning method      GridPruning ... 4 (adaptive)
Weight generation scheme         WeightScheme... Becke
Basis function cutoff            BFCut       ... 1.0000e-10
Integration weight cutoff        WCut        ... 1.0000e-14
Angular grids for H and He will be reduced by one unit
Partially contracted basis set               ... on
Rotationally invariant grid construction     ... off

Total number of grid points                  ...    19508
Total number of batches                      ...      314
Average number of points per batch           ...       62
Average number of grid points per atom       ...     1148
UseSFitting                                  ... on

GRIDX 2
-------
General Integration Accuracy     IntAcc      ... 4.020
Radial Grid Type                 RadialGrid  ... OptM3 with GC (2021)
Angular Grid (max. ang.)         AngularGrid ... 2 (Lebedev-110)
Angular grid pruning method      GridPruning ... 4 (adaptive)
Weight generation scheme         WeightScheme... Becke
Basis function cutoff            BFCut       ... 1.0000e-10
Integration weight cutoff        WCut        ... 1.0000e-14
Angular grids for H and He will be reduced by one unit
Partially contracted basis set               ... on
Rotationally invariant grid construction     ... off

Total number of grid points                  ...    59179
Total number of batches                      ...      934
Average number of points per batch           ...       63
Average number of grid points per atom       ...     3481
UseSFitting                                  ... on

GRIDX 3
-------
General Integration Accuracy     IntAcc      ... 4.338
Radial Grid Type                 RadialGrid  ... OptM3 with GC (2021)
Angular Grid (max. ang.)         AngularGrid ... 3 (Lebedev-194)
Angular grid pruning method      GridPruning ... 4 (adaptive)
Weight generation scheme         WeightScheme... Becke
Basis function cutoff            BFCut       ... 1.0000e-10
Integration weight cutoff        WCut        ... 1.0000e-14
Angular grids for H and He will be reduced by one unit
Partially contracted basis set               ... on
Rotationally invariant grid construction     ... off

Total number of grid points                  ...   107275
Total number of batches                      ...     1685
Average number of points per batch           ...       63
Average number of grid points per atom       ...     6310
UseSFitting                                  ... on

Time for X-Grid setup             =    1.567 sec

--------------
SCF ITERATIONS
--------------
ITER       Energy         Delta-E        Max-DP      RMS-DP      [F,P]     Damp
               ***  Starting incremental Fock matrix formation  ***
  0  -3426.1316029542   0.000000000000 0.10234324  0.00060084  0.5757246 0.9200
  1  -3427.4148725487  -1.283269594499 0.08393654  0.00052751  0.3807743 0.9200
                               ***Turning on DIIS***
  2  -3428.1312115225  -0.716338973788 0.05966613  0.00042958  0.2340175 0.9200
  3  -3428.4596795620  -0.328468039527 0.03932255  0.00034656  0.2153808 0.9200
  4  -3428.5740779211  -0.114398359034 0.02568738  0.00025005  0.1980705 0.9200
  5  -3428.6751228846  -0.101044963591 0.02426391  0.00023282  0.1819669 0.9200
  6  -3428.7650340593  -0.089911174663 0.02192840  0.00021208  0.1672588 0.9200
  7  -3428.8245815781  -0.059547518805 0.01926931  0.00019087  0.1540262 0.9200
  8  -3428.8969469845  -0.072365406381 0.01684009  0.00020495  0.1418916 0.9200
  9  -3429.0012555278  -0.104308543341 0.01622401  0.00018225  0.1306458 0.9200
 10  -3429.0800502123  -0.078794684415 0.01541202  0.00015793  0.1202525 0.9200
 11  -3429.1533305918  -0.073280379540 0.01452455  0.00014964  0.1106047 0.9200
 12  -3429.2162417994  -0.062911207593 0.01359823  0.00013950  0.1016987 0.9200
 13  -3429.2775233371  -0.061281537727 0.01206195  0.00013211  0.0935632 0.9200
 14  -3429.3442973858  -0.066774048641 0.01112840  0.00012915  0.0861076 0.9200
 15  -3429.4067549499  -0.062457564191 0.01056569  0.00011958  0.0792726 0.9200
 16  -3429.4642824071  -0.057527457198 0.01064474  0.00011095  0.0729588 0.9200
 17  -3429.5180402721  -0.053757864919 0.01057262  0.00010527  0.0671124 0.9200
 18  -3429.5686580656  -0.050617793541 0.01016578  0.00009987  0.0617259 0.9200
 19  -3429.6178323806  -0.049174314963 0.00904635  0.00009498  0.0567880 0.9200
               *** Restarting incremental Fock matrix formation ***
                                   *** Resetting DIIS ***
 20  -3429.6664217952  -0.048589414600 0.00845685  0.00008504  0.0522622 0.9200
 21  -3429.7115400627  -0.045118267552 0.00788274  0.00007807  0.0480897 0.9200
 22  -3429.7539523387  -0.042412276004 0.00739145  0.00007334  0.0442479 0.9200
 23  -3429.7937230494  -0.039770710643 0.00760915  0.00007031  0.0407168 0.9200
 24  -3429.8310069303  -0.037283880918 0.00782147  0.00006790  0.0374717 0.9200
 25  -3429.8660728325  -0.035065902240 0.00692029  0.00006506  0.0344845 0.9200
 26  -3429.8991700197  -0.033097187204 0.00627058  0.00006231  0.0317297 0.9200
 27  -3429.9302610982  -0.031091078492 0.00593217  0.00005948  0.0291892 0.9200
 28  -3429.9594156957  -0.029154597456 0.00573630  0.00005653  0.0268507 0.9200
 29  -3429.9867678071  -0.027352111450 0.00554463  0.00005354  0.0247017 0.9200
 30  -3430.0124506224  -0.025682815276 0.00522790  0.00005065  0.0227272 0.9200
 31  -3430.0365574151  -0.024106792709 0.00483573  0.00004789  0.0209111 0.9200
 32  -3430.0591489554  -0.022591540257 0.00446293  0.00004527  0.0192387 0.9200
 33  -3430.0802928995  -0.021143944086 0.00417115  0.00004274  0.0176987 0.9200
 34  -3430.1000685665  -0.019775667082 0.00394399  0.00004030  0.0162817 0.9200
 35  -3430.1185552571  -0.018486690521 0.00372101  0.00003795  0.0149788 0.9200
 36  -3430.1358244434  -0.017269186304 0.00347747  0.00003573  0.0137806 0.9200
 37  -3430.1519406443  -0.016116200984 0.00336779  0.00003362  0.0126783 0.9200
 38  -3430.1669669482  -0.015026303811 0.00325043  0.00003163  0.0116637 0.9200
 39  -3430.1809666494  -0.013999701262 0.00311673  0.00002988  0.0107301 0.9200
               *** Restarting incremental Fock matrix formation ***
                                   *** Resetting DIIS ***
 40  -3430.1939987466  -0.013032097219 0.00255092  0.00002414  0.0098712 0.9200
 41  -3430.2062529884  -0.012254241767 0.00217254  0.00002129  0.0090822 0.9200
 42  -3430.2176264606  -0.011373472181 0.00196008  0.00002004  0.0088826 0.9200
 43  -3430.2281606788  -0.010534218210 0.00206156  0.00001969  0.0086736 0.9200
 44  -3430.2379061035  -0.009745424708 0.00216047  0.00001961  0.0081317 0.9200
 45  -3430.2469202573  -0.009014153820 0.00203844  0.00001905  0.0075452 0.9200
 46  -3430.2552714059  -0.008351148579 0.00206427  0.00001844  0.0072009 0.9200
 47  -3430.2630043767  -0.007732970820 0.00204596  0.00001780  0.0069245 0.9200
 48  -3430.2701620336  -0.007157656867 0.00200445  0.00001710  0.0065777 0.9200
 49  -3430.2767875228  -0.006625489186 0.00195862  0.00001633  0.0061713 0.9200
 50  -3430.2829216536  -0.006134130833 0.00191038  0.00001554  0.0057736 0.9200
 51  -3430.2886010924  -0.005679438790 0.00185152  0.00001476  0.0054291 0.9200
 52  -3430.2938581491  -0.005257056708 0.00178090  0.00001400  0.0051209 0.9200
 53  -3430.2987226844  -0.004864535253 0.00170538  0.00001326  0.0048200 0.9200
 54  -3430.3032229978  -0.004500313401 0.00162880  0.00001254  0.0045210 0.9200
 55  -3430.3073856885  -0.004162690696 0.00155244  0.00001184  0.0042350 0.9200
 56  -3430.3112353409  -0.003849652408 0.00147513  0.00001117  0.0039707 0.9200
 57  -3430.3147946040  -0.003559263117 0.00139837  0.00001053  0.0037258 0.9200
 58  -3430.3180844882  -0.003289884215 0.00132426  0.00000993  0.0034941 0.9200
 59  -3430.3211247238  -0.003040235567 0.00130761  0.00000973  0.0032731 0.9200
               *** Restarting incremental Fock matrix formation ***
                                   *** Resetting DIIS ***
 60  -3430.3239249794  -0.002800255639 0.00101288  0.00000737  0.0030642 0.9200
 61  -3430.3265316621  -0.002606682746 0.00084501  0.00000630  0.0030755 0.9200
 62  -3430.3289378894  -0.002406227240 0.00077020  0.00000593  0.0030460 0.9200
 63  -3430.3311568172  -0.002218927795 0.00953166  0.00007456  0.0029171 0.0000
 64  -3430.3571220638  -0.025965246659 0.00247562  0.00001624  0.0008981 0.0000
               *** Restarting incremental Fock matrix formation ***
                                   *** Resetting DIIS ***
 65  -3430.3556294124   0.001492651419 0.00554218  0.00010190  0.0006807 0.0000
 66  -3430.3558367458  -0.000207333409 0.00222395  0.00003332  0.0003947 0.0000
 67  -3430.3558749854  -0.000038239593 0.00125846  0.00001561  0.0005729 0.0000
 68  -3430.3558961873  -0.000021201884 0.00101572  0.00000843  0.0002574 0.0000
 69  -3430.3559062464  -0.000010059106 0.00098626  0.00000554  0.0002521 0.0000
 70  -3430.3559126683  -0.000006421908 0.00080204  0.00000480  0.0002506 0.0000
 71  -3430.3559176984  -0.000005030040 0.00065986  0.00000413  0.0002470 0.0000
 72  -3430.3559215543  -0.000003855940 0.00056325  0.00000379  0.0002432 0.0000
 73  -3430.3559253593  -0.000003805004 0.00048921  0.00000307  0.0002454 0.0000
 74  -3430.3559283746  -0.000003015266 0.00048221  0.00000261  0.0002419 0.0000
 75  -3430.3559311850  -0.000002810385 0.00049953  0.00000238  0.0002437 0.0000
 76  -3430.3559339730  -0.000002788018 0.00051850  0.00000221  0.0002426 0.0000
 77  -3430.3559366546  -0.000002681666 0.00046246  0.00000188  0.0002437 0.0000
 78  -3430.3559391511  -0.000002496483 0.00046814  0.00000176  0.0002429 0.0000
 79  -3430.3559413918  -0.000002240665 0.00030521  0.00000120  0.0002436 0.0000
 80  -3430.3559431712  -0.000001779375 0.00021449  0.00000087  0.0002458 0.0000
 81  -3430.3559443259  -0.000001154724 0.00004274  0.00000034  0.0002548 0.0000
                 **** Energy Check signals convergence ****

               *****************************************************
               *                     SUCCESS                       *
               *           SCF CONVERGED AFTER  82 CYCLES          *
               *****************************************************

Old exchange energy                            =   -130.009979042 Eh
New exchange energy                            =   -130.009641142 Eh
Exchange energy change after final integration =      0.000337900 Eh
Total energy after final integration           =  -3430.355606583 Eh
Final COS-X integration done in                =    28.561 sec

----------------
TOTAL SCF ENERGY
----------------

Total Energy       :        -3430.35560658 Eh          -93344.72161 eV

Components:
Nuclear Repulsion  :         7069.48858377 Eh          192370.56429 eV
Electronic Energy  :       -10499.84419035 Eh         -285715.28590 eV
One Electron Energy:       -19695.72080715 Eh         -535947.81022 eV
Two Electron Energy:         9195.87661680 Eh          250232.52432 eV
Max COSX asymmetry :            0.00000730 Eh               0.00020 eV

Virial components:
Potential Energy   :        -5427.82553472 Eh         -147698.64165 eV
Kinetic Energy     :         1997.46992814 Eh           54353.92004 eV
Virial Ratio       :            2.71735031


DFT components:
N(Alpha)           :      166.999963647743 electrons
N(Beta)            :      162.999967499366 electrons
N(Total)           :      329.999931147110 electrons
E(X)               :     -117.164828804486 Eh       
E(C)               :       -9.097487415185 Eh       
E(XC)              :     -126.262316219671 Eh       
DFET-embed. en.    :        0.000000000000 Eh       

---------------
SCF CONVERGENCE
---------------

  Last Energy change         ...   -1.5706e-07  Tolerance :   1.0000e-06
  Last MAX-Density change    ...    0.0000e+00  Tolerance :   1.0000e-05
  Last RMS-Density change    ...    0.0000e+00  Tolerance :   1.0000e-06
  Last DIIS Error            ...    2.6799e-04  Tolerance :   1.0000e-06

             **** THE GBW FILE WAS UPDATED (b2plyp.gbw) ****
             **** DENSITY b2plyp.scfp WAS UPDATED ****
             **** ENERGY FILE WAS UPDATED (b2plyp.en.tmp) ****
----------------------
UHF SPIN CONTAMINATION
----------------------

Warning: in a DFT calculation there is little theoretical justification to 
         calculate <S**2> as in Hartree-Fock theory. We will do it anyways
         but you should keep in mind that the values have only limited relevance

Expectation value of <S**2>     :     6.037507
Ideal value S*(S+1) for S=2.0   :     6.000000
Deviation                       :     0.037507

             **** THE GBW FILE WAS UPDATED (b2plyp.gbw) ****
             **** DENSITY b2plyp.scfp WAS UPDATED ****
----------------
ORBITAL ENERGIES
----------------
                 SPIN UP ORBITALS
  NO   OCC          E(Eh)            E(eV) 
   0   1.0000    -258.350866     -7030.0845 
   1   1.0000     -30.911287      -841.1389 
   2   1.0000     -26.627630      -724.5746 
   3   1.0000     -26.606739      -724.0062 
   4   1.0000     -26.593910      -723.6571 
   5   1.0000      -4.407731      -119.9405 
   6   1.0000      -4.406729      -119.9132 
   7   1.0000      -4.406183      -119.8983 
   8   1.0000      -4.404049      -119.8403 
   9   1.0000      -4.402754      -119.8050 
  10   1.0000      -4.402731      -119.8044 
  11   1.0000      -4.400977      -119.7567 
  12   1.0000      -4.400677      -119.7485 
  13   1.0000      -4.399291      -119.7108 
  14   1.0000      -4.397855      -119.6717 
  15   1.0000      -4.394662      -119.5848 
  16   1.0000      -4.394392      -119.5775 
  17   1.0000      -4.393890      -119.5638 
  18   1.0000      -4.391293      -119.4931 
  19   1.0000      -4.388957      -119.4296 
  20   1.0000      -4.387876      -119.4002 
  21   1.0000      -3.925442      -106.8167 
  22   1.0000      -2.672308       -72.7172 
  23   1.0000      -2.628494       -71.5250 
  24   1.0000      -2.601846       -70.7998 
  25   1.0000      -2.528128       -68.7938 
  26   1.0000      -2.526895       -68.7603 
  27   1.0000      -2.526109       -68.7389 
  28   1.0000      -2.525286       -68.7165 
  29   1.0000      -2.525053       -68.7102 
  30   1.0000      -2.524917       -68.7065 
  31   1.0000      -2.523259       -68.6614 
  32   1.0000      -2.523032       -68.6552 
  33   1.0000      -2.522318       -68.6358 
  34   1.0000      -2.522087       -68.6295 
  35   1.0000      -2.521623       -68.6169 
  36   1.0000      -2.521346       -68.6093 
  37   1.0000      -2.520814       -68.5948 
  38   1.0000      -2.520579       -68.5884 
  39   1.0000      -2.520388       -68.5833 
  40   1.0000      -2.520229       -68.5789 
  41   1.0000      -2.519442       -68.5575 
  42   1.0000      -2.519164       -68.5499 
  43   1.0000      -2.519018       -68.5460 
  44   1.0000      -2.518371       -68.5284 
  45   1.0000      -2.517750       -68.5115 
  46   1.0000      -2.517033       -68.4919 
  47   1.0000      -2.516748       -68.4842 
  48   1.0000      -2.516570       -68.4793 
  49   1.0000      -2.515434       -68.4484 
  50   1.0000      -2.515174       -68.4414 
  51   1.0000      -2.514878       -68.4333 
  52   1.0000      -2.514631       -68.4266 
  53   1.0000      -2.513913       -68.4070 
  54   1.0000      -2.513413       -68.3934 
  55   1.0000      -2.513054       -68.3837 
  56   1.0000      -2.512076       -68.3571 
  57   1.0000      -2.511830       -68.3504 
  58   1.0000      -2.511690       -68.3466 
  59   1.0000      -2.510992       -68.3276 
  60   1.0000      -2.510816       -68.3228 
  61   1.0000      -2.510398       -68.3114 
  62   1.0000      -2.510272       -68.3080 
  63   1.0000      -2.510034       -68.3015 
  64   1.0000      -2.509502       -68.2870 
  65   1.0000      -2.508964       -68.2724 
  66   1.0000      -2.507351       -68.2285 
  67   1.0000      -2.506794       -68.2133 
  68   1.0000      -2.505946       -68.1903 
  69   1.0000      -2.505321       -68.1732 
  70   1.0000      -2.504407       -68.1484 
  71   1.0000      -2.503994       -68.1371 
  72   1.0000      -2.502807       -68.1048 
  73   1.0000      -0.574994       -15.6464 
  74   1.0000      -0.572237       -15.5714 
  75   1.0000      -0.562446       -15.3049 
  76   1.0000      -0.543455       -14.7882 
  77   1.0000      -0.517292       -14.0762 
  78   1.0000      -0.509664       -13.8687 
  79   1.0000      -0.478973       -13.0335 
  80   1.0000      -0.475684       -12.9440 
  81   1.0000      -0.471967       -12.8429 
  82   1.0000      -0.466801       -12.7023 
  83   1.0000      -0.466229       -12.6867 
  84   1.0000      -0.465524       -12.6676 
  85   1.0000      -0.463977       -12.6254 
  86   1.0000      -0.461335       -12.5536 
  87   1.0000      -0.460687       -12.5359 
  88   1.0000      -0.458152       -12.4670 
  89   1.0000      -0.456548       -12.4233 
  90   1.0000      -0.454540       -12.3687 
  91   1.0000      -0.452760       -12.3202 
  92   1.0000      -0.450646       -12.2627 
  93   1.0000      -0.449120       -12.2212 
  94   1.0000      -0.447415       -12.1748 
  95   1.0000      -0.445795       -12.1307 
  96   1.0000      -0.443908       -12.0794 
  97   1.0000      -0.443219       -12.0606 
  98   1.0000      -0.442026       -12.0281 
  99   1.0000      -0.441051       -12.0016 
 100   1.0000      -0.438283       -11.9263 
 101   1.0000      -0.435511       -11.8509 
 102   1.0000      -0.434396       -11.8205 
 103   1.0000      -0.432246       -11.7620 
 104   1.0000      -0.430537       -11.7155 
 105   1.0000      -0.428564       -11.6618 
 106   1.0000      -0.426149       -11.5961 
 107   1.0000      -0.423089       -11.5128 
 108   1.0000      -0.421871       -11.4797 
 109   1.0000      -0.418961       -11.4005 
 110   1.0000      -0.412918       -11.2361 
 111   1.0000      -0.412421       -11.2225 
 112   1.0000      -0.410327       -11.1656 
 113   1.0000      -0.409251       -11.1363 
 114   1.0000      -0.404844       -11.0164 
 115   1.0000      -0.403441       -10.9782 
 116   1.0000      -0.398998       -10.8573 
 117   1.0000      -0.398792       -10.8517 
 118   1.0000      -0.397179       -10.8078 
 119   1.0000      -0.393655       -10.7119 
 120   1.0000      -0.392156       -10.6711 
 121   1.0000      -0.388610       -10.5746 
 122   1.0000      -0.387058       -10.5324 
 123   1.0000      -0.384910       -10.4739 
 124   1.0000      -0.383761       -10.4427 
 125   1.0000      -0.380836       -10.3631 
 126   1.0000      -0.377700       -10.2777 
 127   1.0000      -0.377237       -10.2651 
 128   1.0000      -0.375295       -10.2123 
 129   1.0000      -0.372543       -10.1374 
 130   1.0000      -0.371208       -10.1011 
 131   1.0000      -0.370029       -10.0690 
 132   1.0000      -0.368409       -10.0249 
 133   1.0000      -0.368207       -10.0194 
 134   1.0000      -0.366653        -9.9771 
 135   1.0000      -0.365726        -9.9519 
 136   1.0000      -0.364025        -9.9056 
 137   1.0000      -0.362472        -9.8634 
 138   1.0000      -0.360514        -9.8101 
 139   1.0000      -0.358801        -9.7635 
 140   1.0000      -0.357155        -9.7187 
 141   1.0000      -0.355874        -9.6838 
 142   1.0000      -0.353899        -9.6301 
 143   1.0000      -0.353261        -9.6127 
 144   1.0000      -0.352766        -9.5993 
 145   1.0000      -0.349299        -9.5049 
 146   1.0000      -0.348305        -9.4779 
 147   1.0000      -0.347118        -9.4456 
 148   1.0000      -0.344422        -9.3722 
 149   1.0000      -0.342842        -9.3292 
 150   1.0000      -0.341563        -9.2944 
 151   1.0000      -0.339148        -9.2287 
 152   1.0000      -0.338151        -9.2016 
 153   1.0000      -0.337210        -9.1759 
 154   1.0000      -0.335670        -9.1340 
 155   1.0000      -0.329807        -8.9745 
 156   1.0000      -0.328225        -8.9315 
 157   1.0000      -0.327102        -8.9009 
 158   1.0000      -0.325699        -8.8627 
 159   1.0000      -0.320009        -8.7079 
 160   1.0000      -0.319550        -8.6954 
 161   1.0000      -0.317038        -8.6270 
 162   1.0000      -0.252560        -6.8725 
 163   1.0000      -0.240475        -6.5437 
 164   1.0000      -0.234985        -6.3943 
 165   1.0000      -0.226570        -6.1653 
 166   1.0000      -0.206728        -5.6253 
 167   0.0000      -0.094610        -2.5745 
 168   0.0000      -0.091224        -2.4823 
 169   0.0000      -0.080651        -2.1946 
 170   0.0000      -0.075539        -2.0555 
 171   0.0000      -0.067119        -1.8264 
 172   0.0000      -0.061917        -1.6849 
 173   0.0000      -0.044106        -1.2002 
 174   0.0000      -0.035073        -0.9544 
 175   0.0000      -0.022445        -0.6108 
 176   0.0000      -0.018007        -0.4900 
 177   0.0000      -0.008710        -0.2370 
 178   0.0000       0.013384         0.3642 
 179   0.0000       0.021457         0.5839 
 180   0.0000       0.025012         0.6806 
 181   0.0000       0.027172         0.7394 
 182   0.0000       0.031511         0.8575 
 183   0.0000       0.038473         1.0469 
 184   0.0000       0.041700         1.1347 
 185   0.0000       0.051496         1.4013 
 186   0.0000       0.053303         1.4505 
 187   0.0000       0.058750         1.5987 
 188   0.0000       0.064067         1.7434 
 189   0.0000       0.072972         1.9857 
 190   0.0000       0.076201         2.0735 
 191   0.0000       0.082188         2.2365 
 192   0.0000       0.084537         2.3004 
 193   0.0000       0.093767         2.5515 
 194   0.0000       0.096717         2.6318 
 195   0.0000       0.099882         2.7179 
 196   0.0000       0.102722         2.7952 
 197   0.0000       0.108179         2.9437 
 198   0.0000       0.111372         3.0306 
 199   0.0000       0.117121         3.1870 
 200   0.0000       0.119362         3.2480 
 201   0.0000       0.120032         3.2662 
 202   0.0000       0.121518         3.3067 
 203   0.0000       0.123291         3.3549 
 204   0.0000       0.129967         3.5366 
 205   0.0000       0.133521         3.6333 
 206   0.0000       0.136194         3.7060 
 207   0.0000       0.137189         3.7331 
 208   0.0000       0.141247         3.8435 
 209   0.0000       0.147286         4.0079 
 210   0.0000       0.150944         4.1074 
 211   0.0000       0.160903         4.3784 
 212   0.0000       0.166533         4.5316 
 213   0.0000       0.167509         4.5581 
 214   0.0000       0.179224         4.8769 
 215   0.0000       0.182431         4.9642 
 216   0.0000       0.183184         4.9847 
 217   0.0000       0.188269         5.1231 
 218   0.0000       0.194793         5.3006 
 219   0.0000       0.196134         5.3371 
 220   0.0000       0.198952         5.4138 
 221   0.0000       0.202434         5.5085 
 222   0.0000       0.206645         5.6231 
 223   0.0000       0.212601         5.7852 
 224   0.0000       0.219668         5.9775 
 225   0.0000       0.223736         6.0882 
 226   0.0000       0.234885         6.3916 
 227   0.0000       0.237499         6.4627 
 228   0.0000       0.239827         6.5260 
 229   0.0000       0.247050         6.7226 
 230   0.0000       0.251023         6.8307 
 231   0.0000       0.265060         7.2126 
 232   0.0000       0.268967         7.3190 
 233   0.0000       0.276733         7.5303 
 234   0.0000       0.281306         7.6547 
 235   0.0000       0.285803         7.7771 
 236   0.0000       0.294602         8.0165 
 237   0.0000       0.296148         8.0586 
 238   0.0000       0.298859         8.1324 
 239   0.0000       0.307380         8.3642 
 240   0.0000       0.310233         8.4419 
 241   0.0000       0.314952         8.5703 
 242   0.0000       0.320433         8.7194 
 243   0.0000       0.322625         8.7791 
 244   0.0000       0.327362         8.9080 
 245   0.0000       0.330012         8.9801 
 246   0.0000       0.331671         9.0252 
 247   0.0000       0.337590         9.1863 
 248   0.0000       0.344754         9.3812 
 249   0.0000       0.358807         9.7636 
 250   0.0000       0.361801         9.8451 
 251   0.0000       0.368394        10.0245 
 252   0.0000       0.369620        10.0579 
 253   0.0000       0.375463        10.2169 
 254   0.0000       0.383608        10.4385 
 255   0.0000       0.387033        10.5317 
 256   0.0000       0.391720        10.6592 
 257   0.0000       0.392110        10.6698 
 258   0.0000       0.397205        10.8085 
 259   0.0000       0.405114        11.0237 
 260   0.0000       0.406795        11.0694 
 261   0.0000       0.409127        11.1329 
 262   0.0000       0.412565        11.2265 
 263   0.0000       0.413541        11.2530 
 264   0.0000       0.420178        11.4336 
 265   0.0000       0.424175        11.5424 
 266   0.0000       0.427953        11.6452 
 267   0.0000       0.429974        11.7002 
 268   0.0000       0.434397        11.8205 
 269   0.0000       0.439809        11.9678 
 270   0.0000       0.441367        12.0102 
 271   0.0000       0.449911        12.2427 
 272   0.0000       0.453242        12.3333 
 273   0.0000       0.454596        12.3702 
 274   0.0000       0.462602        12.5880 
 275   0.0000       0.464668        12.6443 
 276   0.0000       0.469305        12.7704 
 277   0.0000       0.472198        12.8492 
 278   0.0000       0.476623        12.9696 
 279   0.0000       0.479461        13.0468 
 280   0.0000       0.484570        13.1858 
 281   0.0000       0.488748        13.2995 
 282   0.0000       0.496247        13.5036 
 283   0.0000       0.500778        13.6269 
 284   0.0000       0.504154        13.7187 
 285   0.0000       0.505363        13.7516 
 286   0.0000       0.518860        14.1189 
 287   0.0000       0.522214        14.2102 
 288   0.0000       0.526531        14.3276 
 289   0.0000       0.528939        14.3932 
 290   0.0000       0.537017        14.6130 
 291   0.0000       0.543188        14.7809 
 292   0.0000       0.545761        14.8509 
 293   0.0000       0.549764        14.9598 
 294   0.0000       0.553815        15.0701 
 295   0.0000       0.554329        15.0841 
 296   0.0000       0.556651        15.1472 
 297   0.0000       0.563344        15.3294 
 298   0.0000       0.565386        15.3849 
 299   0.0000       0.570597        15.5267 
 300   0.0000       0.575040        15.6476 
 301   0.0000       0.577953        15.7269 
 302   0.0000       0.579882        15.7794 
 303   0.0000       0.581999        15.8370 
 304   0.0000       0.585955        15.9446 
 305   0.0000       0.589452        16.0398 
 306   0.0000       0.594848        16.1866 
 307   0.0000       0.598911        16.2972 
 308   0.0000       0.600813        16.3490 
 309   0.0000       0.604221        16.4417 
 310   0.0000       0.608755        16.5651 
 311   0.0000       0.611636        16.6435 
 312   0.0000       0.616332        16.7712 
 313   0.0000       0.619335        16.8530 
 314   0.0000       0.624022        16.9805 
 315   0.0000       0.627246        17.0682 
 316   0.0000       0.630048        17.1445 
 317   0.0000       0.632637        17.2149 
 318   0.0000       0.638701        17.3799 
 319   0.0000       0.644989        17.5510 
 320   0.0000       0.646505        17.5923 
 321   0.0000       0.651102        17.7174 
 322   0.0000       0.656717        17.8702 
 323   0.0000       0.658389        17.9157 
 324   0.0000       0.686096        18.6696 
 325   0.0000       0.688286        18.7292 
 326   0.0000       0.699302        19.0290 
 327   0.0000       0.709162        19.2973 
 328   0.0000       0.791070        21.5261 
 329   0.0000       0.799415        21.7532 
 330   0.0000       0.807246        21.9663 
 331   0.0000       0.820840        22.3362 
 332   0.0000       0.830647        22.6030 
 333   0.0000       0.838070        22.8050 
 334   0.0000       0.839971        22.8568 
 335   0.0000       0.859682        23.3931 
 336   0.0000       0.860094        23.4043 
 337   0.0000       0.876362        23.8470 
 338   0.0000       0.882522        24.0147 
 339   0.0000       0.888394        24.1744 
 340   0.0000       0.899785        24.4844 
 341   0.0000       0.907669        24.6989 
 342   0.0000       0.911845        24.8126 
 343   0.0000       0.917887        24.9770 
 344   0.0000       0.921107        25.0646 
 345   0.0000       0.932955        25.3870 
 346   0.0000       0.942446        25.6453 
 347   0.0000       0.947769        25.7901 
 348   0.0000       0.953804        25.9543 
 349   0.0000       0.956809        26.0361 
 350   0.0000       0.961457        26.1626 
 351   0.0000       0.966651        26.3039 
 352   0.0000       0.978739        26.6329 
 353   0.0000       0.982252        26.7284 
 354   0.0000       1.002096        27.2684 
 355   0.0000       1.011407        27.5218 
 356   0.0000       1.032229        28.0884 
 357   0.0000       1.037506        28.2320 
 358   0.0000       1.042053        28.3557 
 359   0.0000       1.046413        28.4744 
 360   0.0000       1.055804        28.7299 
 361   0.0000       1.059082        28.8191 
 362   0.0000       1.065888        29.0043 
 363   0.0000       1.080457        29.4007 
 364   0.0000       1.084045        29.4984 
 365   0.0000       1.088636        29.6233 
 366   0.0000       1.091387        29.6981 
 367   0.0000       1.110042        30.2058 
 368   0.0000       1.120415        30.4880 
 369   0.0000       1.125350        30.6223 
 370   0.0000       1.134507        30.8715 
 371   0.0000       1.139301        31.0019 
 372   0.0000       1.154597        31.4182 
 373   0.0000       1.161569        31.6079 
 374   0.0000       1.170679        31.8558 
 375   0.0000       1.225797        33.3556 
 376   0.0000       1.255770        34.1712 
 377   0.0000       1.285879        34.9905 
 378   0.0000       1.312228        35.7075 
 379   0.0000       1.355526        36.8857 
 380   0.0000       1.380509        37.5656 
 381   0.0000       1.398862        38.0650 
 382   0.0000       1.400611        38.1126 
 383   0.0000       1.410941        38.3936 
 384   0.0000       1.425727        38.7960 
 385   0.0000       1.429553        38.9001 
 386   0.0000       1.446734        39.3676 
 387   0.0000       1.460640        39.7460 
 388   0.0000       1.466797        39.9136 
 389   0.0000       1.470418        40.0121 
 390   0.0000       1.482055        40.3288 
 391   0.0000       1.483687        40.3732 
 392   0.0000       1.492936        40.6248 
 393   0.0000       1.495201        40.6865 
 394   0.0000       1.498511        40.7766 
 395   0.0000       1.507131        41.0111 
 396   0.0000       1.509868        41.0856 
 397   0.0000       1.512391        41.1543 
 398   0.0000       1.518925        41.3321 
 399   0.0000       1.523554        41.4580 
 400   0.0000       1.529927        41.6314 
 401   0.0000       1.535221        41.7755 
 402   0.0000       1.548698        42.1422 
 403   0.0000       1.552088        42.2345 
 404   0.0000       1.556824        42.3633 
 405   0.0000       1.569300        42.7028 
 406   0.0000       1.574437        42.8426 
 407   0.0000       1.578303        42.9478 
 408   0.0000       1.582106        43.0513 
 409   0.0000       1.588236        43.2181 
 410   0.0000       1.588536        43.2263 
 411   0.0000       1.591549        43.3082 
 412   0.0000       1.599833        43.5337 
 413   0.0000       1.604126        43.6505 
 414   0.0000       1.609212        43.7889 
 415   0.0000       1.615249        43.9531 
 416   0.0000       1.619672        44.0735 
 417   0.0000       1.622592        44.1530 
 418   0.0000       1.623413        44.1753 
 419   0.0000       1.628239        44.3066 
 420   0.0000       1.631738        44.4018 
 421   0.0000       1.635963        44.5168 
 422   0.0000       1.637912        44.5698 
 423   0.0000       1.639133        44.6031 
 424   0.0000       1.642381        44.6915 
 425   0.0000       1.644882        44.7595 
 426   0.0000       1.648075        44.8464 
 427   0.0000       1.652445        44.9653 
 428   0.0000       1.653078        44.9825 
 429   0.0000       1.657474        45.1022 
 430   0.0000       1.658174        45.1212 
 431   0.0000       1.661373        45.2083 
 432   0.0000       1.663978        45.2792 
 433   0.0000       1.670744        45.4632 
 434   0.0000       1.671725        45.4900 
 435   0.0000       1.673164        45.5291 
 436   0.0000       1.674967        45.5782 
 437   0.0000       1.676073        45.6083 
 438   0.0000       1.678816        45.6829 
 439   0.0000       1.679981        45.7146 
 440   0.0000       1.681942        45.7680 
 441   0.0000       1.682788        45.7910 
 442   0.0000       1.684073        45.8260 
 443   0.0000       1.687723        45.9253 
 444   0.0000       1.688475        45.9457 
 445   0.0000       1.688699        45.9518 
 446   0.0000       1.691245        46.0211 
 447   0.0000       1.692787        46.0631 
 448   0.0000       1.693843        46.0918 
 449   0.0000       1.694545        46.1109 
 450   0.0000       1.696486        46.1637 
 451   0.0000       1.697834        46.2004 
 452   0.0000       1.699383        46.2426 
 453   0.0000       1.699881        46.2561 
 454   0.0000       1.700760        46.2800 
 455   0.0000       1.702867        46.3374 
 456   0.0000       1.704015        46.3686 
 457   0.0000       1.705842        46.4183 
 458   0.0000       1.706592        46.4387 
 459   0.0000       1.707326        46.4587 
 460   0.0000       1.708836        46.4998 
 461   0.0000       1.709934        46.5297 
 462   0.0000       1.710746        46.5518 
 463   0.0000       1.712397        46.5967 
 464   0.0000       1.713152        46.6172 
 465   0.0000       1.713704        46.6323 
 466   0.0000       1.715255        46.6745 
 467   0.0000       1.715669        46.6857 
 468   0.0000       1.717436        46.7338 
 469   0.0000       1.718359        46.7589 
 470   0.0000       1.719096        46.7790 
 471   0.0000       1.720714        46.8230 
 472   0.0000       1.722000        46.8580 
 473   0.0000       1.723744        46.9054 
 474   0.0000       1.726849        46.9899 
 475   0.0000       1.726969        46.9932 
 476   0.0000       1.729153        47.0526 
 477   0.0000       1.731225        47.1090 
 478   0.0000       1.732744        47.1504 
 479   0.0000       1.733520        47.1715 
 480   0.0000       1.735519        47.2259 
 481   0.0000       1.737449        47.2784 
 482   0.0000       1.740307        47.3562 
 483   0.0000       1.741647        47.3926 
 484   0.0000       1.742650        47.4199 
 485   0.0000       1.745228        47.4901 
 486   0.0000       1.749443        47.6048 
 487   0.0000       1.751592        47.6632 
 488   0.0000       1.752951        47.7002 
 489   0.0000       1.756440        47.7952 
 490   0.0000       1.757096        47.8130 
 491   0.0000       1.759775        47.8859 
 492   0.0000       1.760591        47.9081 
 493   0.0000       1.762920        47.9715 
 494   0.0000       1.764517        48.0150 
 495   0.0000       1.767367        48.0925 
 496   0.0000       1.768362        48.1196 
 497   0.0000       1.771969        48.2177 
 498   0.0000       1.776118        48.3306 
 499   0.0000       1.778712        48.4012 
 500   0.0000       1.779219        48.4150 
 501   0.0000       1.781290        48.4714 
 502   0.0000       1.781976        48.4900 
 503   0.0000       1.784649        48.5628 
 504   0.0000       1.787308        48.6351 
 505   0.0000       1.790579        48.7241 
 506   0.0000       1.793756        48.8106 
 507   0.0000       1.795923        48.8696 
 508   0.0000       1.797614        48.9156 
 509   0.0000       1.799138        48.9570 
 510   0.0000       1.799940        48.9788 
 511   0.0000       1.800854        49.0037 
 512   0.0000       1.807422        49.1824 
 513   0.0000       1.809867        49.2490 
 514   0.0000       1.810411        49.2638 
 515   0.0000       1.815165        49.3932 
 516   0.0000       1.817934        49.4685 
 517   0.0000       1.821755        49.5725 
 518   0.0000       1.824273        49.6410 
 519   0.0000       1.827849        49.7383 
 520   0.0000       1.828543        49.7572 
 521   0.0000       1.832696        49.8702 
 522   0.0000       1.839059        50.0433 
 523   0.0000       1.841791        50.1177 
 524   0.0000       1.849583        50.3297 
 525   0.0000       1.850773        50.3621 
 526   0.0000       1.859021        50.5865 
 527   0.0000       1.861752        50.6608 
 528   0.0000       1.867893        50.8280 
 529   0.0000       1.873396        50.9777 
 530   0.0000       1.878657        51.1209 
 531   0.0000       1.881854        51.2079 
 532   0.0000       1.893468        51.5239 
 533   0.0000       1.905924        51.8628 
 534   0.0000       1.907473        51.9050 
 535   0.0000       1.910718        51.9933 
 536   0.0000       1.918606        52.2079 
 537   0.0000       1.931394        52.5559 
 538   0.0000       1.933848        52.6227 
 539   0.0000       1.936892        52.7055 
 540   0.0000       1.945566        52.9415 
 541   0.0000       1.952159        53.1209 
 542   0.0000       1.968071        53.5539 
 543   0.0000       1.973449        53.7003 
 544   0.0000       1.977533        53.8114 
 545   0.0000       1.982848        53.9560 
 546   0.0000       1.985715        54.0340 
 547   0.0000       1.992645        54.2226 
 548   0.0000       2.004038        54.5327 
 549   0.0000       2.004764        54.5524 
 550   0.0000       2.013152        54.7806 
 551   0.0000       2.015508        54.8448 
 552   0.0000       2.017701        54.9044 
 553   0.0000       2.024620        55.0927 
 554   0.0000       2.030482        55.2522 
 555   0.0000       2.035287        55.3830 
 556   0.0000       2.040686        55.5299 
 557   0.0000       2.045531        55.6617 
 558   0.0000       2.054756        55.9128 
 559   0.0000       2.057786        55.9952 
 560   0.0000       2.061038        56.0837 
 561   0.0000       2.066439        56.2307 
 562   0.0000       2.076552        56.5059 
 563   0.0000       2.089254        56.8515 
 564   0.0000       2.093423        56.9649 
 565   0.0000       2.097197        57.0676 
 566   0.0000       2.109112        57.3919 
 567   0.0000       2.117698        57.6255 
 568   0.0000       2.132617        58.0315 
 569   0.0000       2.164257        58.8924 
 570   0.0000       2.168283        59.0020 
 571   0.0000       2.287141        62.2363 
 572   0.0000       2.378413        64.7199 
 573   0.0000       2.396897        65.2229 
 574   0.0000       2.463034        67.0226 
 575   0.0000       2.523872        68.6781 
 576   0.0000       2.533202        68.9319 
 577   0.0000       2.542163        69.1758 
 578   0.0000       2.636301        71.7374 
 579   0.0000       2.656237        72.2799 
 580   0.0000       2.681128        72.9572 
 581   0.0000       2.695346        73.3441 
 582   0.0000       2.717836        73.9561 
 583   0.0000       2.720068        74.0168 
 584   0.0000       2.742577        74.6293 
 585   0.0000       2.766321        75.2754 
 586   0.0000       2.774473        75.4973 
 587   0.0000       2.783873        75.7530 
 588   0.0000       2.811622        76.5081 
 589   0.0000       2.820467        76.7488 
 590   0.0000       2.834585        77.1330 
 591   0.0000       2.882754        78.4437 
 592   0.0000       3.572623        97.2160 
 593   0.0000       3.806801       103.5883 
 594   0.0000       3.907767       106.3357 
 595   0.0000       3.942251       107.2741 
 596   0.0000       3.977031       108.2205 
 597   0.0000       4.018145       109.3393 
 598   0.0000       4.096734       111.4778 
 599   0.0000       4.098754       111.5328 
 600   0.0000       4.103117       111.6515 
 601   0.0000       4.106823       111.7523 
 602   0.0000       4.133861       112.4881 
 603   0.0000       4.143751       112.7572 
 604   0.0000       4.154028       113.0368 
 605   0.0000      24.132180       656.6700 
 606   0.0000      24.204853       658.6475 
 607   0.0000      24.419404       664.4858 
 608   0.0000      24.615705       669.8274 
 609   0.0000      24.645146       670.6285 
 610   0.0000      24.945870       678.8116 
 611   0.0000      25.007583       680.4909 
 612   0.0000      25.093549       682.8302 
 613   0.0000      25.104363       683.1245 
 614   0.0000      25.225402       686.4181 
 615   0.0000      25.335545       689.4152 
 616   0.0000      25.356939       689.9974 
 617   0.0000      25.440027       692.2583 
 618   0.0000      25.509701       694.1543 
 619   0.0000      25.592875       696.4175 
 620   0.0000      25.779056       701.4838 
 621   0.0000      25.820080       702.6001 
 622   0.0000      25.914889       705.1800 
 623   0.0000      25.996779       707.4083 
 624   0.0000      26.066771       709.3129 
 625   0.0000      26.085432       709.8207 
 626   0.0000      26.145304       711.4499 
 627   0.0000      26.251537       714.3407 
 628   0.0000      26.400102       718.3833 
 629   0.0000      26.488905       720.7998 
 630   0.0000      26.563157       722.8203 
 631   0.0000      26.599817       723.8178 
 632   0.0000      26.619417       724.3512 
 633   0.0000      26.767306       728.3754 
 634   0.0000      26.906631       732.1667 
 635   0.0000      26.923955       732.6381 
 636   0.0000      27.011665       735.0248 
 637   0.0000      27.103629       737.5272 
 638   0.0000      27.181995       739.6597 
 639   0.0000      27.295438       742.7466 
 640   0.0000      27.372453       744.8423 
 641   0.0000      27.415131       746.0036 
 642   0.0000      27.561435       749.9848 
 643   0.0000      27.759197       755.3661 
 644   0.0000      27.852484       757.9046 
 645   0.0000      27.949111       760.5340 
 646   0.0000      28.009358       762.1734 
 647   0.0000      28.167176       766.4678 
 648   0.0000      28.371520       772.0283 
 649   0.0000      28.514930       775.9307 
 650   0.0000      29.306036       797.4578 
 651   0.0000      30.091847       818.8408 
 652   0.0000      31.995202       870.6337 
 653   0.0000      44.110896      1200.3185 
 654   0.0000      44.231001      1203.5867 
 655   0.0000      44.255796      1204.2614 
 656   0.0000      44.277138      1204.8422 
 657   0.0000      44.320375      1206.0187 
 658   0.0000      44.350521      1206.8390 
 659   0.0000      44.360754      1207.1175 
 660   0.0000      44.369328      1207.3508 
 661   0.0000      44.380090      1207.6437 
 662   0.0000      44.390884      1207.9374 
 663   0.0000      44.394769      1208.0431 
 664   0.0000      44.397433      1208.1156 
 665   0.0000      44.443487      1209.3688 
 666   0.0000      44.461991      1209.8723 
 667   0.0000      44.471017      1210.1179 
 668   0.0000      44.510028      1211.1794 
 669   0.0000     202.672903      5515.0101 
 670   0.0000     202.720374      5516.3018 
 671   0.0000     202.730340      5516.5730 
 672   0.0000     202.737359      5516.7640 
 673   0.0000     202.758106      5517.3286 
 674   0.0000     202.770953      5517.6781 
 675   0.0000     202.777789      5517.8642 
 676   0.0000     202.780505      5517.9381 
 677   0.0000     202.788216      5518.1479 
 678   0.0000     202.789633      5518.1865 
 679   0.0000     202.791726      5518.2434 
 680   0.0000     202.795487      5518.3457 
 681   0.0000     202.809665      5518.7315 
 682   0.0000     202.815578      5518.8924 
 683   0.0000     202.821570      5519.0555 
 684   0.0000     202.836198      5519.4535 

                 SPIN DOWN ORBITALS
  NO   OCC          E(Eh)            E(eV) 
   0   1.0000    -258.348882     -7030.0305 
   1   1.0000     -30.817515      -838.5872 
   2   1.0000     -26.528622      -721.8805 
   3   1.0000     -26.523146      -721.7315 
   4   1.0000     -26.519641      -721.6361 
   5   1.0000      -4.406687      -119.9121 
   6   1.0000      -4.405824      -119.8886 
   7   1.0000      -4.405362      -119.8760 
   8   1.0000      -4.403544      -119.8265 
   9   1.0000      -4.402205      -119.7901 
  10   1.0000      -4.402174      -119.7892 
  11   1.0000      -4.400459      -119.7426 
  12   1.0000      -4.399959      -119.7290 
  13   1.0000      -4.398799      -119.6974 
  14   1.0000      -4.397145      -119.6524 
  15   1.0000      -4.394563      -119.5821 
  16   1.0000      -4.394261      -119.5739 
  17   1.0000      -4.393824      -119.5620 
  18   1.0000      -4.391154      -119.4894 
  19   1.0000      -4.388874      -119.4273 
  20   1.0000      -4.387665      -119.3944 
  21   1.0000      -3.678510      -100.0974 
  22   1.0000      -2.526215       -68.7418 
  23   1.0000      -2.525643       -68.7262 
  24   1.0000      -2.525370       -68.7188 
[...]
      f+3     :    -0.000004
      f-3     :    -0.000011
  7 Aus       :    -0.043716  s :    -0.043716
      pz      :    -0.006652  p :    -0.007100
      px      :     0.001627
      py      :    -0.002074
      dz2     :    -0.004903  d :    -0.018401
      dxz     :    -0.009676
      dyz     :    -0.001357
      dx2y2   :    -0.003180
      dxy     :     0.000716
      f0      :    -0.000075  f :    -0.000094
      f+1     :     0.000007
      f-1     :     0.000001
      f+2     :    -0.000027
      f-2     :    -0.000016
      f+3     :     0.000009
      f-3     :     0.000006
  8 Aus       :    -0.000563  s :    -0.000563
      pz      :    -0.053345  p :    -0.077457
      px      :    -0.009500
      py      :    -0.014612
      dz2     :    -0.008600  d :    -0.010348
      dxz     :    -0.003856
      dyz     :    -0.002073
      dx2y2   :    -0.000367
      dxy     :     0.004547
      f0      :    -0.000018  f :    -0.000109
      f+1     :     0.000005
      f-1     :    -0.000080
      f+2     :    -0.000008
      f-2     :    -0.000023
      f+3     :     0.000038
      f-3     :    -0.000023
  9 Aus       :    -0.029840  s :    -0.029840
      pz      :    -0.006868  p :    -0.042325
      px      :    -0.010832
      py      :    -0.024624
      dz2     :     0.000708  d :    -0.012752
      dxz     :    -0.001044
      dyz     :    -0.000982
      dx2y2   :    -0.008565
      dxy     :    -0.002868
      f0      :    -0.000006  f :    -0.000078
      f+1     :    -0.000013
      f-1     :    -0.000004
      f+2     :    -0.000033
      f-2     :    -0.000016
      f+3     :    -0.000001
      f-3     :    -0.000006
 10 Aus       :    -0.043432  s :    -0.043432
      pz      :     0.003946  p :    -0.005263
      px      :     0.008205
      py      :    -0.017415
      dz2     :     0.000748  d :     0.001715
      dxz     :    -0.002047
      dyz     :     0.005686
      dx2y2   :    -0.002747
      dxy     :     0.000075
      f0      :    -0.000012  f :     0.000027
      f+1     :     0.000006
      f-1     :     0.000027
      f+2     :    -0.000005
      f-2     :     0.000020
      f+3     :    -0.000002
      f-3     :    -0.000008
 11 Aus       :    -0.011834  s :    -0.011834
      pz      :    -0.059742  p :    -0.117145
      px      :    -0.035164
      py      :    -0.022240
      dz2     :    -0.007365  d :    -0.013006
      dxz     :    -0.002727
      dyz     :    -0.000163
      dx2y2   :    -0.002901
      dxy     :     0.000149
      f0      :    -0.000032  f :    -0.000103
      f+1     :    -0.000010
      f-1     :    -0.000018
      f+2     :    -0.000026
      f-2     :    -0.000009
      f+3     :    -0.000002
      f-3     :    -0.000005
 12 Aus       :    -0.057906  s :    -0.057906
      pz      :     0.006006  p :    -0.020233
      px      :    -0.024470
      py      :    -0.001768
      dz2     :    -0.000136  d :    -0.012830
      dxz     :     0.003815
      dyz     :    -0.011684
      dx2y2   :     0.002312
      dxy     :    -0.007137
      f0      :    -0.000013  f :    -0.000009
      f+1     :     0.000022
      f-1     :    -0.000013
      f+2     :     0.000025
      f-2     :    -0.000001
      f+3     :    -0.000028
      f-3     :    -0.000002
 13 Aus       :    -0.091616  s :    -0.091616
      pz      :    -0.020805  p :    -0.024881
      px      :    -0.005208
      py      :     0.001132
      dz2     :    -0.001122  d :     0.003890
      dxz     :     0.003575
      dyz     :    -0.009301
      dx2y2   :     0.006250
      dxy     :     0.004487
      f0      :     0.000004  f :     0.000002
      f+1     :    -0.000014
      f-1     :    -0.000003
      f+2     :    -0.000014
      f-2     :    -0.000005
      f+3     :     0.000002
      f-3     :     0.000032
 14 Aus       :    -0.016833  s :    -0.016833
      pz      :    -0.047392  p :    -0.080322
      px      :    -0.009583
      py      :    -0.023347
      dz2     :     0.001101  d :    -0.022988
      dxz     :    -0.007750
      dyz     :    -0.003310
      dx2y2   :    -0.011576
      dxy     :    -0.001453
      f0      :    -0.000017  f :    -0.000102
      f+1     :    -0.000019
      f-1     :    -0.000008
      f+2     :    -0.000013
      f-2     :    -0.000018
      f+3     :    -0.000015
      f-3     :    -0.000011
 15 Aus       :    -0.010289  s :    -0.010289
      pz      :    -0.003016  p :    -0.045160
      px      :    -0.035664
      py      :    -0.006479
      dz2     :     0.000461  d :    -0.003708
      dxz     :    -0.002110
      dyz     :     0.002192
      dx2y2   :    -0.000914
      dxy     :    -0.003337
      f0      :     0.000024  f :    -0.000050
      f+1     :    -0.000045
      f-1     :    -0.000040
      f+2     :     0.000024
      f-2     :     0.000000
      f+3     :     0.000012
      f-3     :    -0.000025
 16 Fes       :     0.012138  s :     0.012138
      pz      :     0.009514  p :     0.020458
      px      :     0.005866
      py      :     0.005078
      dz2     :     0.826233  d :     3.499087
      dxz     :     0.783667
      dyz     :     0.463519
      dx2y2   :     0.650508
      dxy     :     0.775161
      f0      :    -0.000006  f :    -0.000053
      f+1     :    -0.000006
      f-1     :    -0.000030
      f+2     :    -0.000003
      f-2     :    -0.000006
      f+3     :     0.000003
      f-3     :    -0.000005


                      *****************************
                      * MAYER POPULATION ANALYSIS *
                      *****************************

  NA   - Mulliken gross atomic population
  ZA   - Total nuclear charge
  QA   - Mulliken gross atomic charge
  VA   - Mayer's total valence
  BVA  - Mayer's bonded valence
  FA   - Mayer's free valence

  ATOM       NA         ZA         QA         VA         BVA        FA
  0 Au    18.7363    19.0000     0.2637     1.2047     1.1193     0.0853
  1 Au    18.6239    19.0000     0.3761     1.3659     1.3521     0.0139
  2 Au    19.0781    19.0000    -0.0781     1.6915     1.6514     0.0402
  3 Au    18.7551    19.0000     0.2449     1.5465     1.5369     0.0096
  4 Au    18.8060    19.0000     0.1940     1.5421     1.5353     0.0067
  5 Au    18.8332    19.0000     0.1668     1.3505     1.3300     0.0205
  6 Au    18.7719    19.0000     0.2281     1.4611     1.4568     0.0043
  7 Au    19.8546    19.0000    -0.8546     2.6479     2.6188     0.0291
  8 Au    18.6534    19.0000     0.3466     1.3357     1.3328     0.0029
  9 Au    18.7808    19.0000     0.2192     1.3721     1.3553     0.0168
 10 Au    19.1877    19.0000    -0.1877     1.9339     1.9104     0.0235
 11 Au    18.7672    19.0000     0.2328     1.5748     1.5589     0.0159
 12 Au    19.3155    19.0000    -0.3155     2.0070     1.9761     0.0309
 13 Au    18.7204    19.0000     0.2796     1.3006     1.2615     0.0391
 14 Au    18.7822    19.0000     0.2178     1.5143     1.5051     0.0092
 15 Au    18.6393    19.0000     0.3607     1.3356     1.3323     0.0033
 16 Fe    27.6941    26.0000    -1.6941     8.0491     4.5672     3.4819

  Mayer bond orders larger than 0.100000
B(  0-Au,  1-Au) :   0.1037 B(  0-Au,  4-Au) :   0.1509 B(  0-Au,  8-Au) :   0.1625 
B(  0-Au, 16-Fe) :   0.5285 B(  1-Au,  4-Au) :   0.1464 B(  1-Au,  7-Au) :   0.1794 
B(  1-Au, 13-Au) :   0.1632 B(  1-Au, 14-Au) :   0.1654 B(  1-Au, 16-Fe) :   0.4462 
B(  2-Au,  3-Au) :   0.1838 B(  2-Au,  4-Au) :   0.1459 B(  2-Au,  5-Au) :   0.2262 
B(  2-Au,  8-Au) :   0.2619 B(  2-Au, 10-Au) :   0.1953 B(  2-Au, 16-Fe) :   0.4319 
B(  3-Au,  4-Au) :   0.2327 B(  3-Au,  5-Au) :   0.2512 B(  3-Au,  6-Au) :   0.2474 
B(  3-Au,  7-Au) :   0.4079 B(  4-Au,  7-Au) :   0.3238 B(  4-Au, 16-Fe) :   0.3581 
B(  5-Au,  6-Au) :   0.2142 B(  5-Au,  9-Au) :   0.1499 B(  5-Au, 10-Au) :   0.2855 
B(  6-Au,  7-Au) :   0.3263 B(  6-Au,  9-Au) :   0.2213 B(  6-Au, 11-Au) :   0.2866 
B(  7-Au, 11-Au) :   0.3821 B(  7-Au, 12-Au) :   0.1307 B(  7-Au, 14-Au) :   0.3734 
B(  7-Au, 16-Fe) :   0.3521 B(  8-Au, 10-Au) :   0.1778 B(  8-Au, 15-Au) :   0.1272 
B(  8-Au, 16-Fe) :   0.3960 B(  9-Au, 10-Au) :   0.2674 B(  9-Au, 11-Au) :   0.2431 
B(  9-Au, 12-Au) :   0.2616 B( 10-Au, 12-Au) :   0.2260 B( 10-Au, 15-Au) :   0.2223 
B( 10-Au, 16-Fe) :   0.4087 B( 11-Au, 12-Au) :   0.2163 B( 11-Au, 14-Au) :   0.2533 
B( 12-Au, 13-Au) :   0.1204 B( 12-Au, 14-Au) :   0.2024 B( 12-Au, 15-Au) :   0.2635 
B( 12-Au, 16-Fe) :   0.4249 B( 13-Au, 14-Au) :   0.1760 B( 13-Au, 15-Au) :   0.1523 
B( 13-Au, 16-Fe) :   0.4827 B( 14-Au, 16-Fe) :   0.1562 B( 15-Au, 16-Fe) :   0.3679 


-------
TIMINGS
-------

Total SCF time: 0 days 1 hours 4 min 19 sec 

Total time                  ....    3859.986 sec
Sum of individual times     ....    3850.016 sec  ( 99.7%)

Fock matrix formation       ....    3777.068 sec  ( 97.9%)
  Split-RI-J                ....     263.928 sec  (  7.0% of F)
  Chain of spheres X        ....    3054.073 sec  ( 80.9% of F)
  XC integration            ....     449.889 sec  ( 11.9% of F)
    Basis function eval.    ....      50.037 sec  ( 11.1% of XC)
    Density eval.           ....     229.042 sec  ( 50.9% of XC)
    XC-Functional eval.     ....       6.459 sec  (  1.4% of XC)
    XC-Potential eval.      ....     145.530 sec  ( 32.3% of XC)
Diagonalization             ....      41.020 sec  (  1.1%)
Density matrix formation    ....       3.304 sec  (  0.1%)
Population analysis         ....       0.194 sec  (  0.0%)
Initial guess               ....       0.287 sec  (  0.0%)
Orbital Transformation      ....       6.816 sec  (  0.2%)
Orbital Orthonormalization  ....       0.245 sec  (  0.0%)
DIIS solution               ....      18.320 sec  (  0.5%)
Grid generation             ....       2.993 sec  (  0.1%)

Maximum memory used throughout the entire SCF-calculation: 169.4 MB


           ************************************************************
           *        Program running with 6 parallel MPI-processes     *
           *              working on a common directory               *
           ************************************************************

------------------------------------------------------------------------------
                                ORCA  MP2 
------------------------------------------------------------------------------

Freezing NCore=10 chemical core electrons

   <<< Use J-auxbasis for calculation of Separable RI-J derivative contributions (Dim=1513) >>> 


-------------
RI-MP2 ENERGY
-------------
Dimension of the basis                    ...  685
Memory devoted to MP2                     ...  256 MB   
Data format for buffers                   ... DOUBLE
Compression type for matrix containers    ... UNCOMPRESSED
Overall scaling of the MP2 energy         ...   2.700e-01
Calculating two index integrals           ... done (    0.054 sec)
Cholesky decomposition of V**-1           ... done (    0.542 sec)

-----------------
RI-TRANSFORMATION (AUX index driven)
-----------------

Dimension of the orbital-basis         ... 685
Dimension of the aux-basis             ... 2598
Transformation of internal/external MOs...    5- 165 to  166- 684
Number Format for Storage              ... Double (8 Byte)
Integral mode                          ... Direct

First Phase: integral generation and transformation of MO indices
  Aux angular momentum 0               ... done (    0.297 sec)
  Aux angular momentum 1               ... done (    0.750 sec)
  Aux angular momentum 2               ... done (    1.087 sec)
  Aux angular momentum 3               ... done (    1.134 sec)
  Aux angular momentum 4               ... done (    0.889 sec)
  Aux angular momentum 5               ... done (    0.774 sec)
Closing buffer VIA ( 1.62 GB; CompressionRatio= 1.00)
  Phase 1 completed in     5.019 sec
Second Phase: sorting and transformation of aux index

IA-Transformation
Memory available                       ... 150 MB 
Max. # MO pairs treated in a batch     ... 13    
# of internal orbitals                 ... 161
# batches for internal orbitals        ... 3
Closing buffer IAV ( 1.62 GB; CompressionRatio= 1.00)
(ia|v) transformation done in     5.278 sec

  Phase 2 completed in     5.426 sec
RI-Integral transformation completed in    10.445 sec

-----------------
RI-TRANSFORMATION (AUX index driven)
-----------------

Dimension of the orbital-basis         ... 685
Dimension of the aux-basis             ... 2598
Transformation of internal/external MOs...    5- 163 to  164- 684
Number Format for Storage              ... Double (8 Byte)
Integral mode                          ... Direct

First Phase: integral generation and transformation of MO indices
  Aux angular momentum 0               ... done (    0.298 sec)
  Aux angular momentum 1               ... done (    0.749 sec)
  Aux angular momentum 2               ... done (    1.079 sec)
  Aux angular momentum 3               ... done (    1.135 sec)
  Aux angular momentum 4               ... done (    0.891 sec)
  Aux angular momentum 5               ... done (    0.758 sec)
Closing buffer VIA ( 1.60 GB; CompressionRatio= 1.00)
  Phase 1 completed in     5.049 sec
Second Phase: sorting and transformation of aux index

IA-Transformation
Memory available                       ... 150 MB 
Max. # MO pairs treated in a batch     ... 13    
# of internal orbitals                 ... 159
# batches for internal orbitals        ... 3
Closing buffer IAV ( 1.60 GB; CompressionRatio= 1.00)
(ia|v) transformation done in     5.574 sec

  Phase 2 completed in     5.726 sec
RI-Integral transformation completed in    10.775 sec
Opening buffers                              ... done

Starting loop over batches of integrals:

Operator 0  - window                       ... (  5-165)x(166-684)
Operator 0  - Memory available             ...   256 MB
Operator 0  - Memory needed per MO         ...  10.3 MB
Operator 0  - Number of orbitals per batch ... 15
Operator 0  - Number of batches            ... 2

OPERATOR  0   PASS   0:  MOs     5 ...   19 +   20 ...   34 +   35 ...   49 +   50 ...   64
                            +   65 ...   79 +   80 ...   94
  Reading integrals       ... ok
  Internal MO   7
  Internal MO  10
  Internal MO  13
  Internal MO  16
  Internal MO  19
OPERATOR  0   PASS   1:  MOs    95 ...  106 +  107 ...  118 +  119 ...  130 +  131 ...  142
                            +  143 ...  154 +  155 ...  165
  Reading integrals       ... ok
  Internal MO 157
  Internal MO 160
  Internal MO 163

Operator 1  - window                       ... (  5-163)x(164-684)
Operator 1  - Memory available             ...   256 MB
Operator 1  - Memory needed per MO         ...  10.3 MB
Operator 1  - Number of orbitals per batch ... 15
Operator 1  - Number of batches            ... 2

OPERATOR  1   PASS   0:  MOs     5 ...   19 +   20 ...   34 +   35 ...   49 +   50 ...   64
                            +   65 ...   79 +   80 ...   94
  Reading integrals       ... ok
  Internal MO   7
  Internal MO  10
  Internal MO  13
  Internal MO  16
  Internal MO  19
OPERATOR  1   PASS   1:  MOs    95 ...  106 +  107 ...  118 +  119 ...  130 +  131 ...  141
                            +  142 ...  152 +  153 ...  163
  Reading integrals       ... ok
  Internal MO 154
  Internal MO 157
  Internal MO 160
  Internal MO 163
Time spent in pair loops =   533.615 sec
Deleting buffer (Ka|jb)[aa] ...done
Deleting buffer (Ka|jb)[ba] ...done
Deleting buffer (Ka|jb)[ab] ...done
Deleting buffer (Ka|jb)[bb] ...done

Correlation energy components}
 E2 and T2 for alpha/alpha pairs :     -0.485867959 Eh      0.000000000
 E2 and T2 for beta/beta   pairs :     -0.484700034 Eh      0.000000000
 E2 and T2 for alpha/beta  pairs :     -1.641499368 Eh      0.000000000


-----------------------------------------------
 RI-MP2 CORRELATION ENERGY:     -2.612067361 Eh
-----------------------------------------------


-------
TIMINGS
-------

Total time                :  555.488 sec
Integral trafo            :   21.235 sec (  3.8%)
I/O of integrals          :    0.358 sec (  0.1%)
K(i,j) Operators          :  395.867 sec ( 71.3%)
T(i,j) pair energies      :   16.803 sec (  3.0%)
V-calculation             :    0.054 sec (  0.0%)
V**(-1/2)                 :    0.542 sec (  0.1%)
Gamma(ia|P)               :    0.000 sec (  0.0%)
Gamma-Trafo               :    0.000 sec (  0.0%)
D(virtual)                :    0.000 sec (  0.0%)
D(internal)               :    0.000 sec (  0.0%)
W(virtual)                :    0.000 sec (  0.0%)
W(internal)               :    0.000 sec (  0.0%)
L(virtual)                :    0.000 sec (  0.0%)
L(internal)               :    0.000 sec (  0.0%)
G(D)                      :    0.000 sec (  0.0%)
G(Z)                      :    0.000 sec (  0.0%)
Z-Vector Solution         :    0.000 sec (  0.0%)
3-Index Derivative        :    0.000 sec (  0.0%)
2-Index Derivative        :    0.000 sec (  0.0%)
Separable Gradient (RIJ)  :    0.000 sec (  0.0%)
Separable Gradient (COSX) :    0.000 sec (  0.0%)


---------------------------------------
MP2 TOTAL ENERGY:    -3432.933910763 Eh
---------------------------------------

Maximum memory used throughout the entire MP2-calculation: 299.0 MB

-------------------------   --------------------
FINAL SINGLE POINT ENERGY     -3432.933910762878
-------------------------   --------------------


                            ***************************************
                            *     ORCA property calculations      *
                            ***************************************


  WARNING: The energy has been calculated at the MP2 level but the densities
           used in the property calculations are still SCF densities
           MP2 response densities have not been calculated 
           use %mp2 Density relaxed end
           or  %mp2 Density unrelaxed end

                                    ---------------------
                                    Active property flags
                                    ---------------------
   (+) Dipole Moment


------------------------------------------------------------------------------
                       ORCA ELECTRIC PROPERTIES CALCULATION
------------------------------------------------------------------------------

Dipole Moment Calculation                       ... on
Quadrupole Moment Calculation                   ... off
Polarizability Calculation                      ... off
GBWName                                         ... b2plyp_job2.gbw
Electron density                                ... b2plyp_job2.scfp
The origin for moment calculation is the CENTER OF MASS  = (13.660072, 15.361756 12.212897)

-------------
DIPOLE MOMENT
-------------
                                X             Y             Z
Electronic contribution:      8.28738      31.85744     -29.50478
Nuclear contribution   :     -8.59043     -32.40039      30.06511
                        -----------------------------------------
Total Dipole Moment    :     -0.30305      -0.54295       0.56032
                        -----------------------------------------
Magnitude (a.u.)       :      0.83702
Magnitude (Debye)      :      2.12752



--------------------
Rotational spectrum 
--------------------
 
Rotational constants in cm-1:     0.000957     0.000796     0.000738 
Rotational constants in MHz :    28.693721    23.877524    22.123531 

 Dipole components along the rotational axes: 
x,y,z [a.u.] :     0.834628    -0.062520     0.009109 
x,y,z [Debye]:     2.121455    -0.158914     0.023152 

 

Timings for individual modules:

Sum of individual times         ...     4428.768 sec (=  73.813 min)
GTO integral calculation        ...       12.720 sec (=   0.212 min)   0.3 %
SCF iterations                  ...     3860.132 sec (=  64.336 min)  87.2 %
MP2 module                      ...      555.916 sec (=   9.265 min)  12.6 %



                             ****ORCA TERMINATED NORMALLY****
TOTAL RUN TIME: 0 days 1 hours 38 minutes 7 seconds 868 msec
