
                                 *****************
                                 * O   R   C   A *
                                 *****************

                                            #,                                       
                                            ###                                      
                                            ####                                     
                                            #####                                    
                                            ######                                   
                                           ########,                                 
                                     ,,################,,,,,                         
                               ,,#################################,,                 
                          ,,##########################################,,             
                       ,#########################################, ''#####,          
                    ,#############################################,,   '####,        
                  ,##################################################,,,,####,       
                ,###########''''           ''''###############################       
              ,#####''   ,,,,##########,,,,          '''####'''          '####       
            ,##' ,,,,###########################,,,                        '##       
           ' ,,###''''                  '''############,,,                           
         ,,##''                                '''############,,,,        ,,,,,,###''
      ,#''                                            '''#######################'''  
     '                                                          ''''####''''         
             ,#######,   #######,   ,#######,      ##                                
            ,#'     '#,  ##    ##  ,#'     '#,    #''#        ######   ,####,        
            ##       ##  ##   ,#'  ##            #'  '#       #        #'  '#        
            ##       ##  #######   ##           ,######,      #####,   #    #        
            '#,     ,#'  ##    ##  '#,     ,#' ,#      #,         ##   #,  ,#        
             '#######'   ##     ##  '#######'  #'      '#     #####' # '####'        



                  #######################################################
                  #                        -***-                        #
                  #          Department of theory and spectroscopy      #
                  #    Directorship and core code : Frank Neese         #
                  #        Max Planck Institute fuer Kohlenforschung    #
                  #                Kaiser Wilhelm Platz 1               #
                  #                 D-45470 Muelheim/Ruhr               #
                  #                      Germany                        #
                  #                                                     #
                  #                  All rights reserved                #
                  #                        -***-                        #
                  #######################################################


                         Program Version 5.0.3 -  RELEASE  -


 With contributions from (in alphabetic order):
   Daniel Aravena         : Magnetic Suceptibility
   Michael Atanasov       : Ab Initio Ligand Field Theory (pilot matlab implementation)
   Alexander A. Auer      : GIAO ZORA, VPT2 properties, NMR spectrum
   Ute Becker             : Parallelization
   Giovanni Bistoni       : ED, misc. LED, open-shell LED, HFLD
   Martin Brehm           : Molecular dynamics
   Dmytro Bykov           : SCF Hessian
   Vijay G. Chilkuri      : MRCI spin determinant printing, contributions to CSF-ICE
   Dipayan Datta          : RHF DLPNO-CCSD density
   Achintya Kumar Dutta   : EOM-CC, STEOM-CC
   Dmitry Ganyushin       : Spin-Orbit,Spin-Spin,Magnetic field MRCI
   Miquel Garcia          : C-PCM and meta-GGA Hessian, CC/C-PCM, Gaussian charge scheme
   Yang Guo               : DLPNO-NEVPT2, F12-NEVPT2, CIM, IAO-localization
   Andreas Hansen         : Spin unrestricted coupled pair/coupled cluster methods
   Benjamin Helmich-Paris : MC-RPA, TRAH-SCF, COSX integrals
   Lee Huntington         : MR-EOM, pCC
   Robert Izsak           : Overlap fitted RIJCOSX, COSX-SCS-MP3, EOM
   Marcus Kettner         : VPT2
   Christian Kollmar      : KDIIS, OOCD, Brueckner-CCSD(T), CCSD density, CASPT2, CASPT2-K
   Simone Kossmann        : Meta GGA functionals, TD-DFT gradient, OOMP2, MP2 Hessian
   Martin Krupicka        : Initial AUTO-CI
   Lucas Lang             : DCDCAS
   Marvin Lechner         : AUTO-CI (C++ implementation), FIC-MRCC
   Dagmar Lenk            : GEPOL surface, SMD
   Dimitrios Liakos       : Extrapolation schemes; Compound Job, initial MDCI parallelization
   Dimitrios Manganas     : Further ROCIS development; embedding schemes
   Dimitrios Pantazis     : SARC Basis sets
   Anastasios Papadopoulos: AUTO-CI, single reference methods and gradients
   Taras Petrenko         : DFT Hessian,TD-DFT gradient, ASA, ECA, R-Raman, ABS, FL, XAS/XES, NRVS
   Peter Pinski           : DLPNO-MP2, DLPNO-MP2 Gradient
   Christoph Reimann      : Effective Core Potentials
   Marius Retegan         : Local ZFS, SOC
   Christoph Riplinger    : Optimizer, TS searches, QM/MM, DLPNO-CCSD(T), (RO)-DLPNO pert. Triples
   Tobias Risthaus        : Range-separated hybrids, TD-DFT gradient, RPA, STAB
   Michael Roemelt        : Original ROCIS implementation
   Masaaki Saitow         : Open-shell DLPNO-CCSD energy and density
   Barbara Sandhoefer     : DKH picture change effects
   Avijit Sen             : IP-ROCIS
   Kantharuban Sivalingam : CASSCF convergence, NEVPT2, FIC-MRCI
   Bernardo de Souza      : ESD, SOC TD-DFT
   Georgi Stoychev        : AutoAux, RI-MP2 NMR, DLPNO-MP2 response
   Willem Van den Heuvel  : Paramagnetic NMR
   Boris Wezisla          : Elementary symmetry handling
   Frank Wennmohs         : Technical directorship


 We gratefully acknowledge several colleagues who have allowed us to
 interface, adapt or use parts of their codes:
   Stefan Grimme, W. Hujo, H. Kruse, P. Pracht,  : VdW corrections, initial TS optimization,
                  C. Bannwarth, S. Ehlert          DFT functionals, gCP, sTDA/sTD-DF
   Ed Valeev, F. Pavosevic, A. Kumar             : LibInt (2-el integral package), F12 methods
   Garnet Chan, S. Sharma, J. Yang, R. Olivares  : DMRG
   Ulf Ekstrom                                   : XCFun DFT Library
   Mihaly Kallay                                 : mrcc  (arbitrary order and MRCC methods)
   Jiri Pittner, Ondrej Demel                    : Mk-CCSD
   Frank Weinhold                                : gennbo (NPA and NBO analysis)
   Christopher J. Cramer and Donald G. Truhlar   : smd solvation model
   Lars Goerigk                                  : TD-DFT with DH, B97 family of functionals
   V. Asgeirsson, H. Jonsson                     : NEB implementation
   FAccTs GmbH                                   : IRC, NEB, NEB-TS, DLPNO-Multilevel, CI-OPT
                                                   MM, QMMM, 2- and 3-layer-ONIOM, Crystal-QMMM,
                                                   LR-CPCM, SF, NACMEs, symmetry and pop. for TD-DFT,
                                                   nearIR, NL-DFT gradient (VV10), updates on ESD,
                                                   ML-optimized integration grids
   S Lehtola, MJT Oliveira, MAL Marques          : LibXC Library
   Liviu Ungur et al                             : ANISO software


 Your calculation uses the libint2 library for the computation of 2-el integrals
 For citations please refer to: http://libint.valeyev.net

 Your ORCA version has been built with support for libXC version: 5.1.0
 For citations please refer to: https://tddft.org/programs/libxc/

 This ORCA versions uses:
   CBLAS   interface :  Fast vector & matrix operations
   LAPACKE interface :  Fast linear algebra routines
   SCALAPACK package :  Parallel linear algebra routines
   Shared memory     :  Shared parallel matrices
   BLAS/LAPACK       :  OpenBLAS 0.3.15  USE64BITINT DYNAMIC_ARCH NO_AFFINITY Haswell SINGLE_THREADED
        Core in use  :  Haswell
   Copyright (c) 2011-2014, The OpenBLAS Project




***************************************
The coordinates will be read from file: pbe.xyz
***************************************


================================================================================

cite the ECPs for Au [Def2-ECP] as follows:
Ce-Yb(ecp-28): M. Dolg, H. Stoll, H.Preuss, J. Chem. Phys., 1989, 90, 1730-1734.
Y-Cd(ecp-28), Hf-Hg(ecp-46): D. Andrae,U. Haeussermann, M. Dolg, H. Stoll, H. Preuss, Theor. Chim. Acta, 1990, 77, 123-141.
In-Sb(ecp-28), Tl-Bi(ecp-46): B. Metz, H. Stoll, M. Dolg, J. Chem. Phys., 2000, 113, 2563-2569.
Te-Xe(ecp-28), Po-Rn(ecp-46): K. A. Peterson, D. Figgen, E. Goll, H. Stoll, M. Dolg, J. Chem. Phys., 2003, 119, 11113-11123.
Rb(ecp-28), Cs(ecp-46): T. Leininger, A. Nicklass, W. Kuechle, H. Stoll, M. Dolg, A. Bergner, Chem. Phys. Lett., 1996, 255, 274-280.
Sr(ecp-28), Ba(ecp-46): M. Kaupp, P. V. Schleyer, H. Stoll and H. Preuss, J. Chem. Phys., 1991, 94, 1360-1366.
La(ecp-46): M. Dolg, H. Stoll, A. Savin, H. Preuss, Theor. Chim. Acta, 1989, 75, 173-194.
Lu(ecp-28): X. Cao, M. Dolg, J. Chem. Phys., 2001, 115, 7348-7355.

ECP parameters for Au [Def2-ECP] have been obtained from:
TURBOMOLE (7.0.2)

----- Orbital basis set information -----
Your calculation utilizes the basis: def2-TZVP
   F. Weigend and R. Ahlrichs, Phys. Chem. Chem. Phys. 7, 3297 (2005).

----- AuxJ basis set information -----
Your calculation utilizes the auxiliary basis: def2/J
   F. Weigend, Phys. Chem. Chem. Phys. 8, 1057 (2006).

================================================================================
                                        WARNINGS
                       Please study these warnings very carefully!
================================================================================

Using LibXC functional ID 497 : Re-regularized SCAN exchange by Furness et al
[ 1]  J. W. Furness, A. D. Kaplan, J. Ning, J. P. Perdew, and J. Sun, J. Phys. Chem. Lett. 11, 8208 (2020)
[ 2]  J. W. Furness, A. D. Kaplan, J. Ning, J. P. Perdew, and J. Sun, J. Phys. Chem. Lett. 11, 9248 (2020)
Using LibXC functional ID 498 : Re-regularized SCAN correlation by Furness et al
[ 1]  J. W. Furness, A. D. Kaplan, J. Ning, J. P. Perdew, and J. Sun, J. Phys. Chem. Lett. 11, 8208 (2020)
[ 2]  J. W. Furness, A. D. Kaplan, J. Ning, J. P. Perdew, and J. Sun, J. Phys. Chem. Lett. 11, 9248 (2020)
Using LibXC functional ID 497 : Re-regularized SCAN exchange by Furness et al
[ 1]  J. W. Furness, A. D. Kaplan, J. Ning, J. P. Perdew, and J. Sun, J. Phys. Chem. Lett. 11, 8208 (2020)
[ 2]  J. W. Furness, A. D. Kaplan, J. Ning, J. P. Perdew, and J. Sun, J. Phys. Chem. Lett. 11, 9248 (2020)
Using LibXC functional ID 498 : Re-regularized SCAN correlation by Furness et al
[ 1]  J. W. Furness, A. D. Kaplan, J. Ning, J. P. Perdew, and J. Sun, J. Phys. Chem. Lett. 11, 8208 (2020)
[ 2]  J. W. Furness, A. D. Kaplan, J. Ning, J. P. Perdew, and J. Sun, J. Phys. Chem. Lett. 11, 9248 (2020)

WARNING: your system is open-shell and RHF/RKS was chosen
  ===> : WILL SWITCH to UHF/UKS


INFO   : the flag for use of the SHARK integral package has been found!



***************************************
The coordinates will be read from file: pbe.xyz
***************************************


================================================================================

cite the ECPs for Au [Def2-ECP] as follows:
Ce-Yb(ecp-28): M. Dolg, H. Stoll, H.Preuss, J. Chem. Phys., 1989, 90, 1730-1734.
Y-Cd(ecp-28), Hf-Hg(ecp-46): D. Andrae,U. Haeussermann, M. Dolg, H. Stoll, H. Preuss, Theor. Chim. Acta, 1990, 77, 123-141.
In-Sb(ecp-28), Tl-Bi(ecp-46): B. Metz, H. Stoll, M. Dolg, J. Chem. Phys., 2000, 113, 2563-2569.
Te-Xe(ecp-28), Po-Rn(ecp-46): K. A. Peterson, D. Figgen, E. Goll, H. Stoll, M. Dolg, J. Chem. Phys., 2003, 119, 11113-11123.
Rb(ecp-28), Cs(ecp-46): T. Leininger, A. Nicklass, W. Kuechle, H. Stoll, M. Dolg, A. Bergner, Chem. Phys. Lett., 1996, 255, 274-280.
Sr(ecp-28), Ba(ecp-46): M. Kaupp, P. V. Schleyer, H. Stoll and H. Preuss, J. Chem. Phys., 1991, 94, 1360-1366.
La(ecp-46): M. Dolg, H. Stoll, A. Savin, H. Preuss, Theor. Chim. Acta, 1989, 75, 173-194.
Lu(ecp-28): X. Cao, M. Dolg, J. Chem. Phys., 2001, 115, 7348-7355.

ECP parameters for Au [Def2-ECP] have been obtained from:
TURBOMOLE (7.0.2)

----- Orbital basis set information -----
Your calculation utilizes the basis: def2-TZVP
   F. Weigend and R. Ahlrichs, Phys. Chem. Chem. Phys. 7, 3297 (2005).

----- AuxJ basis set information -----
Your calculation utilizes the auxiliary basis: def2/J
   F. Weigend, Phys. Chem. Chem. Phys. 8, 1057 (2006).

================================================================================
                                        WARNINGS
                       Please study these warnings very carefully!
================================================================================

Using LibXC functional ID 497 : Re-regularized SCAN exchange by Furness et al
[ 1]  J. W. Furness, A. D. Kaplan, J. Ning, J. P. Perdew, and J. Sun, J. Phys. Chem. Lett. 11, 8208 (2020)
[ 2]  J. W. Furness, A. D. Kaplan, J. Ning, J. P. Perdew, and J. Sun, J. Phys. Chem. Lett. 11, 9248 (2020)
Using LibXC functional ID 498 : Re-regularized SCAN correlation by Furness et al
[ 1]  J. W. Furness, A. D. Kaplan, J. Ning, J. P. Perdew, and J. Sun, J. Phys. Chem. Lett. 11, 8208 (2020)
[ 2]  J. W. Furness, A. D. Kaplan, J. Ning, J. P. Perdew, and J. Sun, J. Phys. Chem. Lett. 11, 9248 (2020)
Using LibXC functional ID 497 : Re-regularized SCAN exchange by Furness et al
[ 1]  J. W. Furness, A. D. Kaplan, J. Ning, J. P. Perdew, and J. Sun, J. Phys. Chem. Lett. 11, 8208 (2020)
[ 2]  J. W. Furness, A. D. Kaplan, J. Ning, J. P. Perdew, and J. Sun, J. Phys. Chem. Lett. 11, 9248 (2020)
Using LibXC functional ID 498 : Re-regularized SCAN correlation by Furness et al
[ 1]  J. W. Furness, A. D. Kaplan, J. Ning, J. P. Perdew, and J. Sun, J. Phys. Chem. Lett. 11, 8208 (2020)
[ 2]  J. W. Furness, A. D. Kaplan, J. Ning, J. P. Perdew, and J. Sun, J. Phys. Chem. Lett. 11, 9248 (2020)

INFO   : the flag for use of the SHARK integral package has been found!

================================================================================
                                       INPUT FILE
================================================================================
NAME = scan.inp
|  1> !R2SCAN def2-TZVP VERYSLOWCONV
|  2> !KDIIS
|  3> %scf
|  4>   AutoTRAHIter 200
|  5>   maxiter 400
|  6> end
|  7> 
|  8> %pal nprocs 6 end 
|  9> 
| 10> *xyzfile 0 5 pbe.xyz
| 11> 
| 12> $new_job
| 13> 
| 14> !R2SCAN def2-TZVP KDIIS SLOWCONV
| 15> 
| 16> %scf
| 17>   AutoTRAHIter 200
| 18>   maxiter 400
| 19> end
| 20> 
| 21> 
| 22> %pal nprocs 6 end 
| 23> 
| 24> *xyzfile 0 3 pbe.xyz
| 25> 
| 26> 
| 27> 
| 28> 
| 29> 
| 30>                          ****END OF INPUT****
================================================================================


                 $$$$$$$$$$$$$$$$$$$$$$$$$$$$$$$$$$$$$$$$$$$$$$ 
                 $ THERE ARE  2 JOBS TO BE PROCESSED THIS RUN $
                 $$$$$$$$$$$$$$$$$$$$$$$$$$$$$$$$$$$$$$$$$$$$$$ 




                 $$$$$$$$$$$$$$$$  JOB NUMBER  1 $$$$$$$$$$$$$$


                       ****************************
                       * Single Point Calculation *
                       ****************************

---------------------------------
CARTESIAN COORDINATES (ANGSTROEM)
---------------------------------
  Au     7.601548    6.389867    9.609934
  Au     5.727820    8.487832    9.220021
  Au     9.772119    7.507355    6.931755
  Au     9.624628   10.301767    6.795076
  Au     8.499877    8.976350    8.979840
  Au     9.804725    8.773597    4.427493
  Au     8.113453   11.041506    4.587198
  Au     6.881474   10.079631    7.001247
  Au     8.562744    5.079395    7.339004
  Au     7.270663    8.652696    3.281239
  Au     8.154414    6.529438    4.834599
  Au     5.437340   10.300877    4.646408
  Au     5.412480    7.473066    4.976204
  Au     4.496381    6.506011    7.640148
  Au     4.251838    9.208038    6.913606
  Au     6.108609    4.993887    6.001953
  Fe     7.008060    7.297289    7.234636

----------------------------
CARTESIAN COORDINATES (A.U.)
----------------------------
  NO LB      ZA    FRAG     MASS         X           Y           Z
   0 Au   19.0000*   0   196.966   14.364845   12.075099   18.160143
   1 Au   19.0000*   0   196.966   10.824011   16.039678   17.423315
   2 Au   19.0000*   0   196.966   18.466628   14.186846   13.099119
   3 Au   19.0000*   0   196.966   18.187911   19.467519   12.840832
   4 Au   19.0000*   0   196.966   16.062440   16.962843   16.969439
   5 Au   19.0000*   0   196.966   18.528245   16.579695    8.366748
   6 Au   19.0000*   0   196.966   15.332204   20.865423    8.668549
   7 Au   19.0000*   0   196.966   13.004101   19.047741   13.230440
   8 Au   19.0000*   0   196.966   16.181242    9.598665   13.868708
   9 Au   19.0000*   0   196.966   13.739562   16.351226    6.200644
  10 Au   19.0000*   0   196.966   15.409608   12.338850    9.136068
  11 Au   19.0000*   0   196.966   10.275084   19.465836    8.780439
  12 Au   19.0000*   0   196.966   10.228105   14.122049    9.403663
  13 Au   19.0000*   0   196.966    8.496929   12.294579   14.437787
  14 Au   19.0000*   0   196.966    8.034810   17.400669   13.064822
  15 Au   19.0000*   0   196.966   11.543597    9.437078   11.342048
  16 Fe   26.0000    0    55.850   13.243314   13.789878   13.671480
* core charge reduced due to ECP

--------------------------------
INTERNAL COORDINATES (ANGSTROEM)
--------------------------------
 Au     0   0   0     0.000000000000     0.00000000     0.00000000
 Au     1   0   0     2.839779239995     0.00000000     0.00000000
 Au     1   2   0     3.623919622219    93.77946968     0.00000000
 Au     3   1   2     2.801637555040   108.18531363    32.57249021
 Au     4   3   1     2.791951054408    60.62843164    10.92815765
 Au     3   1   2     2.806378974384   143.66463246   327.98330184
 Au     4   3   1     2.775893612682   109.46686896   254.46496288
 Au     4   3   1     2.759844853987    88.18917432   314.49430311
 Au     3   1   2     2.742887446216    49.70119618   235.95515134
 Au     6   3   1     2.783879086601   109.70939565   340.55519696
 Au    10   6   3     2.775277427012    60.85014123   325.38931317
 Au     8   4   3     2.771234438939   116.61921103   259.51040058
 Au    10   6   3     2.777998856106   112.09150766     3.51788761
 Au     2   1   3     2.817810812075    81.12600936    94.33082538
 Au     8   4   3     2.771703510147   165.00627733   333.61041347
 Au    14   2   1     2.751268502147   117.66517832   316.93462483
 Fe     1   2   3     2.611069203920    57.88461968   323.38551579

---------------------------
INTERNAL COORDINATES (A.U.)
---------------------------
 Au     0   0   0     0.000000000000     0.00000000     0.00000000
 Au     1   0   0     5.366405044385     0.00000000     0.00000000
 Au     1   2   0     6.848215617338    93.77946968     0.00000000
 Au     3   1   2     5.294327705534   108.18531363    32.57249021
 Au     4   3   1     5.276022872143    60.62843164    10.92815765
 Au     3   1   2     5.303287689580   143.66463246   327.98330184
 Au     4   3   1     5.245678704870   109.46686896   254.46496288
 Au     4   3   1     5.215350946148    88.18917432   314.49430311
 Au     3   1   2     5.183306089519    49.70119618   235.95515134
 Au     6   3   1     5.260769063627   109.70939565   340.55519696
 Au    10   6   3     5.244514282706    60.85014123   325.38931317
 Au     8   4   3     5.236874142486   116.61921103   259.51040058
 Au    10   6   3     5.249657038387   112.09150766     3.51788761
 Au     2   1   3     5.324890732024    81.12600936    94.33082538
 Au     8   4   3     5.237760558605   165.00627733   333.61041347
 Au    14   2   1     5.199143989942   117.66517832   316.93462483
 Fe     1   2   3     4.934205712124    57.88461968   323.38551579

---------------------
BASIS SET INFORMATION
---------------------
There are 2 groups of distinct atoms

 Group   1 Type Au  : 8s7p6d1f contracted to 6s4p3d1f pattern {311111/4111/411/1}
 Group   2 Type Fe  : 17s11p7d1f contracted to 6s4p4d1f pattern {842111/6311/4111/1}

Atom   0Au   basis set group =>   1
Atom   1Au   basis set group =>   1
Atom   2Au   basis set group =>   1
Atom   3Au   basis set group =>   1
Atom   4Au   basis set group =>   1
Atom   5Au   basis set group =>   1
Atom   6Au   basis set group =>   1
Atom   7Au   basis set group =>   1
Atom   8Au   basis set group =>   1
Atom   9Au   basis set group =>   1
Atom  10Au   basis set group =>   1
Atom  11Au   basis set group =>   1
Atom  12Au   basis set group =>   1
Atom  13Au   basis set group =>   1
Atom  14Au   basis set group =>   1
Atom  15Au   basis set group =>   1
Atom  16Fe   basis set group =>   2
---------------------------------
AUXILIARY/J BASIS SET INFORMATION
---------------------------------
There are 2 groups of distinct atoms

 Group   1 Type Au  : 11s5p5d3f3g contracted to 8s5p5d2f3g pattern {41111111/11111/11111/21/111}
 Group   2 Type Fe  : 19s5p5d3f3g contracted to 8s5p5d2f3g pattern {121111111/11111/11111/21/111}

Atom   0Au   basis set group =>   1
Atom   1Au   basis set group =>   1
Atom   2Au   basis set group =>   1
Atom   3Au   basis set group =>   1
Atom   4Au   basis set group =>   1
Atom   5Au   basis set group =>   1
Atom   6Au   basis set group =>   1
Atom   7Au   basis set group =>   1
Atom   8Au   basis set group =>   1
Atom   9Au   basis set group =>   1
Atom  10Au   basis set group =>   1
Atom  11Au   basis set group =>   1
Atom  12Au   basis set group =>   1
Atom  13Au   basis set group =>   1
Atom  14Au   basis set group =>   1
Atom  15Au   basis set group =>   1
Atom  16Fe   basis set group =>   2
-------------------------
ECP PARAMETER INFORMATION
-------------------------

 Group 1, Type Au ECP Def2-ECP (replacing 60 core electrons, lmax=3)

Atom   0Au   ECP group =>   1
Atom   1Au   ECP group =>   1
Atom   2Au   ECP group =>   1
Atom   3Au   ECP group =>   1
Atom   4Au   ECP group =>   1
Atom   5Au   ECP group =>   1
Atom   6Au   ECP group =>   1
Atom   7Au   ECP group =>   1
Atom   8Au   ECP group =>   1
Atom   9Au   ECP group =>   1
Atom  10Au   ECP group =>   1
Atom  11Au   ECP group =>   1
Atom  12Au   ECP group =>   1
Atom  13Au   ECP group =>   1
Atom  14Au   ECP group =>   1
Atom  15Au   ECP group =>   1


Checking for AutoStart:
The File: scan.gbw exists
Trying to determine its content:
     ... Fine, the file contains calculation information
     ... Fine, the calculation information was read
     ... Fine, the file contains a basis set
     ... Fine, the basis set was read
     ... Fine, the file contains ECP parameters
     ... Fine, ECP parameters were read
     ... Fine, the file contains a geometry
     ... Fine, the geometry was read
     ... Fine, the file contains a set of orbitals
     ... Fine, the orbitals can be read
     => possible old guess file was deleted
     => GBW file was renamed to GES file
     => GES file is set as startup file
     => Guess is set to MORead
     ... now leaving AutoStart



           ************************************************************
           *        Program running with 6 parallel MPI-processes     *
           *              working on a common directory               *
           ************************************************************
------------------------------------------------------------------------------
                           ORCA GTO INTEGRAL CALCULATION
                           -- RI-GTO INTEGRALS CHOSEN --
------------------------------------------------------------------------------
------------------------------------------------------------------------------
                   ___                                                        
                  /   \      - P O W E R E D   B Y -                         
                 /     \                                                     
                 |  |  |   _    _      __       _____    __    __             
                 |  |  |  | |  | |    /  \     |  _  \  |  |  /  |          
                  \  \/   | |  | |   /    \    | | | |  |  | /  /          
                 / \  \   | |__| |  /  /\  \   | |_| |  |  |/  /          
                |  |  |   |  __  | /  /__\  \  |    /   |      \           
                |  |  |   | |  | | |   __   |  |    \   |  |\   \          
                \     /   | |  | | |  |  |  |  | |\  \  |  | \   \       
                 \___/    |_|  |_| |__|  |__|  |_| \__\ |__|  \__/        
                                                                              
                      - O R C A' S   B I G   F R I E N D -                    
                                      &                                       
                       - I N T E G R A L  F E E D E R -                       
                                                                              
 v1 FN, 2020, v2 2021                                                         
------------------------------------------------------------------------------


Reading SHARK input file scan.SHARKINP.tmp ... ok
----------------------
SHARK INTEGRAL PACKAGE
----------------------

Number of atoms                             ...     17
Number of basis functions                   ...    685
Number of shells                            ...    239
Maximum angular momentum                    ...      3
Integral batch strategy                     ... SHARK/LIBINT Hybrid
RI-J (if used) integral strategy            ... SPLIT-RIJ (Revised 2003 algorithm where possible)
Printlevel                                  ...      1
Contraction scheme used                     ... SEGMENTED contraction
Coulomb Range Separation                    ... NOT USED
Exchange Range Separation                   ... NOT USED
Finite Nucleus Model                        ... NOT USED
Auxiliary Coulomb fitting basis             ... AVAILABLE
   # of basis functions in Aux-J            ...   1513
   # of shells in Aux-J                     ...    391
   Maximum angular momentum in Aux-J        ...      4
Auxiliary J/K fitting basis                 ... NOT available
Auxiliary Correlation fitting basis         ... NOT available
Auxiliary 'external' fitting basis          ... NOT available
Integral threshold                          ...     1.000000e-10
Primitive cut-off                           ...     1.000000e-11
Primitive pair pre-selection threshold      ...     1.000000e-11

Calculating pre-screening integrals         ... done (  0.1 sec) Dimension = 239
Organizing shell pair data                  ... done (  0.4 sec)
Shell pair information
Total number of shell pairs                 ...     28680
Shell pairs after pre-screening             ...     22217
Total number of primitive shell pairs       ...     75765
Primitive shell pairs kept                  ...     42029
          la=0 lb=0:   3517 shell pairs
          la=1 lb=0:   5063 shell pairs
          la=1 lb=1:   1909 shell pairs
          la=2 lb=0:   4409 shell pairs
          la=2 lb=1:   3128 shell pairs
          la=2 lb=2:   1288 shell pairs
          la=3 lb=0:   1137 shell pairs
          la=3 lb=1:    874 shell pairs
          la=3 lb=2:    776 shell pairs
          la=3 lb=3:    116 shell pairs

Calculating one electron integrals          ... done (  0.0 sec)
Calculating ECP integrals                   ... done ( 11.7 sec)
Calculating RI/J V-Matrix + Cholesky decomp.... done (  0.1 sec)
Calculating Nuclear repulsion               ... done (  0.0 sec) ENN=   7069.488583770011 Eh

SHARK setup successfully completed in  12.6 seconds

Maximum memory used throughout the entire GTOINT-calculation: 41.0 MB


           ************************************************************
           *        Program running with 6 parallel MPI-processes     *
           *              working on a common directory               *
           ************************************************************
-------------------------------------------------------------------------------
                                 ORCA SCF
-------------------------------------------------------------------------------

------------
SCF SETTINGS
------------
Hamiltonian:
 Density Functional     Method          .... DFT(GTOs)
  Functional kind                       .... Exchange
  Functional name                       .... Re-regularized SCAN exchange by Furness et al
  Functional family                     .... MGGA
  Functional refs                              
    [ 0] J. W. Furness, A. D. Kaplan, J. Ning, J. P. Perdew, and J. Sun, J. Phys. Chem. Lett. 11, 8208 (2020)
    [ 1] J. W. Furness, A. D. Kaplan, J. Ning, J. P. Perdew, and J. Sun, J. Phys. Chem. Lett. 11, 9248 (2020)
  Functional external parameters         .... 8
 Parameter  0 :         c1 parameter
 Parameter  1 :         c2 parameter
 Parameter  2 :          d parameter
 Parameter  3 :         k1 parameter
 Parameter  4 :       taur parameter
 Parameter  5 :     alphar parameter
 Parameter  6 :        eta parameter
 Parameter  7 :        dp2 parameter
  Functional kind                       .... Correlation
  Functional name                       .... Re-regularized SCAN correlation by Furness et al
  Functional family                     .... MGGA
  Functional refs                              
    [ 0] J. W. Furness, A. D. Kaplan, J. Ning, J. P. Perdew, and J. Sun, J. Phys. Chem. Lett. 11, 8208 (2020)
    [ 1] J. W. Furness, A. D. Kaplan, J. Ning, J. P. Perdew, and J. Sun, J. Phys. Chem. Lett. 11, 9248 (2020)
  Functional external parameters         .... 0
 Gradients option       PostSCFGGA      .... off
   Density functional embedding theory  .... OFF
   NL short-range parameter             .... 12.300000
 RI-approximation to the Coulomb term is turned on
   Number of AuxJ basis functions       .... 1513


General Settings:
 Integral files         IntName         .... scan
 Hartree-Fock type      HFTyp           .... UHF
 Total Charge           Charge          ....    0
 Multiplicity           Mult            ....    5
 Number of Electrons    NEL             ....  330
 Basis Dimension        Dim             ....  685
 Nuclear Repulsion      ENuc            ....   7069.4885837700 Eh

Convergence Acceleration:
 DIIS                   CNVDIIS         .... off
 Trust-Rad. Augm. Hess. CNVTRAH         .... auto
   Auto Start mean grad. ratio tolernc. ....  1.125000
   Auto Start start iteration           ....     1
   Auto Start num. interpolation iter.  ....    10
   Max. Number of Micro iterations      ....    16
   Max. Number of Macro iterations      .... Maxiter - #DIIS iter
   Number of Davidson start vectors     ....     2
   Converg. threshold I  (grad. norm)   ....   5.000e-05
   Converg. threshold II (energy diff.) ....   1.000e-06
   Grad. Scal. Fac. for Micro threshold ....   0.100
   Minimum threshold for Micro iter.    ....   0.010
   NR start threshold (gradient norm)   ....   0.001
   Initial trust radius                 ....   0.400
   Minimum AH scaling param. (alpha)    ....   1.000
   Maximum AH scaling param. (alpha)    .... 1000.000
   Orbital update algorithm             .... Taylor
   White noise on init. David. guess    .... on
   Maximum white noise                  ....   0.010
   Quad. conv. algorithm                .... NR
 SOSCF                  CNVSOSCF        .... off
 Level Shifting         CNVShift        .... off
 Zerner damping         CNVZerner       .... off
 Static damping         CNVDamp         .... off
 Fernandez-Rico         CNVRico         .... off

SCF Procedure:
 Maximum # iterations   MaxIter         ....   400
 SCF integral mode      SCFMode         .... Direct
   Integral package                     .... SHARK and LIBINT hybrid scheme
 Reset frequency        DirectResetFreq ....    20
 Integral Threshold     Thresh          ....  1.000e-10 Eh
 Primitive CutOff       TCut            ....  1.000e-11 Eh

Convergence Tolerance:
 Convergence Check Mode ConvCheckMode   .... All-Criteria
 Convergence forced     ConvForced      .... 0
 Energy Change          TolE            ....  1.000e-06 Eh
 Max Density Change     TolMaxP         ....  1.000e-05
 RMS Density Change     TolRMSP         ....  1.000e-06


Diagonalization of the overlap matrix:
Smallest eigenvalue                        ... 3.206e-04
Time for diagonalization                   ...    0.054 sec
Threshold for overlap eigenvalues          ... 1.000e-08
Number of eigenvalues below threshold      ... 0
Time for construction of square roots      ...    0.042 sec
Total time needed                          ...    0.097 sec

---------------------
INITIAL GUESS: MOREAD
---------------------
Guess MOs are being read from file: scan.ges
Input Geometry matches current geometry (good)
Input basis set matches current basis set (good)
MOs were renormalized
MOs were reorthogonalized (Cholesky)
                      ------------------
                      INITIAL GUESS DONE (   0.3 sec)
                      ------------------
-------------------
DFT GRID GENERATION
-------------------

General Integration Accuracy     IntAcc      ... 4.388
Radial Grid Type                 RadialGrid  ... OptM3 with GC (2021)
Angular Grid (max. ang.)         AngularGrid ... 4 (Lebedev-302)
Angular grid pruning method      GridPruning ... 4 (adaptive)
Weight generation scheme         WeightScheme... Becke
Basis function cutoff            BFCut       ... 1.0000e-10
Integration weight cutoff        WCut        ... 1.0000e-14
Angular grids for H and He will be reduced by one unit
Partially contracted basis set               ... off
Rotationally invariant grid construction     ... off

Total number of grid points                  ...   186876
Total number of batches                      ...     2927
Average number of points per batch           ...       63
Average number of grid points per atom       ...    10993
Time for grid setup =    1.509 sec

--------------
SCF ITERATIONS
--------------
ITER       Energy         Delta-E        Max-DP      RMS-DP      [F,P]   Gradient Norm
               ***  Starting incremental Fock matrix formation  ***
                             ****Resetting KDIIS****
                             ****Turning on KDIIS(Cayley)****
  0  -3437.2948017242   0.000000000000 0.00004878  0.00000036  0.0004102   0.000084000
                           ***RMSP convergence achieved***
  1  -3437.2948004194   0.000001304822 0.00011291  0.00000044  0.0003700   0.000066740
                          ***Energy convergence achieved***
  2  -3437.2948001239   0.000000295419 0.00017746  0.00000086  0.0002962   0.000054741
  3  -3437.2947993285   0.000000795476 0.00030629  0.00000209  0.0001805   0.000036874
  4  -3437.2947980276   0.000001300829 0.00024981  0.00000145  0.0001003   0.000013608
                          ***Energy convergence achieved***
                           ***RMSP convergence achieved***
  5  -3437.2947976691   0.000000358584 0.00010644  0.00000086  0.0000814   0.000016149
  6  -3437.2947984693  -0.000000800201 0.00012209  0.00000069  0.0000842   0.000019235
  7  -3437.2947972425   0.000001226710 0.00018762  0.00000115  0.0000658   0.000012830
                          ***Energy convergence achieved***
  8  -3437.2947976549  -0.000000412343 0.00020792  0.00000115  0.0000712   0.000011487
                           ***RMSP convergence achieved***
  9  -3437.2947971026   0.000000552313 0.00013830  0.00000060  0.0000702   0.000007185

            ***Energy convergence in two consecutive cycles with***
                    ***'reasonable' density convergence***
                       *** signaling convergence ***

                    *** KDIIS BlockDiag ( 0.145 sec) ***

               *****************************************************
               *                     SUCCESS                       *
               *           SCF CONVERGED AFTER  10 CYCLES          *
               *****************************************************


----------------
TOTAL SCF ENERGY
----------------

Total Energy       :        -3437.29479736 Eh          -93533.54659 eV

Components:
Nuclear Repulsion  :         7069.48858377 Eh          192370.56429 eV
Electronic Energy  :       -10506.78338113 Eh         -285904.11088 eV
One Electron Energy:       -19693.49108757 Eh         -535887.13647 eV
Two Electron Energy:         9186.70770644 Eh          249983.02558 eV

Virial components:
Potential Energy   :        -5433.05672500 Eh         -147840.98958 eV
Kinetic Energy     :         1995.76192764 Eh           54307.44299 eV
Virial Ratio       :            2.72229701


DFT components:
N(Alpha)           :      166.999962582157 electrons
N(Beta)            :      162.999962829005 electrons
N(Total)           :      329.999925411162 electrons
E(X)               :     -248.843722653776 Eh       
E(C)               :      -13.717681540407 Eh       
E(XC)              :     -262.561404194183 Eh       
DFET-embed. en.    :        0.000000000000 Eh       

---------------
SCF CONVERGENCE
---------------

  Last Energy change         ...   -2.6087e-07  Tolerance :   1.0000e-06
  Last MAX-Density change    ...    9.9833e-05  Tolerance :   1.0000e-05
  Last RMS-Density change    ...    5.4466e-07  Tolerance :   1.0000e-06

             **** THE GBW FILE WAS UPDATED (scan.gbw) ****
             **** DENSITY scan.scfp WAS UPDATED ****
             **** ENERGY FILE WAS UPDATED (scan.en.tmp) ****
----------------------
UHF SPIN CONTAMINATION
----------------------

Warning: in a DFT calculation there is little theoretical justification to 
         calculate <S**2> as in Hartree-Fock theory. We will do it anyways
         but you should keep in mind that the values have only limited relevance

Expectation value of <S**2>     :     6.066394
Ideal value S*(S+1) for S=2.0   :     6.000000
Deviation                       :     0.066394

             **** THE GBW FILE WAS UPDATED (scan.gbw) ****
             **** DENSITY scan.scfp WAS UPDATED ****
----------------
ORBITAL ENERGIES
----------------
                 SPIN UP ORBITALS
  NO   OCC          E(Eh)            E(eV) 
   0   1.0000    -255.642060     -6956.3741 
   1   1.0000     -29.940180      -814.7137 
   2   1.0000     -25.777348      -701.4373 
   3   1.0000     -25.774792      -701.3677 
   4   1.0000     -25.758703      -700.9299 
   5   1.0000      -4.128624      -112.3456 
   6   1.0000      -4.128515      -112.3426 
   7   1.0000      -4.127739      -112.3215 
   8   1.0000      -4.124872      -112.2435 
   9   1.0000      -4.124025      -112.2204 
  10   1.0000      -4.123725      -112.2123 
  11   1.0000      -4.121833      -112.1608 
  12   1.0000      -4.121119      -112.1414 
  13   1.0000      -4.120981      -112.1376 
  14   1.0000      -4.117199      -112.0347 
  15   1.0000      -4.116788      -112.0235 
  16   1.0000      -4.116761      -112.0228 
  17   1.0000      -4.114956      -111.9737 
  18   1.0000      -4.112474      -111.9061 
  19   1.0000      -4.110718      -111.8583 
  20   1.0000      -4.108680      -111.8029 
  21   1.0000      -3.522244       -95.8451 
  22   1.0000      -2.317670       -63.0670 
  23   1.0000      -2.317038       -63.0498 
  24   1.0000      -2.316253       -63.0285 
  25   1.0000      -2.314538       -62.9818 
  26   1.0000      -2.314313       -62.9757 
  27   1.0000      -2.313925       -62.9651 
  28   1.0000      -2.313279       -62.9475 
  29   1.0000      -2.312748       -62.9331 
  30   1.0000      -2.312424       -62.9242 
  31   1.0000      -2.312153       -62.9169 
  32   1.0000      -2.311895       -62.9098 
  33   1.0000      -2.311446       -62.8976 
  34   1.0000      -2.310421       -62.8698 
  35   1.0000      -2.310232       -62.8646 
  36   1.0000      -2.309915       -62.8560 
  37   1.0000      -2.309081       -62.8333 
  38   1.0000      -2.308620       -62.8207 
  39   1.0000      -2.308235       -62.8103 
  40   1.0000      -2.308054       -62.8054 
  41   1.0000      -2.307398       -62.7875 
  42   1.0000      -2.307055       -62.7782 
  43   1.0000      -2.306589       -62.7655 
  44   1.0000      -2.306054       -62.7509 
  45   1.0000      -2.305755       -62.7428 
  46   1.0000      -2.305717       -62.7417 
  47   1.0000      -2.305094       -62.7248 
  48   1.0000      -2.304773       -62.7161 
  49   1.0000      -2.304401       -62.7059 
  50   1.0000      -2.304108       -62.6980 
  51   1.0000      -2.303946       -62.6936 
  52   1.0000      -2.303291       -62.6757 
  53   1.0000      -2.302306       -62.6489 
  54   1.0000      -2.301946       -62.6391 
  55   1.0000      -2.301865       -62.6369 
  56   1.0000      -2.301566       -62.6288 
  57   1.0000      -2.301250       -62.6202 
  58   1.0000      -2.300724       -62.6059 
  59   1.0000      -2.300293       -62.5942 
  60   1.0000      -2.300237       -62.5926 
  61   1.0000      -2.300202       -62.5917 
  62   1.0000      -2.299535       -62.5735 
  63   1.0000      -2.297948       -62.5304 
  64   1.0000      -2.297538       -62.5192 
  65   1.0000      -2.296942       -62.5030 
  66   1.0000      -2.296499       -62.4909 
  67   1.0000      -2.296331       -62.4863 
  68   1.0000      -2.295261       -62.4572 
  69   1.0000      -2.293723       -62.4154 
  70   1.0000      -2.293172       -62.4004 
  71   1.0000      -2.291214       -62.3471 
  72   1.0000      -2.262501       -61.5658 
  73   1.0000      -0.442587       -12.0434 
  74   1.0000      -0.404019       -10.9939 
  75   1.0000      -0.399000       -10.8573 
  76   1.0000      -0.397411       -10.8141 
  77   1.0000      -0.395679       -10.7670 
  78   1.0000      -0.389286       -10.5930 
  79   1.0000      -0.383546       -10.4368 
  80   1.0000      -0.379588       -10.3291 
  81   1.0000      -0.378075       -10.2879 
  82   1.0000      -0.374641       -10.1945 
  83   1.0000      -0.374034       -10.1780 
  84   1.0000      -0.372000       -10.1226 
  85   1.0000      -0.369811       -10.0631 
  86   1.0000      -0.368754       -10.0343 
  87   1.0000      -0.365814        -9.9543 
  88   1.0000      -0.363043        -9.8789 
  89   1.0000      -0.361453        -9.8356 
  90   1.0000      -0.359996        -9.7960 
  91   1.0000      -0.357557        -9.7296 
  92   1.0000      -0.356355        -9.6969 
  93   1.0000      -0.354897        -9.6572 
  94   1.0000      -0.353668        -9.6238 
  95   1.0000      -0.351932        -9.5765 
  96   1.0000      -0.350635        -9.5413 
  97   1.0000      -0.349681        -9.5153 
  98   1.0000      -0.347864        -9.4658 
  99   1.0000      -0.345273        -9.3953 
 100   1.0000      -0.339309        -9.2331 
 101   1.0000      -0.339092        -9.2272 
 102   1.0000      -0.336364        -9.1529 
 103   1.0000      -0.335108        -9.1187 
 104   1.0000      -0.334325        -9.0974 
 105   1.0000      -0.331148        -9.0110 
 106   1.0000      -0.329174        -8.9573 
 107   1.0000      -0.326556        -8.8860 
 108   1.0000      -0.325377        -8.8540 
 109   1.0000      -0.322994        -8.7891 
 110   1.0000      -0.320098        -8.7103 
 111   1.0000      -0.319141        -8.6843 
 112   1.0000      -0.317303        -8.6342 
 113   1.0000      -0.316724        -8.6185 
 114   1.0000      -0.313580        -8.5330 
 115   1.0000      -0.311180        -8.4676 
 116   1.0000      -0.309412        -8.4195 
 117   1.0000      -0.307662        -8.3719 
 118   1.0000      -0.305563        -8.3148 
 119   1.0000      -0.303646        -8.2626 
 120   1.0000      -0.301349        -8.2001 
 121   1.0000      -0.298232        -8.1153 
 122   1.0000      -0.296130        -8.0581 
 123   1.0000      -0.292383        -7.9562 
 124   1.0000      -0.291283        -7.9262 
 125   1.0000      -0.289608        -7.8806 
 126   1.0000      -0.288297        -7.8450 
 127   1.0000      -0.286498        -7.7960 
 128   1.0000      -0.285554        -7.7703 
 129   1.0000      -0.284245        -7.7347 
 130   1.0000      -0.282237        -7.6801 
 131   1.0000      -0.281742        -7.6666 
 132   1.0000      -0.280736        -7.6392 
 133   1.0000      -0.279258        -7.5990 
 134   1.0000      -0.277328        -7.5465 
 135   1.0000      -0.276030        -7.5112 
 136   1.0000      -0.273252        -7.4356 
 137   1.0000      -0.272341        -7.4108 
 138   1.0000      -0.271922        -7.3994 
 139   1.0000      -0.271429        -7.3860 
 140   1.0000      -0.269967        -7.3462 
 141   1.0000      -0.269661        -7.3378 
 142   1.0000      -0.267769        -7.2864 
 143   1.0000      -0.266676        -7.2566 
 144   1.0000      -0.266028        -7.2390 
 145   1.0000      -0.266016        -7.2387 
 146   1.0000      -0.264963        -7.2100 
 147   1.0000      -0.264468        -7.1965 
 148   1.0000      -0.261099        -7.1049 
 149   1.0000      -0.260237        -7.0814 
 150   1.0000      -0.258592        -7.0366 
 151   1.0000      -0.257831        -7.0159 
 152   1.0000      -0.256816        -6.9883 
 153   1.0000      -0.256106        -6.9690 
 154   1.0000      -0.255030        -6.9397 
 155   1.0000      -0.254559        -6.9269 
 156   1.0000      -0.252248        -6.8640 
 157   1.0000      -0.250768        -6.8237 
 158   1.0000      -0.249890        -6.7999 
 159   1.0000      -0.247350        -6.7307 
 160   1.0000      -0.245967        -6.6931 
 161   1.0000      -0.241840        -6.5808 
 162   1.0000      -0.226266        -6.1570 
 163   1.0000      -0.218786        -5.9535 
 164   1.0000      -0.214600        -5.8396 
 165   1.0000      -0.210021        -5.7150 
 166   1.0000      -0.194968        -5.3054 
 167   0.0000      -0.151887        -4.1331 
 168   0.0000      -0.149299        -4.0626 
 169   0.0000      -0.141061        -3.8385 
 170   0.0000      -0.135212        -3.6793 
 171   0.0000      -0.125507        -3.4152 
 172   0.0000      -0.121454        -3.3049 
 173   0.0000      -0.105798        -2.8789 
 174   0.0000      -0.099499        -2.7075 
 175   0.0000      -0.071729        -1.9518 
 176   0.0000      -0.068826        -1.8728 
 177   0.0000      -0.059877        -1.6293 
 178   0.0000      -0.042811        -1.1650 
 179   0.0000      -0.041159        -1.1200 
 180   0.0000      -0.034672        -0.9435 
 181   0.0000      -0.029454        -0.8015 
 182   0.0000      -0.026633        -0.7247 
 183   0.0000      -0.013562        -0.3690 
 184   0.0000      -0.011655        -0.3171 
 185   0.0000      -0.003144        -0.0856 
 186   0.0000       0.000599         0.0163 
 187   0.0000       0.006901         0.1878 
 188   0.0000       0.014235         0.3874 
 189   0.0000       0.023614         0.6426 
 190   0.0000       0.031834         0.8663 
 191   0.0000       0.042517         1.1569 
 192   0.0000       0.050092         1.3631 
 193   0.0000       0.058637         1.5956 
 194   0.0000       0.062808         1.7091 
 195   0.0000       0.064240         1.7481 
 196   0.0000       0.068609         1.8669 
 197   0.0000       0.071519         1.9461 
 198   0.0000       0.072671         1.9775 
 199   0.0000       0.075424         2.0524 
 200   0.0000       0.076291         2.0760 
 201   0.0000       0.081387         2.2147 
 202   0.0000       0.082921         2.2564 
 203   0.0000       0.087997         2.3945 
 204   0.0000       0.089952         2.4477 
 205   0.0000       0.092847         2.5265 
 206   0.0000       0.096352         2.6219 
 207   0.0000       0.098698         2.6857 
 208   0.0000       0.101578         2.7641 
 209   0.0000       0.107161         2.9160 
 210   0.0000       0.112869         3.0713 
 211   0.0000       0.123134         3.3506 
 212   0.0000       0.127226         3.4620 
 213   0.0000       0.128765         3.5039 
 214   0.0000       0.136568         3.7162 
 215   0.0000       0.144627         3.9355 
 216   0.0000       0.148327         4.0362 
 217   0.0000       0.153590         4.1794 
 218   0.0000       0.159838         4.3494 
 219   0.0000       0.162015         4.4086 
 220   0.0000       0.163701         4.4545 
 221   0.0000       0.166745         4.5374 
 222   0.0000       0.168992         4.5985 
 223   0.0000       0.173683         4.7262 
 224   0.0000       0.176346         4.7986 
 225   0.0000       0.178892         4.8679 
 226   0.0000       0.183367         4.9897 
 227   0.0000       0.185383         5.0445 
 228   0.0000       0.189567         5.1584 
 229   0.0000       0.195277         5.3138 
 230   0.0000       0.202646         5.5143 
 231   0.0000       0.205038         5.5794 
 232   0.0000       0.208751         5.6804 
 233   0.0000       0.217608         5.9214 
 234   0.0000       0.220937         6.0120 
 235   0.0000       0.224518         6.1094 
 236   0.0000       0.226865         6.1733 
 237   0.0000       0.228822         6.2266 
 238   0.0000       0.235407         6.4057 
 239   0.0000       0.239021         6.5041 
 240   0.0000       0.243756         6.6330 
 241   0.0000       0.249317         6.7842 
 242   0.0000       0.255678         6.9573 
 243   0.0000       0.256517         6.9802 
 244   0.0000       0.259926         7.0729 
 245   0.0000       0.261898         7.1266 
 246   0.0000       0.264618         7.2006 
 247   0.0000       0.269296         7.3279 
 248   0.0000       0.274806         7.4778 
 249   0.0000       0.289477         7.8771 
 250   0.0000       0.292087         7.9481 
 251   0.0000       0.298447         8.1211 
 252   0.0000       0.300063         8.1651 
 253   0.0000       0.303993         8.2721 
 254   0.0000       0.310752         8.4560 
 255   0.0000       0.312414         8.5012 
 256   0.0000       0.318721         8.6728 
 257   0.0000       0.320506         8.7214 
 258   0.0000       0.323015         8.7897 
 259   0.0000       0.331942         9.0326 
 260   0.0000       0.334720         9.1082 
 261   0.0000       0.335605         9.1323 
 262   0.0000       0.338608         9.2140 
 263   0.0000       0.341385         9.2896 
 264   0.0000       0.345938         9.4135 
 265   0.0000       0.350728         9.5438 
 266   0.0000       0.351934         9.5766 
 267   0.0000       0.354620         9.6497 
 268   0.0000       0.357531         9.7289 
 269   0.0000       0.366870         9.9830 
 270   0.0000       0.367215         9.9924 
 271   0.0000       0.375015        10.2047 
 272   0.0000       0.380994        10.3674 
 273   0.0000       0.382893        10.4190 
 274   0.0000       0.389861        10.6087 
 275   0.0000       0.392084        10.6691 
 276   0.0000       0.395700        10.7676 
 277   0.0000       0.397084        10.8052 
 278   0.0000       0.403917        10.9912 
 279   0.0000       0.406777        11.0690 
 280   0.0000       0.412370        11.2212 
 281   0.0000       0.415030        11.2935 
 282   0.0000       0.424328        11.5466 
 283   0.0000       0.427785        11.6406 
 284   0.0000       0.430103        11.7037 
 285   0.0000       0.432498        11.7689 
 286   0.0000       0.448598        12.2070 
 287   0.0000       0.450776        12.2663 
 288   0.0000       0.452794        12.3211 
 289   0.0000       0.458886        12.4869 
 290   0.0000       0.464788        12.6475 
 291   0.0000       0.471416        12.8279 
 292   0.0000       0.474988        12.9251 
 293   0.0000       0.477850        13.0030 
 294   0.0000       0.481813        13.1108 
 295   0.0000       0.482403        13.1269 
 296   0.0000       0.488055        13.2806 
 297   0.0000       0.489246        13.3131 
 298   0.0000       0.492320        13.3967 
 299   0.0000       0.497855        13.5473 
 300   0.0000       0.499871        13.6022 
 301   0.0000       0.504893        13.7388 
 302   0.0000       0.507239        13.8027 
 303   0.0000       0.509328        13.8595 
 304   0.0000       0.513811        13.9815 
 305   0.0000       0.516612        14.0577 
 306   0.0000       0.521080        14.1793 
 307   0.0000       0.526251        14.3200 
 308   0.0000       0.527695        14.3593 
 309   0.0000       0.532515        14.4905 
 310   0.0000       0.533237        14.5101 
 311   0.0000       0.536181        14.5902 
 312   0.0000       0.540598        14.7104 
 313   0.0000       0.544740        14.8231 
 314   0.0000       0.551422        15.0050 
 315   0.0000       0.554166        15.0796 
 316   0.0000       0.557761        15.1775 
 317   0.0000       0.558241        15.1905 
 318   0.0000       0.567929        15.4541 
 319   0.0000       0.571760        15.5584 
 320   0.0000       0.574746        15.6396 
 321   0.0000       0.576788        15.6952 
 322   0.0000       0.580977        15.8092 
 323   0.0000       0.582933        15.8624 
 324   0.0000       0.610480        16.6120 
 325   0.0000       0.612740        16.6735 
 326   0.0000       0.626323        17.0431 
 327   0.0000       0.632251        17.2044 
 328   0.0000       0.690111        18.7789 
 329   0.0000       0.697819        18.9886 
 330   0.0000       0.704138        19.1606 
 331   0.0000       0.719625        19.5820 
 332   0.0000       0.724281        19.7087 
 333   0.0000       0.732715        19.9382 
 334   0.0000       0.736334        20.0367 
 335   0.0000       0.750133        20.4122 
 336   0.0000       0.753565        20.5055 
 337   0.0000       0.770267        20.9600 
 338   0.0000       0.775757        21.1094 
 339   0.0000       0.783113        21.3096 
 340   0.0000       0.792473        21.5643 
 341   0.0000       0.798000        21.7147 
 342   0.0000       0.803079        21.8529 
 343   0.0000       0.806542        21.9471 
 344   0.0000       0.811210        22.0742 
 345   0.0000       0.819791        22.3077 
 346   0.0000       0.830183        22.5904 
 347   0.0000       0.835274        22.7290 
 348   0.0000       0.842071        22.9139 
 349   0.0000       0.844904        22.9910 
 350   0.0000       0.851278        23.1644 
 351   0.0000       0.859798        23.3963 
 352   0.0000       0.868439        23.6314 
 353   0.0000       0.873132        23.7591 
 354   0.0000       0.890983        24.2449 
 355   0.0000       0.897378        24.4189 
 356   0.0000       0.917886        24.9770 
 357   0.0000       0.922499        25.1025 
 358   0.0000       0.929778        25.3006 
 359   0.0000       0.931755        25.3543 
 360   0.0000       0.940680        25.5972 
 361   0.0000       0.945756        25.7353 
 362   0.0000       0.950237        25.8573 
 363   0.0000       0.962596        26.1936 
 364   0.0000       0.967417        26.3248 
 365   0.0000       0.974836        26.5266 
 366   0.0000       0.976909        26.5831 
 367   0.0000       0.992454        27.0061 
 368   0.0000       1.005009        27.3477 
 369   0.0000       1.008432        27.4408 
 370   0.0000       1.020254        27.7625 
 371   0.0000       1.026794        27.9405 
 372   0.0000       1.042474        28.3671 
 373   0.0000       1.046942        28.4887 
 374   0.0000       1.056681        28.7537 
 375   0.0000       1.109878        30.2013 
 376   0.0000       1.136740        30.9323 
 377   0.0000       1.165167        31.7058 
 378   0.0000       1.186444        32.2848 
 379   0.0000       1.228212        33.4214 
 380   0.0000       1.248983        33.9865 
 381   0.0000       1.266067        34.4514 
 382   0.0000       1.269160        34.5356 
 383   0.0000       1.277994        34.7760 
 384   0.0000       1.292637        35.1744 
 385   0.0000       1.297277        35.3007 
 386   0.0000       1.314963        35.7820 
 387   0.0000       1.327237        36.1160 
 388   0.0000       1.336372        36.3645 
 389   0.0000       1.338342        36.4181 
 390   0.0000       1.350845        36.7583 
 391   0.0000       1.352420        36.8012 
 392   0.0000       1.360833        37.0302 
 393   0.0000       1.363401        37.1000 
 394   0.0000       1.366953        37.1967 
 395   0.0000       1.375612        37.4323 
 396   0.0000       1.378754        37.5178 
 397   0.0000       1.381180        37.5838 
 398   0.0000       1.386609        37.7315 
 399   0.0000       1.391538        37.8657 
 400   0.0000       1.397077        38.0164 
 401   0.0000       1.406068        38.2610 
 402   0.0000       1.416498        38.5449 
 403   0.0000       1.421061        38.6690 
 404   0.0000       1.425889        38.8004 
 405   0.0000       1.435327        39.0572 
 406   0.0000       1.441218        39.2175 
 407   0.0000       1.445390        39.3311 
 408   0.0000       1.449838        39.4521 
 409   0.0000       1.455270        39.5999 
 410   0.0000       1.457396        39.6578 
 411   0.0000       1.459921        39.7265 
 412   0.0000       1.468265        39.9535 
 413   0.0000       1.471527        40.0423 
 414   0.0000       1.475546        40.1517 
 415   0.0000       1.482925        40.3524 
 416   0.0000       1.486225        40.4422 
 417   0.0000       1.489720        40.5373 
 418   0.0000       1.490351        40.5545 
 419   0.0000       1.495527        40.6953 
 420   0.0000       1.497930        40.7608 
 421   0.0000       1.502500        40.8851 
 422   0.0000       1.503557        40.9139 
 423   0.0000       1.505579        40.9689 
 424   0.0000       1.508596        41.0510 
 425   0.0000       1.510862        41.1126 
 426   0.0000       1.513831        41.1934 
 427   0.0000       1.517872        41.3034 
 428   0.0000       1.519457        41.3465 
 429   0.0000       1.523163        41.4474 
 430   0.0000       1.524389        41.4807 
 431   0.0000       1.527588        41.5678 
 432   0.0000       1.530164        41.6379 
 433   0.0000       1.536119        41.7999 
 434   0.0000       1.537193        41.8292 
 435   0.0000       1.539280        41.8859 
 436   0.0000       1.539848        41.9014 
 437   0.0000       1.542380        41.9703 
 438   0.0000       1.544186        42.0194 
 439   0.0000       1.545352        42.0512 
 440   0.0000       1.547323        42.1048 
 441   0.0000       1.548655        42.1410 
 442   0.0000       1.549552        42.1655 
 443   0.0000       1.552755        42.2526 
 444   0.0000       1.553600        42.2756 
 445   0.0000       1.554218        42.2924 
 446   0.0000       1.557211        42.3739 
 447   0.0000       1.557652        42.3859 
 448   0.0000       1.559402        42.4335 
 449   0.0000       1.560374        42.4599 
 450   0.0000       1.561570        42.4925 
 451   0.0000       1.563045        42.5326 
 452   0.0000       1.563513        42.5454 
 453   0.0000       1.564276        42.5661 
 454   0.0000       1.567069        42.6421 
 455   0.0000       1.568606        42.6839 
 456   0.0000       1.569833        42.7173 
 457   0.0000       1.571517        42.7631 
 458   0.0000       1.572432        42.7881 
 459   0.0000       1.573771        42.8245 
 460   0.0000       1.574582        42.8465 
 461   0.0000       1.575776        42.8790 
 462   0.0000       1.576137        42.8889 
 463   0.0000       1.577425        42.9239 
 464   0.0000       1.578354        42.9492 
 465   0.0000       1.579482        42.9799 
 466   0.0000       1.580728        43.0138 
 467   0.0000       1.581618        43.0380 
 468   0.0000       1.582868        43.0720 
 469   0.0000       1.583983        43.1024 
 470   0.0000       1.584756        43.1234 
 471   0.0000       1.586103        43.1601 
 472   0.0000       1.588315        43.2202 
 473   0.0000       1.589478        43.2519 
 474   0.0000       1.592125        43.3239 
 475   0.0000       1.592707        43.3398 
 476   0.0000       1.595888        43.4263 
 477   0.0000       1.597578        43.4723 
 478   0.0000       1.600873        43.5620 
 479   0.0000       1.602596        43.6088 
 480   0.0000       1.603036        43.6208 
 481   0.0000       1.605397        43.6851 
 482   0.0000       1.608574        43.7715 
 483   0.0000       1.609581        43.7989 
 484   0.0000       1.611650        43.8552 
 485   0.0000       1.615139        43.9502 
 486   0.0000       1.620015        44.0828 
 487   0.0000       1.621338        44.1189 
 488   0.0000       1.622521        44.1510 
 489   0.0000       1.626655        44.2635 
 490   0.0000       1.629000        44.3273 
 491   0.0000       1.629859        44.3507 
 492   0.0000       1.631253        44.3887 
 493   0.0000       1.634050        44.4648 
 494   0.0000       1.635903        44.5152 
 495   0.0000       1.638041        44.5734 
 496   0.0000       1.640013        44.6270 
 497   0.0000       1.643277        44.7158 
 498   0.0000       1.648772        44.8654 
 499   0.0000       1.650720        44.9184 
 500   0.0000       1.651107        44.9289 
 501   0.0000       1.652360        44.9630 
 502   0.0000       1.653669        44.9986 
 503   0.0000       1.656611        45.0787 
 504   0.0000       1.659038        45.1447 
 505   0.0000       1.661501        45.2117 
 506   0.0000       1.665297        45.3150 
 507   0.0000       1.667252        45.3682 
 508   0.0000       1.669746        45.4361 
 509   0.0000       1.670954        45.4690 
 510   0.0000       1.672999        45.5246 
 511   0.0000       1.673514        45.5386 
 512   0.0000       1.677976        45.6600 
 513   0.0000       1.682116        45.7727 
 514   0.0000       1.684022        45.8246 
 515   0.0000       1.687653        45.9234 
 516   0.0000       1.689000        45.9600 
 517   0.0000       1.694774        46.1172 
 518   0.0000       1.697496        46.1912 
 519   0.0000       1.700024        46.2600 
 520   0.0000       1.702466        46.3264 
 521   0.0000       1.705613        46.4121 
 522   0.0000       1.712352        46.5955 
 523   0.0000       1.715974        46.6940 
 524   0.0000       1.721711        46.8501 
 525   0.0000       1.725791        46.9612 
 526   0.0000       1.730168        47.0803 
 527   0.0000       1.736240        47.2455 
 528   0.0000       1.742901        47.4268 
 529   0.0000       1.746470        47.5239 
 530   0.0000       1.752200        47.6798 
 531   0.0000       1.756355        47.7929 
 532   0.0000       1.765611        48.0447 
 533   0.0000       1.775179        48.3051 
 534   0.0000       1.778163        48.3863 
 535   0.0000       1.783090        48.5204 
 536   0.0000       1.786005        48.5997 
 537   0.0000       1.800894        49.0048 
 538   0.0000       1.803245        49.0688 
 539   0.0000       1.806192        49.1490 
 540   0.0000       1.815299        49.3968 
 541   0.0000       1.816268        49.4232 
 542   0.0000       1.835166        49.9374 
 543   0.0000       1.839879        50.0656 
 544   0.0000       1.841835        50.1189 
 545   0.0000       1.847169        50.2640 
 546   0.0000       1.849740        50.3340 
 547   0.0000       1.858622        50.5757 
 548   0.0000       1.869196        50.8634 
 549   0.0000       1.869251        50.8649 
 550   0.0000       1.875202        51.0269 
 551   0.0000       1.878474        51.1159 
 552   0.0000       1.881027        51.1854 
 553   0.0000       1.887798        51.3696 
 554   0.0000       1.892373        51.4941 
 555   0.0000       1.898642        51.6647 
 556   0.0000       1.904123        51.8138 
 557   0.0000       1.910298        51.9818 
 558   0.0000       1.916542        52.1518 
 559   0.0000       1.919844        52.2416 
 560   0.0000       1.923638        52.3448 
 561   0.0000       1.932970        52.5988 
 562   0.0000       1.939903        52.7875 
 563   0.0000       1.952083        53.1189 
 564   0.0000       1.958099        53.2826 
 565   0.0000       1.962457        53.4012 
 566   0.0000       1.973958        53.7141 
 567   0.0000       1.988153        54.1004 
 568   0.0000       1.998106        54.3712 
 569   0.0000       2.027181        55.1624 
 570   0.0000       2.036907        55.4271 
 571   0.0000       2.162815        58.8532 
 572   0.0000       2.233862        60.7865 
 573   0.0000       2.262940        61.5777 
 574   0.0000       2.324350        63.2488 
 575   0.0000       2.365008        64.3552 
 576   0.0000       2.373575        64.5883 
 577   0.0000       2.384200        64.8774 
 578   0.0000       2.479341        67.4663 
 579   0.0000       2.499758        68.0219 
 580   0.0000       2.524716        68.7010 
 581   0.0000       2.542479        69.1844 
 582   0.0000       2.564050        69.7714 
 583   0.0000       2.565850        69.8203 
 584   0.0000       2.590671        70.4957 
 585   0.0000       2.610871        71.0454 
 586   0.0000       2.623573        71.3910 
 587   0.0000       2.631536        71.6077 
 588   0.0000       2.654549        72.2340 
 589   0.0000       2.664442        72.5031 
 590   0.0000       2.687000        73.1170 
 591   0.0000       2.728933        74.2580 
 592   0.0000       3.411608        92.8346 
 593   0.0000       3.648054        99.2686 
 594   0.0000       3.757222       102.2392 
 595   0.0000       3.781675       102.9046 
 596   0.0000       3.820454       103.9598 
 597   0.0000       3.844175       104.6053 
 598   0.0000       3.983730       108.4028 
 599   0.0000       3.985921       108.4624 
 600   0.0000       3.987197       108.4971 
 601   0.0000       3.989278       108.5538 
 602   0.0000       4.005618       108.9984 
 603   0.0000       4.016180       109.2858 
 604   0.0000       4.020969       109.4161 
 605   0.0000      24.265617       660.3010 
 606   0.0000      24.340047       662.3264 
 607   0.0000      24.557220       668.2359 
 608   0.0000      24.756900       673.6695 
 609   0.0000      24.787070       674.4905 
 610   0.0000      25.091856       682.7841 
 611   0.0000      25.154773       684.4962 
 612   0.0000      25.241347       686.8520 
 613   0.0000      25.251702       687.1337 
 614   0.0000      25.375676       690.5072 
 615   0.0000      25.486798       693.5310 
 616   0.0000      25.509763       694.1559 
 617   0.0000      25.593886       696.4451 
 618   0.0000      25.663851       698.3489 
 619   0.0000      25.747788       700.6329 
 620   0.0000      25.937094       705.7842 
 621   0.0000      25.979173       706.9292 
 622   0.0000      26.075124       709.5402 
 623   0.0000      26.158550       711.8103 
 624   0.0000      26.229218       713.7333 
 625   0.0000      26.248455       714.2568 
 626   0.0000      26.309412       715.9155 
 627   0.0000      26.417151       718.8472 
 628   0.0000      26.567978       722.9514 
 629   0.0000      26.657729       725.3937 
 630   0.0000      26.734728       727.4889 
 631   0.0000      26.770609       728.4653 
 632   0.0000      26.792202       729.0529 
 633   0.0000      26.942485       733.1423 
 634   0.0000      27.082792       736.9602 
 635   0.0000      27.100770       737.4494 
 636   0.0000      27.188245       739.8297 
 637   0.0000      27.283050       742.4095 
 638   0.0000      27.362134       744.5615 
 639   0.0000      27.476651       747.6777 
 640   0.0000      27.556478       749.8499 
 641   0.0000      27.598881       751.0037 
 642   0.0000      27.747565       755.0496 
 643   0.0000      27.947684       760.4952 
 644   0.0000      28.042785       763.0830 
 645   0.0000      28.140599       765.7446 
 646   0.0000      28.201286       767.3960 
 647   0.0000      28.360989       771.7418 
 648   0.0000      28.570882       777.4532 
 649   0.0000      28.717030       781.4301 
 650   0.0000      29.519234       803.2592 
 651   0.0000      30.317436       824.9794 
 652   0.0000      32.251472       877.6072 
 653   0.0000      44.380872      1207.6649 
 654   0.0000      44.504298      1211.0235 
 655   0.0000      44.528824      1211.6909 
 656   0.0000      44.550374      1212.2773 
 657   0.0000      44.593186      1213.4423 
 658   0.0000      44.623707      1214.2728 
 659   0.0000      44.634205      1214.5585 
 660   0.0000      44.641831      1214.7660 
 661   0.0000      44.653806      1215.0918 
 662   0.0000      44.664096      1215.3718 
 663   0.0000      44.669092      1215.5078 
 664   0.0000      44.671202      1215.5652 
 665   0.0000      44.717118      1216.8146 
 666   0.0000      44.735970      1217.3276 
 667   0.0000      44.743534      1217.5335 
 668   0.0000      44.787057      1218.7178 
 669   0.0000     205.247749      5585.0752 
 670   0.0000     205.297578      5586.4311 
 671   0.0000     205.307249      5586.6943 
 672   0.0000     205.314279      5586.8856 
 673   0.0000     205.334551      5587.4372 
 674   0.0000     205.347461      5587.7885 
 675   0.0000     205.354558      5587.9816 
 676   0.0000     205.357116      5588.0512 
 677   0.0000     205.364339      5588.2478 
 678   0.0000     205.366559      5588.3082 
 679   0.0000     205.369034      5588.3755 
 680   0.0000     205.371399      5588.4399 
 681   0.0000     205.385950      5588.8358 
 682   0.0000     205.391596      5588.9895 
 683   0.0000     205.396754      5589.1298 
 684   0.0000     205.415232      5589.6326 

                 SPIN DOWN ORBITALS
  NO   OCC          E(Eh)            E(eV) 
   0   1.0000    -255.641064     -6956.3470 
   1   1.0000     -29.860786      -812.5533 
   2   1.0000     -25.712677      -699.6775 
   3   1.0000     -25.711493      -699.6453 
   4   1.0000     -25.704995      -699.4685 
   5   1.0000      -4.127618      -112.3182 
   6   1.0000      -4.127529      -112.3158 
   7   1.0000      -4.126724      -112.2939 
   8   1.0000      -4.124431      -112.2315 
   9   1.0000      -4.123450      -112.2048 
  10   1.0000      -4.122769      -112.1862 
  11   1.0000      -4.121169      -112.1427 
  12   1.0000      -4.120360      -112.1207 
  13   1.0000      -4.119846      -112.1067 
  14   1.0000      -4.117015      -112.0297 
  15   1.0000      -4.116590      -112.0181 
  16   1.0000      -4.116588      -112.0181 
  17   1.0000      -4.114007      -111.9478 
  18   1.0000      -4.112328      -111.9021 
  19   1.0000      -4.110565      -111.8541 
  20   1.0000      -4.108549      -111.7993 
  21   1.0000      -3.345281       -91.0297 
  22   1.0000      -2.316342       -63.0309 
  23   1.0000      -2.315759       -63.0150 
  24   1.0000      -2.314349       -62.9766 
  25   1.0000      -2.313860       -62.9633 
  26   1.0000      -2.313325       -62.9488 
  27   1.0000      -2.313209       -62.9456 
  28   1.0000      -2.312243       -62.9193 
  29   1.0000      -2.312090       -62.9152 
  30   1.0000      -2.311261       -62.8926 
  31   1.0000      -2.311104       -62.8883 
  32   1.0000      -2.311008       -62.8857 
  33   1.0000      -2.310198       -62.8637 
  34   1.0000      -2.309465       -62.8437 
  35   1.0000      -2.309049       -62.8324 
  36   1.0000      -2.308934       -62.8293 
  37   1.0000      -2.307732       -62.7966 
  38   1.0000      -2.307459       -62.7892 
  39   1.0000      -2.307306       -62.7850 
  40   1.0000      -2.307053       -62.7781 
  41   1.0000      -2.306528       -62.7638 
  42   1.0000      -2.306218       -62.7554 
  43   1.0000      -2.306011       -62.7497 
  44   1.0000      -2.305629       -62.7393 
  45   1.0000      -2.305380       -62.7326 
  46   1.0000      -2.304944       -62.7207 
  47   1.0000      -2.304675       -62.7134 
  48   1.0000      -2.304335       -62.7042 
  49   1.0000      -2.303626       -62.6848 
  50   1.0000      -2.303342       -62.6771 
  51   1.0000      -2.302462       -62.6532 
  52   1.0000      -2.302368       -62.6506 
  53   1.0000      -2.302046       -62.6419 
  54   1.0000      -2.301684       -62.6320 
  55   1.0000      -2.301599       -62.6297 
  56   1.0000      -2.301043       -62.6146 
  57   1.0000      -2.300514       -62.6002 
  58   1.0000      -2.300114       -62.5893 
  59   1.0000      -2.300083       -62.5884 
  60   1.0000      -2.299404       -62.5700 
  61   1.0000      -2.299376       -62.5692 
  62   1.0000      -2.297806       -62.5265 
  63   1.0000      -2.297376       -62.5148 
  64   1.0000      -2.296308       -62.4857 
  65   1.0000      -2.296124       -62.4807 
  66   1.0000      -2.295138       -62.4539 
  67   1.0000      -2.293572       -62.4113 
  68   1.0000      -2.293059       -62.3973 
  69   1.0000      -2.291119       -62.3445 
  70   1.0000      -2.118545       -57.6485 
  71   1.0000      -2.116927       -57.6045 
  72   1.0000      -2.104372       -57.2629 
  73   1.0000      -0.438362       -11.9284 
  74   1.0000      -0.402539       -10.9537 
  75   1.0000      -0.396630       -10.7929 
  76   1.0000      -0.394928       -10.7465 
  77   1.0000      -0.382207       -10.4004 
  78   1.0000      -0.380207       -10.3460 
  79   1.0000      -0.379550       -10.3281 
  80   1.0000      -0.376755       -10.2520 
  81   1.0000      -0.373490       -10.1632 
  82   1.0000      -0.371809       -10.1174 
  83   1.0000      -0.369167       -10.0455 
  84   1.0000      -0.368696       -10.0327 
  85   1.0000      -0.367812       -10.0087 
  86   1.0000      -0.364406        -9.9160 
  87   1.0000      -0.360170        -9.8007 
  88   1.0000      -0.359781        -9.7901 
  89   1.0000      -0.358416        -9.7530 
  90   1.0000      -0.356623        -9.7042 
  91   1.0000      -0.354777        -9.6540 
  92   1.0000      -0.352678        -9.5968 
  93   1.0000      -0.351586        -9.5671 
  94   1.0000      -0.350555        -9.5391 
  95   1.0000      -0.350176        -9.5288 
  96   1.0000      -0.348247        -9.4763 
  97   1.0000      -0.347259        -9.4494 
  98   1.0000      -0.344905        -9.3853 
  99   1.0000      -0.341517        -9.2932 
 100   1.0000      -0.338183        -9.2024 
 101   1.0000      -0.335656        -9.1337 
 102   1.0000      -0.335183        -9.1208 
 103   1.0000      -0.332699        -9.0532 
 104   1.0000      -0.331588        -9.0230 
 105   1.0000      -0.327529        -8.9125 
 106   1.0000      -0.322996        -8.7892 
 107   1.0000      -0.320917        -8.7326 
 108   1.0000      -0.319358        -8.6902 
 109   1.0000      -0.317255        -8.6330 
 110   1.0000      -0.314929        -8.5697 
 111   1.0000      -0.313217        -8.5231 
 112   1.0000      -0.312362        -8.4998 
 113   1.0000      -0.310491        -8.4489 
 114   1.0000      -0.308663        -8.3991 
 115   1.0000      -0.305431        -8.3112 
 116   1.0000      -0.304613        -8.2889 
 117   1.0000      -0.301769        -8.2116 
 118   1.0000      -0.300814        -8.1856 
 119   1.0000      -0.299123        -8.1395 
 120   1.0000      -0.297548        -8.0967 
 121   1.0000      -0.294966        -8.0264 
 122   1.0000      -0.293386        -7.9834 
 123   1.0000      -0.289201        -7.8696 
 124   1.0000      -0.286489        -7.7958 
 125   1.0000      -0.286064        -7.7842 
 126   1.0000      -0.285067        -7.7571 
 127   1.0000      -0.283233        -7.7072 
 128   1.0000      -0.282265        -7.6808 
 129   1.0000      -0.281921        -7.6715 
 130   1.0000      -0.280350        -7.6287 
 131   1.0000      -0.279224        -7.5981 
 132   1.0000      -0.278416        -7.5761 
 133   1.0000      -0.275942        -7.5088 
 134   1.0000      -0.273618        -7.4455 
 135   1.0000      -0.271718        -7.3938 
 136   1.0000      -0.270354        -7.3567 
 137   1.0000      -0.269111        -7.3229 
 138   1.0000      -0.268317        -7.3013 
 139   1.0000      -0.268147        -7.2966 
 140   1.0000      -0.266201        -7.2437 
 141   1.0000      -0.265262        -7.2181 
 142   1.0000      -0.264639        -7.2012 
 143   1.0000      -0.264267        -7.1911 
 144   1.0000      -0.261410        -7.1133 
 145   1.0000      -0.259588        -7.0638 
 146   1.0000      -0.258168        -7.0251 
 147   1.0000      -0.257549        -7.0083 
 148   1.0000      -0.256547        -6.9810 
 149   1.0000      -0.255865        -6.9624 
 150   1.0000      -0.254595        -6.9279 
 151   1.0000      -0.253783        -6.9058 
 152   1.0000      -0.250829        -6.8254 
 153   1.0000      -0.249898        -6.8001 
 154   1.0000      -0.247231        -6.7275 
 155   1.0000      -0.245485        -6.6800 
 156   1.0000      -0.241566        -6.5733 
 157   1.0000      -0.228655        -6.2220 
 158   1.0000      -0.220517        -6.0006 
 159   1.0000      -0.217377        -5.9151 
 160   1.0000      -0.213548        -5.8109 
 161   1.0000      -0.203756        -5.5445 
 162   1.0000      -0.190294        -5.1781 
 163   0.0000      -0.164717        -4.4822 
 164   0.0000      -0.161454        -4.3934 
 165   0.0000      -0.151896        -4.1333 
 166   0.0000      -0.150468        -4.0944 
 167   0.0000      -0.139178        -3.7872 
 168   0.0000      -0.137202        -3.7334 
 169   0.0000      -0.126074        -3.4307 
 170   0.0000      -0.120048        -3.2667 
 171   0.0000      -0.118164        -3.2154 
 172   0.0000      -0.111771        -3.0415 
 173   0.0000      -0.100297        -2.7292 
 174   0.0000      -0.097131        -2.6431 
 175   0.0000      -0.068399        -1.8612 
 176   0.0000      -0.064828        -1.7641 
 177   0.0000      -0.055683        -1.5152 
 178   0.0000      -0.041568        -1.1311 
 179   0.0000      -0.038816        -1.0562 
 180   0.0000      -0.031948        -0.8693 
 181   0.0000      -0.026911        -0.7323 
 182   0.0000      -0.024314        -0.6616 
 183   0.0000      -0.010886        -0.2962 
 184   0.0000      -0.008517        -0.2317 
 185   0.0000       0.000002         0.0001 
 186   0.0000       0.003773         0.1027 
 187   0.0000       0.010207         0.2777 
 188   0.0000       0.019130         0.5206 
 189   0.0000       0.026575         0.7231 
 190   0.0000       0.034663         0.9432 
 191   0.0000       0.045456         1.2369 
 192   0.0000       0.053964         1.4684 
 193   0.0000       0.060157         1.6369 
 194   0.0000       0.065827         1.7912 
 195   0.0000       0.066534         1.8105 
 196   0.0000       0.070305         1.9131 
 197   0.0000       0.073127         1.9899 
 198   0.0000       0.073454         1.9988 
 199   0.0000       0.076994         2.0951 
 200   0.0000       0.077531         2.1097 
 201   0.0000       0.082339         2.2406 
 202   0.0000       0.084511         2.2997 
 203   0.0000       0.089508         2.4356 
 204   0.0000       0.090875         2.4728 
 205   0.0000       0.093844         2.5536 
 206   0.0000       0.097393         2.6502 
 207   0.0000       0.099790         2.7154 
 208   0.0000       0.103691         2.8216 
 209   0.0000       0.109702         2.9851 
 210   0.0000       0.113696         3.0938 
 211   0.0000       0.124455         3.3866 
 212   0.0000       0.129696         3.5292 
 213   0.0000       0.130647         3.5551 
 214   0.0000       0.139972         3.8088 
 215   0.0000       0.145906         3.9703 
 216   0.0000       0.149292         4.0624 
 217   0.0000       0.154885         4.2146 
 218   0.0000       0.162269         4.4156 
 219   0.0000       0.163130         4.4390 
 220   0.0000       0.165774         4.5109 
 221   0.0000       0.169359         4.6085 
 222   0.0000       0.170640         4.6434 
 223   0.0000       0.176102         4.7920 
 224   0.0000       0.180821         4.9204 
 225   0.0000       0.182365         4.9624 
 226   0.0000       0.186605         5.0778 
 227   0.0000       0.190609         5.1867 
 228   0.0000       0.194392         5.2897 
 229   0.0000       0.200970         5.4687 
 230   0.0000       0.205454         5.5907 
 231   0.0000       0.209177         5.6920 
 232   0.0000       0.212800         5.7906 
[...]
      dxz     :     2.002208
      dyz     :     2.008031
      dx2y2   :     1.967792
      dxy     :     1.964531
      f0      :     0.000610  f :     0.005638
      f+1     :     0.000603
      f-1     :     0.000573
      f+2     :     0.001133
      f-2     :     0.001187
      f+3     :     0.000837
      f-3     :     0.000695
 10 Aus       :     2.498021  s :     2.498021
      pz      :     2.194143  p :     6.615103
      px      :     2.232141
      py      :     2.188819
      dz2     :     1.980214  d :     9.891649
      dxz     :     1.976181
      dyz     :     1.968646
      dx2y2   :     1.985118
      dxy     :     1.981489
      f0      :     0.000872  f :     0.006846
      f+1     :     0.000944
      f-1     :     0.001099
      f+2     :     0.000823
      f-2     :     0.001159
      f+3     :     0.000995
      f-3     :     0.000954
 11 Aus       :     2.571420  s :     2.571420
      pz      :     2.167639  p :     6.477880
      px      :     2.168103
      py      :     2.142137
      dz2     :     1.978216  d :     9.906878
      dxz     :     1.962633
      dyz     :     1.988803
      dx2y2   :     1.988973
      dxy     :     1.988254
      f0      :     0.000762  f :     0.005825
      f+1     :     0.001139
      f-1     :     0.000742
      f+2     :     0.000731
      f-2     :     0.000787
      f+3     :     0.000773
      f-3     :     0.000892
 12 Aus       :     2.500444  s :     2.500444
      pz      :     2.193916  p :     6.605113
      px      :     2.152711
      py      :     2.258486
      dz2     :     1.977937  d :     9.913971
      dxz     :     1.961356
      dyz     :     1.997949
      dx2y2   :     1.987619
      dxy     :     1.989111
      f0      :     0.000856  f :     0.006789
      f+1     :     0.000907
      f-1     :     0.000993
      f+2     :     0.000954
      f-2     :     0.001021
      f+3     :     0.000896
      f-3     :     0.001163
 13 Aus       :     2.590703  s :     2.590703
      pz      :     2.161207  p :     6.438747
      px      :     2.094373
      py      :     2.183167
      dz2     :     1.973452  d :     9.880027
      dxz     :     1.988183
      dyz     :     1.980674
      dx2y2   :     1.967597
      dxy     :     1.970122
      f0      :     0.000636  f :     0.005231
      f+1     :     0.000638
      f-1     :     0.000684
      f+2     :     0.000709
      f-2     :     0.000898
      f+3     :     0.000695
      f-3     :     0.000970
 14 Aus       :     2.587237  s :     2.587237
      pz      :     2.197242  p :     6.466689
      px      :     2.102174
      py      :     2.167273
      dz2     :     1.962344  d :     9.895517
      dxz     :     1.992924
      dyz     :     1.974810
      dx2y2   :     1.985335
      dxy     :     1.980104
      f0      :     0.000667  f :     0.005700
      f+1     :     0.000989
      f-1     :     0.000830
      f+2     :     0.000781
      f-2     :     0.000875
      f+3     :     0.000726
      f-3     :     0.000832
 15 Aus       :     2.583581  s :     2.583581
      pz      :     2.137855  p :     6.429474
      px      :     2.189341
      py      :     2.102278
      dz2     :     1.989699  d :     9.878748
      dxz     :     1.969049
      dyz     :     1.968606
      dx2y2   :     1.978036
      dxy     :     1.973358
      f0      :     0.000721  f :     0.005657
      f+1     :     0.000557
      f-1     :     0.000656
      f+2     :     0.000937
      f-2     :     0.001045
      f+3     :     0.000878
      f-3     :     0.000863
 16 Fes       :     6.257350  s :     6.257350
      pz      :     4.195020  p :    12.562141
      px      :     4.188235
      py      :     4.178886
      dz2     :     1.771981  d :     7.683643
      dxz     :     1.388344
      dyz     :     1.462684
      dx2y2   :     1.750536
      dxy     :     1.310099
      f0      :     0.000086  f :     0.000572
      f+1     :     0.000103
      f-1     :     0.000090
      f+2     :     0.000066
      f-2     :     0.000068
      f+3     :     0.000083
      f-3     :     0.000075

SPIN
  0 Aus       :    -0.051412  s :    -0.051412
      pz      :     0.001841  p :    -0.016397
      px      :    -0.007919
      py      :    -0.010319
      dz2     :     0.011827  d :     0.017638
      dxz     :     0.008855
      dyz     :     0.004682
      dx2y2   :    -0.001412
      dxy     :    -0.006314
      f0      :     0.000049  f :     0.000124
      f+1     :     0.000045
      f-1     :     0.000038
      f+2     :     0.000005
      f-2     :     0.000014
      f+3     :    -0.000024
      f-3     :    -0.000003
  1 Aus       :    -0.044613  s :    -0.044613
      pz      :     0.000364  p :    -0.016927
      px      :     0.002094
      py      :    -0.019384
      dz2     :     0.006189  d :     0.006280
      dxz     :     0.006771
      dyz     :    -0.002120
      dx2y2   :     0.002744
      dxy     :    -0.007304
      f0      :     0.000036  f :     0.000081
      f+1     :     0.000062
      f-1     :     0.000022
      f+2     :    -0.000002
      f-2     :     0.000003
      f+3     :    -0.000022
      f-3     :    -0.000018
  2 Aus       :    -0.035905  s :    -0.035905
      pz      :    -0.016529  p :    -0.031206
      px      :    -0.006829
      py      :    -0.007848
      dz2     :    -0.001069  d :    -0.003640
      dxz     :     0.000066
      dyz     :    -0.008224
      dx2y2   :     0.004100
      dxy     :     0.001487
      f0      :     0.000002  f :     0.000039
      f+1     :     0.000010
      f-1     :    -0.000007
      f+2     :     0.000014
      f-2     :    -0.000018
      f+3     :     0.000007
      f-3     :     0.000030
  3 Aus       :    -0.011051  s :    -0.011051
      pz      :    -0.011209  p :    -0.049971
      px      :    -0.023967
      py      :    -0.014796
      dz2     :     0.001424  d :    -0.025411
      dxz     :    -0.000998
      dyz     :    -0.002319
      dx2y2   :    -0.021484
      dxy     :    -0.002035
      f0      :    -0.000000  f :    -0.000080
      f+1     :    -0.000010
      f-1     :    -0.000005
      f+2     :    -0.000032
      f-2     :    -0.000007
      f+3     :    -0.000012
      f-3     :    -0.000014
  4 Aus       :    -0.008356  s :    -0.008356
      pz      :    -0.000343  p :    -0.044746
      px      :    -0.033413
      py      :    -0.010990
      dz2     :    -0.000599  d :    -0.011771
      dxz     :    -0.009065
      dyz     :     0.003130
      dx2y2   :    -0.003176
      dxy     :    -0.002061
      f0      :     0.000007  f :    -0.000035
      f+1     :    -0.000019
      f-1     :     0.000010
      f+2     :    -0.000061
      f-2     :     0.000047
      f+3     :    -0.000007
      f-3     :    -0.000010
  5 Aus       :    -0.025863  s :    -0.025863
      pz      :    -0.004816  p :    -0.020314
      px      :    -0.013523
      py      :    -0.001976
      dz2     :    -0.006663  d :    -0.011197
      dxz     :    -0.000046
      dyz     :    -0.002646
      dx2y2   :    -0.002606
      dxy     :     0.000764
      f0      :    -0.000019  f :    -0.000050
      f+1     :    -0.000003
      f-1     :    -0.000005
      f+2     :    -0.000003
      f-2     :    -0.000002
      f+3     :    -0.000011
      f-3     :    -0.000007
  6 Aus       :    -0.029486  s :    -0.029486
      pz      :    -0.004923  p :    -0.035774
      px      :    -0.019589
      py      :    -0.011262
      dz2     :    -0.001133  d :    -0.002749
      dxz     :     0.001140
      dyz     :     0.000176
      dx2y2   :    -0.000354
      dxy     :    -0.002577
      f0      :    -0.000007  f :    -0.000042
      f+1     :     0.000001
      f-1     :    -0.000007
      f+2     :    -0.000007
      f-2     :    -0.000011
      f+3     :    -0.000000
      f-3     :    -0.000012
  7 Aus       :    -0.039049  s :    -0.039049
      pz      :    -0.005560  p :    -0.011772
      px      :     0.001095
      py      :    -0.007306
      dz2     :    -0.006635  d :    -0.018383
      dxz     :    -0.011729
      dyz     :     0.000136
      dx2y2   :    -0.005345
      dxy     :     0.005190
      f0      :    -0.000003  f :     0.000033
      f+1     :     0.000002
      f-1     :    -0.000006
      f+2     :     0.000011
      f-2     :    -0.000011
      f+3     :     0.000056
      f-3     :    -0.000015
  8 Aus       :    -0.002150  s :    -0.002150
      pz      :    -0.035965  p :    -0.048271
      px      :    -0.004511
      py      :    -0.007795
      dz2     :    -0.004568  d :    -0.005037
      dxz     :    -0.005359
      dyz     :    -0.003192
      dx2y2   :     0.000628
      dxy     :     0.007454
      f0      :    -0.000009  f :     0.000024
      f+1     :    -0.000003
      f-1     :    -0.000031
      f+2     :    -0.000006
      f-2     :    -0.000002
      f+3     :     0.000104
      f-3     :    -0.000029
  9 Aus       :    -0.026489  s :    -0.026489
      pz      :    -0.003847  p :    -0.017778
      px      :    -0.008326
      py      :    -0.005604
      dz2     :     0.000764  d :    -0.012079
      dxz     :    -0.001321
      dyz     :    -0.000183
      dx2y2   :    -0.009736
      dxy     :    -0.001603
      f0      :    -0.000010  f :    -0.000052
      f+1     :    -0.000005
      f-1     :    -0.000003
      f+2     :    -0.000028
      f-2     :    -0.000004
      f+3     :    -0.000001
      f-3     :    -0.000002
 10 Aus       :    -0.036023  s :    -0.036023
      pz      :     0.001285  p :    -0.011732
      px      :     0.004920
      py      :    -0.017938
      dz2     :     0.002358  d :    -0.000104
      dxz     :    -0.002699
      dyz     :     0.005127
      dx2y2   :    -0.005600
      dxy     :     0.000710
      f0      :     0.000009  f :     0.000085
      f+1     :     0.000034
      f-1     :     0.000035
      f+2     :     0.000003
      f-2     :     0.000015
      f+3     :    -0.000001
      f-3     :    -0.000010
 11 Aus       :    -0.010237  s :    -0.010237
      pz      :    -0.021361  p :    -0.058494
      px      :    -0.017643
      py      :    -0.019490
      dz2     :    -0.010592  d :    -0.022479
      dxz     :    -0.004411
      dyz     :    -0.000639
      dx2y2   :    -0.005449
      dxy     :    -0.001389
      f0      :    -0.000031  f :    -0.000084
      f+1     :    -0.000016
      f-1     :    -0.000010
      f+2     :    -0.000014
      f-2     :    -0.000005
      f+3     :    -0.000005
      f-3     :    -0.000003
 12 Aus       :    -0.038539  s :    -0.038539
      pz      :     0.002372  p :    -0.018985
      px      :    -0.018281
      py      :    -0.003077
      dz2     :     0.003732  d :    -0.003201
      dxz     :     0.002630
      dyz     :    -0.005511
      dx2y2   :     0.002370
      dxy     :    -0.006422
      f0      :     0.000003  f :     0.000075
      f+1     :     0.000074
      f-1     :    -0.000002
      f+2     :     0.000013
      f-2     :     0.000011
      f+3     :    -0.000013
      f-3     :    -0.000010
 13 Aus       :    -0.032407  s :    -0.032407
      pz      :    -0.009098  p :    -0.012473
      px      :     0.000665
      py      :    -0.004040
      dz2     :    -0.003682  d :     0.004802
      dxz     :     0.006306
      dyz     :    -0.008882
      dx2y2   :     0.008821
      dxy     :     0.002238
      f0      :     0.000019  f :     0.000042
      f+1     :    -0.000028
      f-1     :    -0.000010
      f+2     :     0.000005
      f-2     :     0.000002
      f+3     :     0.000067
      f-3     :    -0.000013
 14 Aus       :    -0.016861  s :    -0.016861
      pz      :    -0.027385  p :    -0.052280
      px      :    -0.011298
      py      :    -0.013597
      dz2     :    -0.000413  d :    -0.034334
      dxz     :    -0.010616
      dyz     :    -0.002862
      dx2y2   :    -0.017045
      dxy     :    -0.003398
      f0      :    -0.000027  f :    -0.000089
      f+1     :    -0.000016
      f-1     :    -0.000008
      f+2     :    -0.000005
      f-2     :    -0.000014
      f+3     :    -0.000018
      f-3     :    -0.000001
 15 Aus       :    -0.009939  s :    -0.009939
      pz      :    -0.004701  p :    -0.036511
      px      :    -0.026758
      py      :    -0.005052
      dz2     :    -0.000609  d :     0.000489
      dxz     :    -0.002495
      dyz     :     0.006734
      dx2y2   :    -0.000151
      dxy     :    -0.002990
      f0      :     0.000040  f :     0.000047
      f+1     :    -0.000029
      f-1     :    -0.000051
      f+2     :     0.000040
      f-2     :     0.000003
      f+3     :     0.000045
      f-3     :    -0.000001
 16 Fes       :     0.011583  s :     0.011583
      pz      :     0.006317  p :     0.016028
      px      :     0.005826
      py      :     0.003884
      dz2     :     0.391774  d :     2.995469
      dxz     :     0.744454
      dyz     :     0.646593
      dx2y2   :     0.350626
      dxy     :     0.862022
      f0      :     0.000002  f :    -0.000009
      f+1     :    -0.000004
      f-1     :    -0.000009
      f+2     :     0.000003
      f-2     :     0.000001
      f+3     :    -0.000005
      f-3     :     0.000003


                      *****************************
                      * MAYER POPULATION ANALYSIS *
                      *****************************

  NA   - Mulliken gross atomic population
  ZA   - Total nuclear charge
  QA   - Mulliken gross atomic charge
  VA   - Mayer's total valence
  BVA  - Mayer's bonded valence
  FA   - Mayer's free valence

  ATOM       NA         ZA         QA         VA         BVA        FA
  0 Au    18.6843    19.0000     0.3157     1.4062     1.3939     0.0124
  1 Au    18.6262    19.0000     0.3738     1.4844     1.4753     0.0091
  2 Au    19.0567    19.0000    -0.0567     1.8662     1.8565     0.0098
  3 Au    18.7333    19.0000     0.2667     1.6933     1.6889     0.0044
  4 Au    18.7923    19.0000     0.2077     1.6488     1.6453     0.0035
  5 Au    18.8287    19.0000     0.1713     1.5453     1.5403     0.0050
  6 Au    18.8020    19.0000     0.1980     1.6105     1.6050     0.0055
  7 Au    19.7946    19.0000    -0.7946     2.7022     2.6848     0.0174
  8 Au    18.6439    19.0000     0.3561     1.4742     1.4722     0.0020
  9 Au    18.8112    19.0000     0.1888     1.5374     1.5321     0.0053
 10 Au    19.1474    19.0000    -0.1474     2.0160     2.0021     0.0139
 11 Au    18.7537    19.0000     0.2463     1.7008     1.6968     0.0040
 12 Au    19.2871    19.0000    -0.2871     2.1056     2.0953     0.0103
 13 Au    18.6781    19.0000     0.3219     1.4762     1.4697     0.0065
 14 Au    18.7812    19.0000     0.2188     1.6407     1.6355     0.0052
 15 Au    18.6323    19.0000     0.3677     1.4852     1.4828     0.0024
 16 Fe    27.9469    26.0000    -1.9469     7.3158     4.7706     2.5452

  Mayer bond orders larger than 0.100000
B(  0-Au,  1-Au) :   0.1370 B(  0-Au,  4-Au) :   0.1780 B(  0-Au,  8-Au) :   0.2018 
B(  0-Au, 16-Fe) :   0.5842 B(  1-Au,  4-Au) :   0.1523 B(  1-Au,  7-Au) :   0.1954 
B(  1-Au, 13-Au) :   0.1550 B(  1-Au, 14-Au) :   0.1857 B(  1-Au, 16-Fe) :   0.4491 
B(  2-Au,  3-Au) :   0.2330 B(  2-Au,  4-Au) :   0.1373 B(  2-Au,  5-Au) :   0.3006 
B(  2-Au,  8-Au) :   0.2919 B(  2-Au, 10-Au) :   0.2072 B(  2-Au, 16-Fe) :   0.3982 
B(  3-Au,  4-Au) :   0.2665 B(  3-Au,  5-Au) :   0.2137 B(  3-Au,  6-Au) :   0.2770 
B(  3-Au,  7-Au) :   0.4055 B(  4-Au,  7-Au) :   0.3246 B(  4-Au, 16-Fe) :   0.3431 
B(  5-Au,  6-Au) :   0.2285 B(  5-Au,  9-Au) :   0.2095 B(  5-Au, 10-Au) :   0.2918 
B(  6-Au,  7-Au) :   0.3539 B(  6-Au,  9-Au) :   0.1925 B(  6-Au, 11-Au) :   0.2940 
B(  7-Au, 11-Au) :   0.3960 B(  7-Au, 12-Au) :   0.1001 B(  7-Au, 14-Au) :   0.3534 
B(  7-Au, 16-Fe) :   0.3974 B(  8-Au, 10-Au) :   0.1736 B(  8-Au, 15-Au) :   0.1517 
B(  8-Au, 16-Fe) :   0.3907 B(  9-Au, 10-Au) :   0.3057 B(  9-Au, 11-Au) :   0.1948 
B(  9-Au, 12-Au) :   0.3295 B( 10-Au, 12-Au) :   0.2022 B( 10-Au, 15-Au) :   0.2315 
B( 10-Au, 16-Fe) :   0.4029 B( 11-Au, 12-Au) :   0.2471 B( 11-Au, 14-Au) :   0.2897 
B( 12-Au, 13-Au) :   0.1533 B( 12-Au, 14-Au) :   0.1944 B( 12-Au, 15-Au) :   0.2752 
B( 12-Au, 16-Fe) :   0.4184 B( 13-Au, 14-Au) :   0.2081 B( 13-Au, 15-Au) :   0.2028 
B( 13-Au, 16-Fe) :   0.5055 B( 14-Au, 16-Fe) :   0.1412 B( 15-Au, 16-Fe) :   0.3680 


-------
TIMINGS
-------

Total SCF time: 0 days 0 hours 5 min 7 sec 

Total time                  ....     307.856 sec
Sum of individual times     ....     305.274 sec  ( 99.2%)

Fock matrix formation       ....     293.130 sec  ( 95.2%)
  Split-RI-J                ....      55.635 sec  ( 19.0% of F)
  XC integration            ....     235.397 sec  ( 80.3% of F)
    Basis function eval.    ....      13.295 sec  (  5.6% of XC)
    Density eval.           ....     105.974 sec  ( 45.0% of XC)
    XC-Functional eval.     ....       6.888 sec  (  2.9% of XC)
    XC-Potential eval.      ....     104.080 sec  ( 44.2% of XC)
Diagonalization             ....       9.359 sec  (  3.0%)
Density matrix formation    ....       0.760 sec  (  0.2%)
Population analysis         ....       0.201 sec  (  0.1%)
Initial guess               ....       0.300 sec  (  0.1%)
Orbital Transformation      ....       0.000 sec  (  0.0%)
Orbital Orthonormalization  ....       0.257 sec  (  0.1%)
DIIS solution               ....       0.000 sec  (  0.0%)
Grid generation             ....       1.524 sec  (  0.5%)

Maximum memory used throughout the entire SCF-calculation: 122.8 MB

-------------------------   --------------------
FINAL SINGLE POINT ENERGY     -3437.270710644997
-------------------------   --------------------


                            ***************************************
                            *     ORCA property calculations      *
                            ***************************************

                                    ---------------------
                                    Active property flags
                                    ---------------------
   (+) Dipole Moment


------------------------------------------------------------------------------
                       ORCA ELECTRIC PROPERTIES CALCULATION
------------------------------------------------------------------------------

Dipole Moment Calculation                       ... on
Quadrupole Moment Calculation                   ... off
Polarizability Calculation                      ... off
GBWName                                         ... scan_job2.gbw
Electron density                                ... scan_job2.scfp
The origin for moment calculation is the CENTER OF MASS  = (13.660072, 15.361756 12.212897)

-------------
DIPOLE MOMENT
-------------
                                X             Y             Z
Electronic contribution:      8.27287      31.93648     -29.50242
Nuclear contribution   :     -8.59043     -32.40039      30.06511
                        -----------------------------------------
Total Dipole Moment    :     -0.31756      -0.46391       0.56269
                        -----------------------------------------
Magnitude (a.u.)       :      0.79541
Magnitude (Debye)      :      2.02177



--------------------
Rotational spectrum 
--------------------
 
Rotational constants in cm-1:     0.000957     0.000796     0.000738 
Rotational constants in MHz :    28.693721    23.877524    22.123531 

 Dipole components along the rotational axes: 
x,y,z [a.u.] :     0.787291    -0.091095     0.067467 
x,y,z [Debye]:     2.001135    -0.231544     0.171488 

 

Timings for individual modules:

Sum of individual times         ...      320.934 sec (=   5.349 min)
GTO integral calculation        ...       12.943 sec (=   0.216 min)   4.0 %
SCF iterations                  ...      307.991 sec (=   5.133 min)  96.0 %



                             ****ORCA TERMINATED NORMALLY****
TOTAL RUN TIME: 0 days 0 hours 6 minutes 24 seconds 919 msec
