
                                 *****************
                                 * O   R   C   A *
                                 *****************

                                            #,                                       
                                            ###                                      
                                            ####                                     
                                            #####                                    
                                            ######                                   
                                           ########,                                 
                                     ,,################,,,,,                         
                               ,,#################################,,                 
                          ,,##########################################,,             
                       ,#########################################, ''#####,          
                    ,#############################################,,   '####,        
                  ,##################################################,,,,####,       
                ,###########''''           ''''###############################       
              ,#####''   ,,,,##########,,,,          '''####'''          '####       
            ,##' ,,,,###########################,,,                        '##       
           ' ,,###''''                  '''############,,,                           
         ,,##''                                '''############,,,,        ,,,,,,###''
      ,#''                                            '''#######################'''  
     '                                                          ''''####''''         
             ,#######,   #######,   ,#######,      ##                                
            ,#'     '#,  ##    ##  ,#'     '#,    #''#        ######   ,####,        
            ##       ##  ##   ,#'  ##            #'  '#       #        #'  '#        
            ##       ##  #######   ##           ,######,      #####,   #    #        
            '#,     ,#'  ##    ##  '#,     ,#' ,#      #,         ##   #,  ,#        
             '#######'   ##     ##  '#######'  #'      '#     #####' # '####'        



                  #######################################################
                  #                        -***-                        #
                  #          Department of theory and spectroscopy      #
                  #    Directorship and core code : Frank Neese         #
                  #        Max Planck Institute fuer Kohlenforschung    #
                  #                Kaiser Wilhelm Platz 1               #
                  #                 D-45470 Muelheim/Ruhr               #
                  #                      Germany                        #
                  #                                                     #
                  #                  All rights reserved                #
                  #                        -***-                        #
                  #######################################################


                         Program Version 5.0.3 -  RELEASE  -


 With contributions from (in alphabetic order):
   Daniel Aravena         : Magnetic Suceptibility
   Michael Atanasov       : Ab Initio Ligand Field Theory (pilot matlab implementation)
   Alexander A. Auer      : GIAO ZORA, VPT2 properties, NMR spectrum
   Ute Becker             : Parallelization
   Giovanni Bistoni       : ED, misc. LED, open-shell LED, HFLD
   Martin Brehm           : Molecular dynamics
   Dmytro Bykov           : SCF Hessian
   Vijay G. Chilkuri      : MRCI spin determinant printing, contributions to CSF-ICE
   Dipayan Datta          : RHF DLPNO-CCSD density
   Achintya Kumar Dutta   : EOM-CC, STEOM-CC
   Dmitry Ganyushin       : Spin-Orbit,Spin-Spin,Magnetic field MRCI
   Miquel Garcia          : C-PCM and meta-GGA Hessian, CC/C-PCM, Gaussian charge scheme
   Yang Guo               : DLPNO-NEVPT2, F12-NEVPT2, CIM, IAO-localization
   Andreas Hansen         : Spin unrestricted coupled pair/coupled cluster methods
   Benjamin Helmich-Paris : MC-RPA, TRAH-SCF, COSX integrals
   Lee Huntington         : MR-EOM, pCC
   Robert Izsak           : Overlap fitted RIJCOSX, COSX-SCS-MP3, EOM
   Marcus Kettner         : VPT2
   Christian Kollmar      : KDIIS, OOCD, Brueckner-CCSD(T), CCSD density, CASPT2, CASPT2-K
   Simone Kossmann        : Meta GGA functionals, TD-DFT gradient, OOMP2, MP2 Hessian
   Martin Krupicka        : Initial AUTO-CI
   Lucas Lang             : DCDCAS
   Marvin Lechner         : AUTO-CI (C++ implementation), FIC-MRCC
   Dagmar Lenk            : GEPOL surface, SMD
   Dimitrios Liakos       : Extrapolation schemes; Compound Job, initial MDCI parallelization
   Dimitrios Manganas     : Further ROCIS development; embedding schemes
   Dimitrios Pantazis     : SARC Basis sets
   Anastasios Papadopoulos: AUTO-CI, single reference methods and gradients
   Taras Petrenko         : DFT Hessian,TD-DFT gradient, ASA, ECA, R-Raman, ABS, FL, XAS/XES, NRVS
   Peter Pinski           : DLPNO-MP2, DLPNO-MP2 Gradient
   Christoph Reimann      : Effective Core Potentials
   Marius Retegan         : Local ZFS, SOC
   Christoph Riplinger    : Optimizer, TS searches, QM/MM, DLPNO-CCSD(T), (RO)-DLPNO pert. Triples
   Tobias Risthaus        : Range-separated hybrids, TD-DFT gradient, RPA, STAB
   Michael Roemelt        : Original ROCIS implementation
   Masaaki Saitow         : Open-shell DLPNO-CCSD energy and density
   Barbara Sandhoefer     : DKH picture change effects
   Avijit Sen             : IP-ROCIS
   Kantharuban Sivalingam : CASSCF convergence, NEVPT2, FIC-MRCI
   Bernardo de Souza      : ESD, SOC TD-DFT
   Georgi Stoychev        : AutoAux, RI-MP2 NMR, DLPNO-MP2 response
   Willem Van den Heuvel  : Paramagnetic NMR
   Boris Wezisla          : Elementary symmetry handling
   Frank Wennmohs         : Technical directorship


 We gratefully acknowledge several colleagues who have allowed us to
 interface, adapt or use parts of their codes:
   Stefan Grimme, W. Hujo, H. Kruse, P. Pracht,  : VdW corrections, initial TS optimization,
                  C. Bannwarth, S. Ehlert          DFT functionals, gCP, sTDA/sTD-DF
   Ed Valeev, F. Pavosevic, A. Kumar             : LibInt (2-el integral package), F12 methods
   Garnet Chan, S. Sharma, J. Yang, R. Olivares  : DMRG
   Ulf Ekstrom                                   : XCFun DFT Library
   Mihaly Kallay                                 : mrcc  (arbitrary order and MRCC methods)
   Jiri Pittner, Ondrej Demel                    : Mk-CCSD
   Frank Weinhold                                : gennbo (NPA and NBO analysis)
   Christopher J. Cramer and Donald G. Truhlar   : smd solvation model
   Lars Goerigk                                  : TD-DFT with DH, B97 family of functionals
   V. Asgeirsson, H. Jonsson                     : NEB implementation
   FAccTs GmbH                                   : IRC, NEB, NEB-TS, DLPNO-Multilevel, CI-OPT
                                                   MM, QMMM, 2- and 3-layer-ONIOM, Crystal-QMMM,
                                                   LR-CPCM, SF, NACMEs, symmetry and pop. for TD-DFT,
                                                   nearIR, NL-DFT gradient (VV10), updates on ESD,
                                                   ML-optimized integration grids
   S Lehtola, MJT Oliveira, MAL Marques          : LibXC Library
   Liviu Ungur et al                             : ANISO software


 Your calculation uses the libint2 library for the computation of 2-el integrals
 For citations please refer to: http://libint.valeyev.net

 Your ORCA version has been built with support for libXC version: 5.1.0
 For citations please refer to: https://tddft.org/programs/libxc/

 This ORCA versions uses:
   CBLAS   interface :  Fast vector & matrix operations
   LAPACKE interface :  Fast linear algebra routines
   SCALAPACK package :  Parallel linear algebra routines
   Shared memory     :  Shared parallel matrices
   BLAS/LAPACK       :  OpenBLAS 0.3.15  USE64BITINT DYNAMIC_ARCH NO_AFFINITY Haswell SINGLE_THREADED
        Core in use  :  Haswell
   Copyright (c) 2011-2014, The OpenBLAS Project




***************************************
The coordinates will be read from file: pbe.xyz
***************************************


================================================================================

cite the ECPs for Au [Def2-ECP] as follows:
Ce-Yb(ecp-28): M. Dolg, H. Stoll, H.Preuss, J. Chem. Phys., 1989, 90, 1730-1734.
Y-Cd(ecp-28), Hf-Hg(ecp-46): D. Andrae,U. Haeussermann, M. Dolg, H. Stoll, H. Preuss, Theor. Chim. Acta, 1990, 77, 123-141.
In-Sb(ecp-28), Tl-Bi(ecp-46): B. Metz, H. Stoll, M. Dolg, J. Chem. Phys., 2000, 113, 2563-2569.
Te-Xe(ecp-28), Po-Rn(ecp-46): K. A. Peterson, D. Figgen, E. Goll, H. Stoll, M. Dolg, J. Chem. Phys., 2003, 119, 11113-11123.
Rb(ecp-28), Cs(ecp-46): T. Leininger, A. Nicklass, W. Kuechle, H. Stoll, M. Dolg, A. Bergner, Chem. Phys. Lett., 1996, 255, 274-280.
Sr(ecp-28), Ba(ecp-46): M. Kaupp, P. V. Schleyer, H. Stoll and H. Preuss, J. Chem. Phys., 1991, 94, 1360-1366.
La(ecp-46): M. Dolg, H. Stoll, A. Savin, H. Preuss, Theor. Chim. Acta, 1989, 75, 173-194.
Lu(ecp-28): X. Cao, M. Dolg, J. Chem. Phys., 2001, 115, 7348-7355.

ECP parameters for Au [Def2-ECP] have been obtained from:
TURBOMOLE (7.0.2)

----- Orbital basis set information -----
Your calculation utilizes the basis: def2-TZVP
   F. Weigend and R. Ahlrichs, Phys. Chem. Chem. Phys. 7, 3297 (2005).

----- AuxJ basis set information -----
Your calculation utilizes the auxiliary basis: def2/J
   F. Weigend, Phys. Chem. Chem. Phys. 8, 1057 (2006).

================================================================================
                                        WARNINGS
                       Please study these warnings very carefully!
================================================================================


WARNING: your system is open-shell and RHF/RKS was chosen
  ===> : WILL SWITCH to UHF/UKS


INFO   : the flag for use of the SHARK integral package has been found!



***************************************
The coordinates will be read from file: pbe.xyz
***************************************


================================================================================

cite the ECPs for Au [Def2-ECP] as follows:
Ce-Yb(ecp-28): M. Dolg, H. Stoll, H.Preuss, J. Chem. Phys., 1989, 90, 1730-1734.
Y-Cd(ecp-28), Hf-Hg(ecp-46): D. Andrae,U. Haeussermann, M. Dolg, H. Stoll, H. Preuss, Theor. Chim. Acta, 1990, 77, 123-141.
In-Sb(ecp-28), Tl-Bi(ecp-46): B. Metz, H. Stoll, M. Dolg, J. Chem. Phys., 2000, 113, 2563-2569.
Te-Xe(ecp-28), Po-Rn(ecp-46): K. A. Peterson, D. Figgen, E. Goll, H. Stoll, M. Dolg, J. Chem. Phys., 2003, 119, 11113-11123.
Rb(ecp-28), Cs(ecp-46): T. Leininger, A. Nicklass, W. Kuechle, H. Stoll, M. Dolg, A. Bergner, Chem. Phys. Lett., 1996, 255, 274-280.
Sr(ecp-28), Ba(ecp-46): M. Kaupp, P. V. Schleyer, H. Stoll and H. Preuss, J. Chem. Phys., 1991, 94, 1360-1366.
La(ecp-46): M. Dolg, H. Stoll, A. Savin, H. Preuss, Theor. Chim. Acta, 1989, 75, 173-194.
Lu(ecp-28): X. Cao, M. Dolg, J. Chem. Phys., 2001, 115, 7348-7355.

ECP parameters for Au [Def2-ECP] have been obtained from:
TURBOMOLE (7.0.2)

----- Orbital basis set information -----
Your calculation utilizes the basis: def2-TZVP
   F. Weigend and R. Ahlrichs, Phys. Chem. Chem. Phys. 7, 3297 (2005).

----- AuxJ basis set information -----
Your calculation utilizes the auxiliary basis: def2/J
   F. Weigend, Phys. Chem. Chem. Phys. 8, 1057 (2006).

================================================================================
                                        WARNINGS
                       Please study these warnings very carefully!
================================================================================


INFO   : the flag for use of the SHARK integral package has been found!

================================================================================
                                       INPUT FILE
================================================================================
NAME = pbeSP.inp
|  1> !PBE def2-TZVP VERYSLOWCONV
|  2> 
|  3> %scf
|  4>   AutoTRAHIter 200
|  5>   maxiter 400
|  6> end
|  7> 
|  8> 
|  9> %pal nprocs 6 end 
| 10> 
| 11> *xyzfile 0 5 pbe.xyz
| 12> 
| 13> $new_job
| 14> 
| 15> !PBE def2-TZVP VERYSLOWCONV
| 16> 
| 17> %scf
| 18>   AutoTRAHIter 200
| 19>   maxiter 400
| 20> end
| 21>  
| 22> 
| 23> %pal nprocs 6 end 
| 24> 
| 25> *xyzfile 0 3 pbe.xyz
| 26> 
| 27> 
| 28> 
| 29> 
| 30> 
| 31>                          ****END OF INPUT****
================================================================================


                 $$$$$$$$$$$$$$$$$$$$$$$$$$$$$$$$$$$$$$$$$$$$$$ 
                 $ THERE ARE  2 JOBS TO BE PROCESSED THIS RUN $
                 $$$$$$$$$$$$$$$$$$$$$$$$$$$$$$$$$$$$$$$$$$$$$$ 




                 $$$$$$$$$$$$$$$$  JOB NUMBER  1 $$$$$$$$$$$$$$


                       ****************************
                       * Single Point Calculation *
                       ****************************

---------------------------------
CARTESIAN COORDINATES (ANGSTROEM)
---------------------------------
  Au     6.503245    9.030521    5.878520
  Au    10.345597    7.711710    8.320027
  Au    11.831774    9.892552    7.336758
  Au     9.245296    9.440252    6.355253
  Au     9.129319    6.709534    6.062937
  Au     6.517008    6.313770    5.260838
  Au     7.364189   11.050231    7.587838
  Au     9.796516   10.520356    9.014628
  Au     9.241500    8.335729   10.778548
  Au     6.493436    7.721497   10.592312
  Au     7.394729   10.355984   10.276399
  Au     5.350315    9.375376    8.627934
  Au     5.805256    5.513632    9.122598
  Au     7.679155    4.691350    7.269016
  Au     8.639169    5.883003    9.604501
  Au     4.710381    7.139358    7.179563
  Cr     7.391445    7.583800    7.949174

----------------------------
CARTESIAN COORDINATES (A.U.)
----------------------------
  NO LB      ZA    FRAG     MASS         X           Y           Z
   0 Au   19.0000*   0   196.966   12.289351   17.065212   11.108792
   1 Au   19.0000*   0   196.966   19.550345   14.573021   15.722573
   2 Au   19.0000*   0   196.966   22.358812   18.694214   13.864464
   3 Au   19.0000*   0   196.966   17.471078   17.839491   12.009688
   4 Au   19.0000*   0   196.966   17.251913   12.679181   11.457291
   5 Au   19.0000*   0   196.966   12.315360   11.931296    9.941544
   6 Au   19.0000*   0   196.966   13.916300   20.881910   14.338937
   7 Au   19.0000*   0   196.966   18.512732   19.880591   17.035178
   8 Au   19.0000*   0   196.966   17.463903   15.752244   20.368503
   9 Au   19.0000*   0   196.966   12.270816   14.591514   20.016569
  10 Au   19.0000*   0   196.966   13.974012   19.569973   19.419579
  11 Au   19.0000*   0   196.966   10.110630   17.716893   16.304432
  12 Au   19.0000*   0   196.966   10.970345   10.419255   17.239212
  13 Au   19.0000*   0   196.966   14.511501    8.865366   13.736449
  14 Au   19.0000*   0   196.966   16.325664   11.117264   18.149876
  15 Au   19.0000*   0   196.966    8.901331   13.491431   13.567408
  16 Cr   24.0000    0    52.000   13.967807   14.331305   15.021762
* core charge reduced due to ECP

--------------------------------
INTERNAL COORDINATES (ANGSTROEM)
--------------------------------
 Au     0   0   0     0.000000000000     0.00000000     0.00000000
 Au     1   0   0     4.739608780124     0.00000000     0.00000000
 Au     2   1   0     2.816311364976    91.86168351     0.00000000
 Au     3   2   1     2.803175909958    60.68511242   354.57922675
 Au     4   3   2     2.748767437696   103.67765677   318.92161726
 Au     5   4   3     2.761188652712   102.30989894   176.34584303
 Au     4   3   2     2.765838471186   112.18412098    98.62818927
 Au     3   2   1     2.711394264806    64.35050805    67.82104812
 Au     2   1   3     2.766360885508    94.09897980   110.46417391
 Au     9   2   1     2.822023396335   106.31440069    35.12543555
 Au     8   3   2     2.718026020808   159.48253909   328.64230859
 Au    11   8   3     2.803329340188   113.11655631   325.34464659
 Au    10   9   2     2.740130638164   117.08683136    36.58593165
 Au    13  10   9     2.761053216654   115.44170114   338.37477775
 Au     9   2   1     2.785148630006    60.85870115    82.57247911
 Au    12  11   8     2.739903477780   140.05410618    60.51486611
 Cr     1   2   3     2.677594415651    35.15244563   200.24472026

---------------------------
INTERNAL COORDINATES (A.U.)
---------------------------
 Au     0   0   0     0.000000000000     0.00000000     0.00000000
 Au     1   0   0     8.956562576362     0.00000000     0.00000000
 Au     2   1   0     5.322057187654    91.86168351     0.00000000
 Au     3   2   1     5.297234775026    60.68511242   354.57922675
 Au     4   3   2     5.194417663086   103.67765677   318.92161726
 Au     5   4   3     5.217890357717   102.30989894   176.34584303
 Au     4   3   2     5.226677241204   112.18412098    98.62818927
 Au     3   2   1     5.123792601568    64.35050805    67.82104812
 Au     2   1   3     5.227664461202    94.09897980   110.46417391
 Au     9   2   1     5.332851362591   106.31440069    35.12543555
 Au     8   3   2     5.136324804199   159.48253909   328.64230859
 Au    11   8   3     5.297524716141   113.11655631   325.34464659
 Au    10   9   2     5.178096477296   117.08683136    36.58593165
 Au    13  10   9     5.217634420659   115.44170114   338.37477775
 Au     9   2   1     5.263168152977    60.85870115    82.57247911
 Au    12  11   8     5.177667206383   140.05410618    60.51486611
 Cr     1   2   3     5.059920143297    35.15244563   200.24472026

---------------------
BASIS SET INFORMATION
---------------------
There are 2 groups of distinct atoms

 Group   1 Type Au  : 8s7p6d1f contracted to 6s4p3d1f pattern {311111/4111/411/1}
 Group   2 Type Cr  : 17s11p7d1f contracted to 6s4p4d1f pattern {842111/6311/4111/1}

Atom   0Au   basis set group =>   1
Atom   1Au   basis set group =>   1
Atom   2Au   basis set group =>   1
Atom   3Au   basis set group =>   1
Atom   4Au   basis set group =>   1
Atom   5Au   basis set group =>   1
Atom   6Au   basis set group =>   1
Atom   7Au   basis set group =>   1
Atom   8Au   basis set group =>   1
Atom   9Au   basis set group =>   1
Atom  10Au   basis set group =>   1
Atom  11Au   basis set group =>   1
Atom  12Au   basis set group =>   1
Atom  13Au   basis set group =>   1
Atom  14Au   basis set group =>   1
Atom  15Au   basis set group =>   1
Atom  16Cr   basis set group =>   2
---------------------------------
AUXILIARY/J BASIS SET INFORMATION
---------------------------------
There are 2 groups of distinct atoms

 Group   1 Type Au  : 11s5p5d3f3g contracted to 8s5p5d2f3g pattern {41111111/11111/11111/21/111}
 Group   2 Type Cr  : 19s5p5d3f3g contracted to 8s5p5d2f3g pattern {121111111/11111/11111/21/111}

Atom   0Au   basis set group =>   1
Atom   1Au   basis set group =>   1
Atom   2Au   basis set group =>   1
Atom   3Au   basis set group =>   1
Atom   4Au   basis set group =>   1
Atom   5Au   basis set group =>   1
Atom   6Au   basis set group =>   1
Atom   7Au   basis set group =>   1
Atom   8Au   basis set group =>   1
Atom   9Au   basis set group =>   1
Atom  10Au   basis set group =>   1
Atom  11Au   basis set group =>   1
Atom  12Au   basis set group =>   1
Atom  13Au   basis set group =>   1
Atom  14Au   basis set group =>   1
Atom  15Au   basis set group =>   1
Atom  16Cr   basis set group =>   2
-------------------------
ECP PARAMETER INFORMATION
-------------------------

 Group 1, Type Au ECP Def2-ECP (replacing 60 core electrons, lmax=3)

Atom   0Au   ECP group =>   1
Atom   1Au   ECP group =>   1
Atom   2Au   ECP group =>   1
Atom   3Au   ECP group =>   1
Atom   4Au   ECP group =>   1
Atom   5Au   ECP group =>   1
Atom   6Au   ECP group =>   1
Atom   7Au   ECP group =>   1
Atom   8Au   ECP group =>   1
Atom   9Au   ECP group =>   1
Atom  10Au   ECP group =>   1
Atom  11Au   ECP group =>   1
Atom  12Au   ECP group =>   1
Atom  13Au   ECP group =>   1
Atom  14Au   ECP group =>   1
Atom  15Au   ECP group =>   1



           ************************************************************
           *        Program running with 6 parallel MPI-processes     *
           *              working on a common directory               *
           ************************************************************
------------------------------------------------------------------------------
                           ORCA GTO INTEGRAL CALCULATION
                           -- RI-GTO INTEGRALS CHOSEN --
------------------------------------------------------------------------------
------------------------------------------------------------------------------
                   ___                                                        
                  /   \      - P O W E R E D   B Y -                         
                 /     \                                                     
                 |  |  |   _    _      __       _____    __    __             
                 |  |  |  | |  | |    /  \     |  _  \  |  |  /  |          
                  \  \/   | |  | |   /    \    | | | |  |  | /  /          
                 / \  \   | |__| |  /  /\  \   | |_| |  |  |/  /          
                |  |  |   |  __  | /  /__\  \  |    /   |      \           
                |  |  |   | |  | | |   __   |  |    \   |  |\   \          
                \     /   | |  | | |  |  |  |  | |\  \  |  | \   \       
                 \___/    |_|  |_| |__|  |__|  |_| \__\ |__|  \__/        
                                                                              
                      - O R C A' S   B I G   F R I E N D -                    
                                      &                                       
                       - I N T E G R A L  F E E D E R -                       
                                                                              
 v1 FN, 2020, v2 2021                                                         
------------------------------------------------------------------------------


Reading SHARK input file pbeSP.SHARKINP.tmp ... ok
----------------------
SHARK INTEGRAL PACKAGE
----------------------

Number of atoms                             ...     17
Number of basis functions                   ...    685
Number of shells                            ...    239
Maximum angular momentum                    ...      3
Integral batch strategy                     ... SHARK/LIBINT Hybrid
RI-J (if used) integral strategy            ... SPLIT-RIJ (Revised 2003 algorithm where possible)
Printlevel                                  ...      1
Contraction scheme used                     ... SEGMENTED contraction
Coulomb Range Separation                    ... NOT USED
Exchange Range Separation                   ... NOT USED
Finite Nucleus Model                        ... NOT USED
Auxiliary Coulomb fitting basis             ... AVAILABLE
   # of basis functions in Aux-J            ...   1513
   # of shells in Aux-J                     ...    391
   Maximum angular momentum in Aux-J        ...      4
Auxiliary J/K fitting basis                 ... NOT available
Auxiliary Correlation fitting basis         ... NOT available
Auxiliary 'external' fitting basis          ... NOT available
Integral threshold                          ...     1.000000e-10
Primitive cut-off                           ...     1.000000e-11
Primitive pair pre-selection threshold      ...     1.000000e-11

Calculating pre-screening integrals         ... done (  0.3 sec) Dimension = 239
Organizing shell pair data                  ... done (  0.8 sec)
Shell pair information
Total number of shell pairs                 ...     28680
Shell pairs after pre-screening             ...     22244
Total number of primitive shell pairs       ...     75765
Primitive shell pairs kept                  ...     42131
          la=0 lb=0:   3519 shell pairs
          la=1 lb=0:   5062 shell pairs
          la=1 lb=1:   1908 shell pairs
          la=2 lb=0:   4421 shell pairs
          la=2 lb=1:   3128 shell pairs
          la=2 lb=2:   1289 shell pairs
          la=3 lb=0:   1149 shell pairs
          la=3 lb=1:    879 shell pairs
          la=3 lb=2:    772 shell pairs
          la=3 lb=3:    117 shell pairs

Calculating one electron integrals          ... done (  0.3 sec)
Calculating ECP integrals                   ... done ( 28.8 sec)
Calculating RI/J V-Matrix + Cholesky decomp.... done (  2.1 sec)
Calculating Nuclear repulsion               ... done (  0.0 sec) ENN=   6930.219099997268 Eh

SHARK setup successfully completed in  33.9 seconds

Maximum memory used throughout the entire GTOINT-calculation: 41.0 MB


           ************************************************************
           *        Program running with 6 parallel MPI-processes     *
           *              working on a common directory               *
           ************************************************************
-------------------------------------------------------------------------------
                                 ORCA SCF
-------------------------------------------------------------------------------

------------
SCF SETTINGS
------------
Hamiltonian:
 Density Functional     Method          .... DFT(GTOs)
 Exchange Functional    Exchange        .... PBE
   PBE kappa parameter   XKappa         ....  0.804000
   PBE mue parameter    XMuePBE         ....  0.219520
 Correlation Functional Correlation     .... PBE
   PBE beta parameter  CBetaPBE         ....  0.066725
 LDA part of GGA corr.  LDAOpt          .... PW91-LDA
 Gradients option       PostSCFGGA      .... off
   Density functional embedding theory  .... OFF
   NL short-range parameter             ....  6.400000
 RI-approximation to the Coulomb term is turned on
   Number of AuxJ basis functions       .... 1513


General Settings:
 Integral files         IntName         .... pbeSP
 Hartree-Fock type      HFTyp           .... UHF
 Total Charge           Charge          ....    0
 Multiplicity           Mult            ....    5
 Number of Electrons    NEL             ....  328
 Basis Dimension        Dim             ....  685
 Nuclear Repulsion      ENuc            ....   6930.2190999973 Eh

Convergence Acceleration:
 DIIS                   CNVDIIS         .... on
   Start iteration      DIISMaxIt       ....     0
   Startup error        DIISStart       ....  0.200000
   # of expansion vecs  DIISMaxEq       ....     5
   Bias factor          DIISBfac        ....   1.050
   Max. coefficient     DIISMaxC        ....  10.000
 Trust-Rad. Augm. Hess. CNVTRAH         .... auto
   Auto Start mean grad. ratio tolernc. ....  1.125000
   Auto Start start iteration           ....   200
   Auto Start num. interpolation iter.  ....    10
   Max. Number of Micro iterations      ....    16
   Max. Number of Macro iterations      .... Maxiter - #DIIS iter
   Number of Davidson start vectors     ....     2
   Converg. threshold I  (grad. norm)   ....   5.000e-05
   Converg. threshold II (energy diff.) ....   1.000e-06
   Grad. Scal. Fac. for Micro threshold ....   0.100
   Minimum threshold for Micro iter.    ....   0.010
   NR start threshold (gradient norm)   ....   0.001
   Initial trust radius                 ....   0.400
   Minimum AH scaling param. (alpha)    ....   1.000
   Maximum AH scaling param. (alpha)    .... 1000.000
   Orbital update algorithm             .... Taylor
   White noise on init. David. guess    .... on
   Maximum white noise                  ....   0.010
   Quad. conv. algorithm                .... NR
 SOSCF                  CNVSOSCF        .... off
 Level Shifting         CNVShift        .... on
   Level shift para.    LevelShift      ....    0.2500
   Turn off err/grad.   ShiftErr        ....    0.0000
 Zerner damping         CNVZerner       .... off
 Static damping         CNVDamp         .... on
   Fraction old density DampFac         ....    0.9200
   Max. Damping (<1)    DampMax         ....    0.9800
   Min. Damping (>=0)   DampMin         ....    0.0000
   Turn off err/grad.   DampErr         ....    0.0030
 Fernandez-Rico         CNVRico         .... off

SCF Procedure:
 Maximum # iterations   MaxIter         ....   400
 SCF integral mode      SCFMode         .... Direct
   Integral package                     .... SHARK and LIBINT hybrid scheme
 Reset frequency        DirectResetFreq ....    20
 Integral Threshold     Thresh          ....  1.000e-10 Eh
 Primitive CutOff       TCut            ....  1.000e-11 Eh

Convergence Tolerance:
 Convergence Check Mode ConvCheckMode   .... Total+1el-Energy
 Convergence forced     ConvForced      .... 0
 Energy Change          TolE            ....  1.000e-06 Eh
 1-El. energy change                    ....  1.000e-03 Eh
 DIIS Error             TolErr          ....  1.000e-06


Diagonalization of the overlap matrix:
Smallest eigenvalue                        ... 1.068e-04
Time for diagonalization                   ...    0.191 sec
Threshold for overlap eigenvalues          ... 1.000e-08
Number of eigenvalues below threshold      ... 0
Time for construction of square roots      ...    0.225 sec
Total time needed                          ...    0.553 sec

Time for model grid setup =    2.689 sec

------------------------------
INITIAL GUESS: MODEL POTENTIAL
------------------------------
Loading Hartree-Fock densities                     ... done
  calling /media/Programs/ORCA501/orca pbeSP_atom79.inp > pbeSP_atom79.out in order to generate an atomic fitting density for atom 0 (Au with ECP) on-the-fly... 
    atom 0 (Au), assumed electronic state with S=2: 1s2 2s2 2p6 3s2 3p6 4s2 3d10 4p6 5s2 4d10 5p6 6s1 4f14 5d10           ... done
Calculating cut-offs                               ... done
Initializing the effective Hamiltonian             ... done
Setting up the integral package (SHARK)            ... done
Starting the Coulomb interaction                   ... done (   2.4 sec)
Reading the grid                                   ... done
Mapping shells                                     ... done
Starting the XC term evaluation                    ... done (   1.5 sec)
  promolecular density results
     # of electrons  =   1288.015668900
     EX              =  -5900.406721611
     EC              =    -78.554608053
     EX+EC           =  -5978.961329665
Transforming the Hamiltonian                       ... done (   0.6 sec)
Diagonalizing the Hamiltonian                      ... done (   1.0 sec)
Back transforming the eigenvectors                 ... done (   0.1 sec)
Now organizing SCF variables                       ... done
                      ------------------
                      INITIAL GUESS DONE (  10.2 sec)
                      ------------------
-------------------
DFT GRID GENERATION
-------------------

General Integration Accuracy     IntAcc      ... 4.388
Radial Grid Type                 RadialGrid  ... OptM3 with GC (2021)
Angular Grid (max. ang.)         AngularGrid ... 4 (Lebedev-302)
Angular grid pruning method      GridPruning ... 4 (adaptive)
Weight generation scheme         WeightScheme... Becke
Basis function cutoff            BFCut       ... 1.0000e-10
Integration weight cutoff        WCut        ... 1.0000e-14
Angular grids for H and He will be reduced by one unit
Partially contracted basis set               ... off
Rotationally invariant grid construction     ... off

Total number of grid points                  ...   186983
Total number of batches                      ...     2932
Average number of points per batch           ...       63
Average number of grid points per atom       ...    10999
Time for grid setup =    5.319 sec

--------------
SCF ITERATIONS
--------------
ITER       Energy         Delta-E        Max-DP      RMS-DP      [F,P]     Damp
               ***  Starting incremental Fock matrix formation  ***
  0  -3215.5412684733   0.000000000000 0.10698271  0.00059291  0.3349134 0.9200
  1  -3216.1297104715  -0.588441998151 0.09722036  0.00057503  0.2626343 0.9200
                               ***Turning on DIIS***
  2  -3216.4520787190  -0.322368247490 0.13346230  0.00049031  0.2405996 0.9200
  3  -3216.5909788999  -0.138900180948 0.08806163  0.00037722  0.2203844 0.9200
  4  -3216.6483341522  -0.057355252281 0.05381398  0.00028138  0.2019046 0.9200
  5  -3216.7082073217  -0.059873169482 0.02667340  0.00024345  0.1849063 0.9200
  6  -3216.7623227177  -0.054115395983 0.04249039  0.00019651  0.1696615 0.9200
  7  -3216.7969708673  -0.034648149662 0.05868221  0.00019129  0.1562651 0.9200
  8  -3216.8473997125  -0.050428845160 0.03863095  0.00023227  0.1438873 0.9200
  9  -3216.9038118925  -0.056412179972 0.05588782  0.00019250  0.1321804 0.9200
 10  -3216.9461057852  -0.042293892701 0.05630153  0.00015086  0.1215179 0.9200
 11  -3216.9886273306  -0.042521545423 0.04809617  0.00015317  0.1115508 0.9200
 12  -3217.0212388826  -0.032611552020 0.05736755  0.00014566  0.1024286 0.9200
 13  -3217.0527346818  -0.031495799164 0.04602364  0.00013975  0.0942116 0.9200
 14  -3217.0890087147  -0.036274032890 0.04248250  0.00014090  0.0865965 0.9200
 15  -3217.1214129811  -0.032404266475 0.04831603  0.00011791  0.0796392 0.9200
 16  -3217.1501469155  -0.028733934331 0.04024806  0.00010940  0.0732573 0.9200
 17  -3217.1766180175  -0.026471102000 0.04334242  0.00011108  0.0672801 0.9200
 18  -3217.1998069730  -0.023188955513 0.04319763  0.00010650  0.0618265 0.9200
 19  -3217.2226639206  -0.022856947661 0.02996979  0.00010004  0.0568435 0.9200
               *** Restarting incremental Fock matrix formation ***
                                   *** Resetting DIIS ***
 20  -3217.2447002598  -0.022036339214 0.02445882  0.00008732  0.0522625 0.9200
 21  -3217.2646331746  -0.019932914713 0.02358297  0.00007799  0.0479681 0.9200
 22  -3217.2830594636  -0.018426289035 0.02610708  0.00007592  0.0440390 0.9200
 23  -3217.2999874685  -0.016928004911 0.02964375  0.00007477  0.0404677 0.9200
 24  -3217.3156461359  -0.015658667387 0.02935317  0.00007194  0.0372222 0.9200
 25  -3217.3301678404  -0.014521704484 0.02567361  0.00006709  0.0342474 0.9200
 26  -3217.3435448569  -0.013377016485 0.02256314  0.00006120  0.0314967 0.9200
 27  -3217.3559464983  -0.012401641444 0.02086370  0.00005815  0.0289578 0.9200
 28  -3217.3673677457  -0.011421247343 0.02107724  0.00005561  0.0266214 0.9200
 29  -3217.3779233336  -0.010555587968 0.02009356  0.00005265  0.0244824 0.9200
 30  -3217.3876777108  -0.009754377157 0.01814645  0.00004868  0.0225194 0.9200
 31  -3217.3966676027  -0.008989891895 0.01598247  0.00004474  0.0207131 0.9200
 32  -3217.4049851673  -0.008317564665 0.01478711  0.00004228  0.0190466 0.9200
 33  -3217.4126490076  -0.007663840277 0.01460922  0.00004004  0.0175119 0.9200
 34  -3217.4197262389  -0.007077231292 0.01387655  0.00003762  0.0161042 0.9200
 35  -3217.4262513782  -0.006525139255 0.01257410  0.00003465  0.0148121 0.9200
 36  -3217.4322706672  -0.006019289074 0.01127758  0.00003210  0.0136238 0.9200
 37  -3217.4378286295  -0.005557962226 0.01076773  0.00003033  0.0125280 0.9200
 38  -3217.4429500683  -0.005121438857 0.01064408  0.00002862  0.0115195 0.9200
 39  -3217.4476740964  -0.004724028094 0.00602183  0.00002325  0.0105938 0.9200
               *** Restarting incremental Fock matrix formation ***
                                   *** Resetting DIIS ***
 40  -3217.4520281234  -0.004354027019 0.00554063  0.00002106  0.0097438 0.9200
 41  -3217.4560464259  -0.004018302487 0.00515496  0.00001945  0.0089475 0.9200
 42  -3217.4597505573  -0.003704131406 0.00480088  0.00001857  0.0082186 0.9200
 43  -3217.4631629727  -0.003412415406 0.00527633  0.00001812  0.0075548 0.9200
 44  -3217.4663059688  -0.003142996095 0.00546272  0.00001759  0.0069485 0.9200
 45  -3217.4692010620  -0.002895093141 0.00531912  0.00001669  0.0063921 0.9200
 46  -3217.4718683346  -0.002667272669 0.00549680  0.00001578  0.0058787 0.9200
 47  -3217.4743255938  -0.002457259120 0.00559803  0.00001493  0.0054059 0.9200
 48  -3217.4765890054  -0.002263411656 0.00554274  0.00001409  0.0049714 0.9200
 49  -3217.4786736807  -0.002084675295 0.00539649  0.00001322  0.0045724 0.9200
 50  -3217.4805937703  -0.001920089639 0.00525057  0.00001240  0.0042056 0.9200
 51  -3217.4823623776  -0.001768607231 0.00502106  0.00001160  0.0038680 0.9200
 52  -3217.4839912285  -0.001628850928 0.00482781  0.00001089  0.0035573 0.9200
 53  -3217.4854912323  -0.001500003812 0.00461916  0.00001019  0.0032715 0.9200
 54  -3217.4868725278  -0.001381295519 0.00441046  0.00000952  0.0030089 0.9200
 55  -3217.4881445214  -0.001271993562 0.05094215  0.00011014  0.0027674 0.0000
 56  -3217.5028578774  -0.014713356005 0.00596233  0.00000953  0.0002147 0.0000
 57  -3217.5028581463  -0.000000268940 0.00185448  0.00000357  0.0005265 0.0000
 58  -3217.5028612891  -0.000003142716 0.00351789  0.00000457  0.0001588 0.0000
 59  -3217.5028623275  -0.000001038459 0.04035760  0.00005068  0.0000526 0.0000
               *** Restarting incremental Fock matrix formation ***
                                   *** Resetting DIIS ***
 60  -3217.5028642960  -0.000001968497 0.00458931  0.00000606  0.0000479 0.0000
 61  -3217.5028649211  -0.000000625112 0.00247941  0.00000328  0.0000355 0.0000
 62  -3217.5028652877  -0.000000366573 0.00206617  0.00000336  0.0000369 0.0000
 63  -3217.5028654811  -0.000000193431 0.00257091  0.00000448  0.0000665 0.0000
 64  -3217.5028656770  -0.000000195895 0.00350096  0.00000592  0.0000292 0.0000
 65  -3217.5028661329  -0.000000455880 0.00068811  0.00000124  0.0000395 0.0000
 66  -3217.5028661856  -0.000000052658 0.00433388  0.00000667  0.0000275 0.0000
 67  -3217.5028664446  -0.000000259002 0.00078025  0.00000127  0.0000322 0.0000
 68  -3217.5028663956   0.000000048991 0.00112210  0.00000182  0.0000269 0.0000
 69  -3217.5028666056  -0.000000209996 0.00062185  0.00000111  0.0000251 0.0000
 70  -3217.5028668452  -0.000000239643 0.00204162  0.00000283  0.0000252 0.0000
 71  -3217.5028668573  -0.000000012081 0.00059395  0.00000097  0.0000250 0.0000
                 **** Energy Check signals convergence ****

               *****************************************************
               *                     SUCCESS                       *
               *           SCF CONVERGED AFTER  72 CYCLES          *
               *****************************************************


----------------
TOTAL SCF ENERGY
----------------

Total Energy       :        -3217.50286722 Eh          -87552.70411 eV

Components:
Nuclear Repulsion  :         6930.21910000 Eh          188580.84898 eV
Electronic Energy  :       -10147.72196722 Eh         -276133.55309 eV
One Electron Energy:       -19102.64783395 Eh         -519809.47416 eV
Two Electron Energy:         8954.92586673 Eh          243675.92108 eV

Virial components:
Potential Energy   :        -4992.77199782 Eh         -135860.23306 eV
Kinetic Energy     :         1775.26913059 Eh           48307.52895 eV
Virial Ratio       :            2.81240287


DFT components:
N(Alpha)           :      165.999978933075 electrons
N(Beta)            :      161.999978918979 electrons
N(Total)           :      327.999957852053 electrons
E(X)               :     -240.305593147709 Eh       
E(C)               :      -14.308791081223 Eh       
E(XC)              :     -254.614384228932 Eh       
DFET-embed. en.    :        0.000000000000 Eh       

---------------
SCF CONVERGENCE
---------------

  Last Energy change         ...   -3.6591e-07  Tolerance :   1.0000e-06
  Last MAX-Density change    ...    1.6029e-03  Tolerance :   1.0000e-05
  Last RMS-Density change    ...    2.3686e-06  Tolerance :   1.0000e-06
  Last DIIS Error            ...    2.5167e-05  Tolerance :   1.0000e-06

             **** THE GBW FILE WAS UPDATED (pbeSP.gbw) ****
             **** DENSITY pbeSP.scfp WAS UPDATED ****
             **** ENERGY FILE WAS UPDATED (pbeSP.en.tmp) ****
----------------------
UHF SPIN CONTAMINATION
----------------------

Warning: in a DFT calculation there is little theoretical justification to 
         calculate <S**2> as in Hartree-Fock theory. We will do it anyways
         but you should keep in mind that the values have only limited relevance

Expectation value of <S**2>     :     6.282358
Ideal value S*(S+1) for S=2.0   :     6.000000
Deviation                       :     0.282358

             **** THE GBW FILE WAS UPDATED (pbeSP.gbw) ****
             **** DENSITY pbeSP.scfp WAS UPDATED ****
----------------
ORBITAL ENERGIES
----------------
                 SPIN UP ORBITALS
  NO   OCC          E(Eh)            E(eV) 
   0   1.0000    -214.482998     -5836.3791 
   1   1.0000     -24.280779      -660.7136 
   2   1.0000     -20.646012      -561.8066 
   3   1.0000     -20.645110      -561.7820 
   4   1.0000     -20.640384      -561.6534 
   5   1.0000      -4.036108      -109.8281 
   6   1.0000      -4.035660      -109.8159 
   7   1.0000      -4.034846      -109.7938 
   8   1.0000      -4.034641      -109.7882 
   9   1.0000      -4.031551      -109.7041 
  10   1.0000      -4.030456      -109.6743 
  11   1.0000      -4.028038      -109.6085 
  12   1.0000      -4.027216      -109.5861 
  13   1.0000      -4.026825      -109.5755 
  14   1.0000      -4.026103      -109.5558 
  15   1.0000      -4.024723      -109.5183 
  16   1.0000      -4.022524      -109.4584 
  17   1.0000      -4.022180      -109.4491 
  18   1.0000      -4.022172      -109.4489 
  19   1.0000      -4.021759      -109.4376 
  20   1.0000      -4.019656      -109.3804 
  21   1.0000      -2.791708       -75.9662 
  22   1.0000      -2.252591       -61.2961 
  23   1.0000      -2.251492       -61.2662 
  24   1.0000      -2.250544       -61.2404 
  25   1.0000      -2.250157       -61.2299 
  26   1.0000      -2.249711       -61.2177 
  27   1.0000      -2.249415       -61.2097 
  28   1.0000      -2.248090       -61.1736 
  29   1.0000      -2.248033       -61.1721 
  30   1.0000      -2.247325       -61.1528 
  31   1.0000      -2.245581       -61.1054 
  32   1.0000      -2.245316       -61.0982 
  33   1.0000      -2.245152       -61.0937 
  34   1.0000      -2.245042       -61.0907 
  35   1.0000      -2.244800       -61.0841 
  36   1.0000      -2.244342       -61.0717 
  37   1.0000      -2.243908       -61.0598 
  38   1.0000      -2.243757       -61.0557 
  39   1.0000      -2.243340       -61.0444 
  40   1.0000      -2.242015       -61.0083 
  41   1.0000      -2.241546       -60.9956 
  42   1.0000      -2.241308       -60.9891 
  43   1.0000      -2.241101       -60.9835 
  44   1.0000      -2.240624       -60.9705 
  45   1.0000      -2.240395       -60.9643 
  46   1.0000      -2.240146       -60.9575 
  47   1.0000      -2.239918       -60.9513 
  48   1.0000      -2.239756       -60.9469 
  49   1.0000      -2.239252       -60.9332 
  50   1.0000      -2.237829       -60.8944 
  51   1.0000      -2.237533       -60.8864 
  52   1.0000      -2.237312       -60.8804 
  53   1.0000      -2.237173       -60.8766 
  54   1.0000      -2.236950       -60.8705 
  55   1.0000      -2.236596       -60.8609 
  56   1.0000      -2.235995       -60.8445 
  57   1.0000      -2.235792       -60.8390 
  58   1.0000      -2.235328       -60.8264 
  59   1.0000      -2.234984       -60.8170 
  60   1.0000      -2.234691       -60.8090 
  61   1.0000      -2.234633       -60.8074 
  62   1.0000      -2.234564       -60.8056 
  63   1.0000      -2.234119       -60.7935 
  64   1.0000      -2.233385       -60.7735 
  65   1.0000      -2.232738       -60.7559 
  66   1.0000      -2.232110       -60.7388 
  67   1.0000      -2.231622       -60.7255 
  68   1.0000      -2.231035       -60.7095 
  69   1.0000      -2.230243       -60.6880 
  70   1.0000      -1.784692       -48.5639 
  71   1.0000      -1.783791       -48.5394 
  72   1.0000      -1.777075       -48.3567 
  73   1.0000      -0.428136       -11.6502 
  74   1.0000      -0.395161       -10.7529 
  75   1.0000      -0.385457       -10.4888 
  76   1.0000      -0.384846       -10.4722 
  77   1.0000      -0.373141       -10.1537 
  78   1.0000      -0.369993       -10.0680 
  79   1.0000      -0.369235       -10.0474 
  80   1.0000      -0.368806       -10.0357 
  81   1.0000      -0.366173        -9.9641 
  82   1.0000      -0.363606        -9.8942 
  83   1.0000      -0.360635        -9.8134 
  84   1.0000      -0.359337        -9.7780 
  85   1.0000      -0.355213        -9.6659 
  86   1.0000      -0.353688        -9.6243 
  87   1.0000      -0.352708        -9.5977 
  88   1.0000      -0.351506        -9.5650 
  89   1.0000      -0.350650        -9.5417 
  90   1.0000      -0.350224        -9.5301 
  91   1.0000      -0.348963        -9.4958 
  92   1.0000      -0.346846        -9.4382 
  93   1.0000      -0.345145        -9.3919 
  94   1.0000      -0.342237        -9.3127 
  95   1.0000      -0.341746        -9.2994 
  96   1.0000      -0.336849        -9.1661 
  97   1.0000      -0.335746        -9.1361 
  98   1.0000      -0.333710        -9.0807 
  99   1.0000      -0.332678        -9.0526 
 100   1.0000      -0.330535        -8.9943 
 101   1.0000      -0.329111        -8.9556 
 102   1.0000      -0.327902        -8.9227 
 103   1.0000      -0.323552        -8.8043 
 104   1.0000      -0.321216        -8.7407 
 105   1.0000      -0.319677        -8.6989 
 106   1.0000      -0.315454        -8.5840 
 107   1.0000      -0.313511        -8.5311 
 108   1.0000      -0.312473        -8.5028 
 109   1.0000      -0.311308        -8.4711 
 110   1.0000      -0.310773        -8.4566 
 111   1.0000      -0.306871        -8.3504 
 112   1.0000      -0.305049        -8.3008 
 113   1.0000      -0.299454        -8.1486 
 114   1.0000      -0.295844        -8.0503 
 115   1.0000      -0.292765        -7.9665 
 116   1.0000      -0.291132        -7.9221 
 117   1.0000      -0.290613        -7.9080 
 118   1.0000      -0.289511        -7.8780 
 119   1.0000      -0.287918        -7.8347 
 120   1.0000      -0.287494        -7.8231 
 121   1.0000      -0.282338        -7.6828 
 122   1.0000      -0.280995        -7.6463 
 123   1.0000      -0.280449        -7.6314 
 124   1.0000      -0.279892        -7.6162 
 125   1.0000      -0.277942        -7.5632 
 126   1.0000      -0.277013        -7.5379 
 127   1.0000      -0.275239        -7.4896 
 128   1.0000      -0.272749        -7.4219 
 129   1.0000      -0.272654        -7.4193 
 130   1.0000      -0.269322        -7.3286 
 131   1.0000      -0.268754        -7.3132 
 132   1.0000      -0.268436        -7.3045 
 133   1.0000      -0.266013        -7.2386 
 134   1.0000      -0.265007        -7.2112 
 135   1.0000      -0.264745        -7.2041 
 136   1.0000      -0.263743        -7.1768 
 137   1.0000      -0.261353        -7.1118 
 138   1.0000      -0.260989        -7.1019 
 139   1.0000      -0.259021        -7.0483 
 140   1.0000      -0.257596        -7.0095 
 141   1.0000      -0.257399        -7.0042 
 142   1.0000      -0.256501        -6.9797 
 143   1.0000      -0.253794        -6.9061 
 144   1.0000      -0.253154        -6.8887 
 145   1.0000      -0.252604        -6.8737 
 146   1.0000      -0.251729        -6.8499 
 147   1.0000      -0.251101        -6.8328 
 148   1.0000      -0.249385        -6.7861 
 149   1.0000      -0.248382        -6.7588 
 150   1.0000      -0.245767        -6.6877 
 151   1.0000      -0.245216        -6.6727 
 152   1.0000      -0.244425        -6.6512 
 153   1.0000      -0.242387        -6.5957 
 154   1.0000      -0.240595        -6.5469 
 155   1.0000      -0.238188        -6.4814 
 156   1.0000      -0.232509        -6.3269 
 157   1.0000      -0.227613        -6.1937 
 158   1.0000      -0.224514        -6.1093 
 159   1.0000      -0.223857        -6.0915 
 160   1.0000      -0.220090        -5.9889 
 161   1.0000      -0.212633        -5.7860 
 162   1.0000      -0.202338        -5.5059 
 163   1.0000      -0.196740        -5.3536 
 164   1.0000      -0.192843        -5.2475 
 165   1.0000      -0.182037        -4.9535 
 166   0.0000      -0.176714        -4.8086 
 167   0.0000      -0.163465        -4.4481 
 168   0.0000      -0.138195        -3.7605 
 169   0.0000      -0.137520        -3.7421 
 170   0.0000      -0.133190        -3.6243 
 171   0.0000      -0.127001        -3.4559 
 172   0.0000      -0.125974        -3.4279 
 173   0.0000      -0.111824        -3.0429 
 174   0.0000      -0.108522        -2.9530 
 175   0.0000      -0.079580        -2.1655 
 176   0.0000      -0.069031        -1.8784 
 177   0.0000      -0.066688        -1.8147 
 178   0.0000      -0.063348        -1.7238 
 179   0.0000      -0.044628        -1.2144 
 180   0.0000      -0.039226        -1.0674 
 181   0.0000      -0.032779        -0.8920 
 182   0.0000      -0.031145        -0.8475 
 183   0.0000      -0.028414        -0.7732 
 184   0.0000      -0.016406        -0.4464 
 185   0.0000      -0.015277        -0.4157 
 186   0.0000      -0.007204        -0.1960 
 187   0.0000       0.000196         0.0053 
 188   0.0000       0.013563         0.3691 
 189   0.0000       0.016337         0.4446 
 190   0.0000       0.020207         0.5499 
 191   0.0000       0.030296         0.8244 
 192   0.0000       0.037955         1.0328 
 193   0.0000       0.040520         1.1026 
 194   0.0000       0.041728         1.1355 
 195   0.0000       0.051506         1.4016 
 196   0.0000       0.055638         1.5140 
 197   0.0000       0.058158         1.5826 
 198   0.0000       0.060779         1.6539 
 199   0.0000       0.063281         1.7220 
 200   0.0000       0.064553         1.7566 
 201   0.0000       0.065682         1.7873 
 202   0.0000       0.071264         1.9392 
 203   0.0000       0.073211         1.9922 
 204   0.0000       0.075563         2.0562 
 205   0.0000       0.079300         2.1579 
 206   0.0000       0.080795         2.1985 
 207   0.0000       0.085400         2.3239 
 208   0.0000       0.087453         2.3797 
 209   0.0000       0.093657         2.5485 
 210   0.0000       0.099569         2.7094 
 211   0.0000       0.108828         2.9614 
 212   0.0000       0.110149         2.9973 
 213   0.0000       0.112529         3.0621 
 214   0.0000       0.118847         3.2340 
 215   0.0000       0.123158         3.3513 
 216   0.0000       0.126328         3.4376 
 217   0.0000       0.127192         3.4611 
 218   0.0000       0.130841         3.5604 
 219   0.0000       0.137810         3.7500 
 220   0.0000       0.144374         3.9286 
 221   0.0000       0.144913         3.9433 
 222   0.0000       0.151690         4.1277 
 223   0.0000       0.152563         4.1515 
 224   0.0000       0.155303         4.2260 
 225   0.0000       0.158671         4.3177 
 226   0.0000       0.160502         4.3675 
 227   0.0000       0.167143         4.5482 
 228   0.0000       0.169733         4.6187 
 229   0.0000       0.173386         4.7181 
 230   0.0000       0.182008         4.9527 
 231   0.0000       0.184283         5.0146 
 232   0.0000       0.193296         5.2598 
 233   0.0000       0.198414         5.3991 
 234   0.0000       0.201868         5.4931 
 235   0.0000       0.206316         5.6141 
 236   0.0000       0.207697         5.6517 
 237   0.0000       0.217662         5.9229 
 238   0.0000       0.219762         5.9800 
 239   0.0000       0.222905         6.0655 
 240   0.0000       0.225640         6.1400 
 241   0.0000       0.226260         6.1569 
 242   0.0000       0.232823         6.3354 
 243   0.0000       0.235701         6.4138 
 244   0.0000       0.241379         6.5683 
 245   0.0000       0.243745         6.6326 
 246   0.0000       0.247614         6.7379 
 247   0.0000       0.254246         6.9184 
 248   0.0000       0.258806         7.0425 
 249   0.0000       0.263980         7.1833 
 250   0.0000       0.271070         7.3762 
 251   0.0000       0.272775         7.4226 
 252   0.0000       0.274703         7.4751 
 253   0.0000       0.281956         7.6724 
 254   0.0000       0.287025         7.8103 
 255   0.0000       0.290212         7.8971 
 256   0.0000       0.294903         8.0247 
 257   0.0000       0.297153         8.0860 
 258   0.0000       0.297977         8.1084 
 259   0.0000       0.311631         8.4799 
 260   0.0000       0.311966         8.4890 
 261   0.0000       0.317751         8.6464 
 262   0.0000       0.320275         8.7151 
 263   0.0000       0.321230         8.7411 
 264   0.0000       0.329495         8.9660 
 265   0.0000       0.335183         9.1208 
 266   0.0000       0.336700         9.1621 
 267   0.0000       0.339334         9.2338 
 268   0.0000       0.342168         9.3109 
 269   0.0000       0.348271         9.4769 
 270   0.0000       0.349410         9.5079 
 271   0.0000       0.353285         9.6134 
 272   0.0000       0.358173         9.7464 
 273   0.0000       0.362129         9.8540 
 274   0.0000       0.363743         9.8979 
 275   0.0000       0.371539        10.1101 
 276   0.0000       0.373204        10.1554 
 277   0.0000       0.379626        10.3302 
 278   0.0000       0.382582        10.4106 
 279   0.0000       0.386703        10.5227 
 280   0.0000       0.389793        10.6068 
 281   0.0000       0.393069        10.6959 
 282   0.0000       0.394834        10.7440 
 283   0.0000       0.399010        10.8576 
 284   0.0000       0.402299        10.9471 
 285   0.0000       0.408521        11.1164 
 286   0.0000       0.412015        11.2115 
 287   0.0000       0.414517        11.2796 
 288   0.0000       0.417019        11.3477 
 289   0.0000       0.420661        11.4468 
 290   0.0000       0.424747        11.5580 
 291   0.0000       0.435165        11.8414 
 292   0.0000       0.436837        11.8869 
 293   0.0000       0.438762        11.9393 
 294   0.0000       0.440096        11.9756 
 295   0.0000       0.448269        12.1980 
 296   0.0000       0.450611        12.2618 
 297   0.0000       0.453335        12.3359 
 298   0.0000       0.464658        12.6440 
 299   0.0000       0.469522        12.7763 
 300   0.0000       0.472916        12.8687 
 301   0.0000       0.477372        12.9899 
 302   0.0000       0.479536        13.0488 
 303   0.0000       0.483511        13.1570 
 304   0.0000       0.488127        13.2826 
 305   0.0000       0.489140        13.3102 
 306   0.0000       0.493391        13.4259 
 307   0.0000       0.494990        13.4694 
 308   0.0000       0.504056        13.7160 
 309   0.0000       0.505399        13.7526 
 310   0.0000       0.507832        13.8188 
 311   0.0000       0.513456        13.9718 
 312   0.0000       0.520884        14.1740 
 313   0.0000       0.523245        14.2382 
 314   0.0000       0.525412        14.2972 
 315   0.0000       0.527700        14.3594 
 316   0.0000       0.533380        14.5140 
 317   0.0000       0.536539        14.6000 
 318   0.0000       0.537401        14.6234 
 319   0.0000       0.539793        14.6885 
 320   0.0000       0.541380        14.7317 
 321   0.0000       0.548337        14.9210 
 322   0.0000       0.550284        14.9740 
 323   0.0000       0.552692        15.0395 
 324   0.0000       0.555679        15.1208 
 325   0.0000       0.561788        15.2870 
 326   0.0000       0.579343        15.7647 
 327   0.0000       0.583184        15.8692 
 328   0.0000       0.584846        15.9145 
 329   0.0000       0.594493        16.1770 
 330   0.0000       0.602451        16.3935 
 331   0.0000       0.618977        16.8432 
 332   0.0000       0.625812        17.0292 
 333   0.0000       0.660786        17.9809 
 334   0.0000       0.669560        18.2197 
 335   0.0000       0.683780        18.6066 
 336   0.0000       0.688852        18.7446 
 337   0.0000       0.694531        18.8991 
 338   0.0000       0.705822        19.2064 
 339   0.0000       0.728102        19.8127 
 340   0.0000       0.730107        19.8672 
 341   0.0000       0.744259        20.2523 
 342   0.0000       0.749186        20.3864 
 343   0.0000       0.754768        20.5383 
 344   0.0000       0.763739        20.7824 
 345   0.0000       0.767788        20.8926 
 346   0.0000       0.770134        20.9564 
 347   0.0000       0.776659        21.1340 
 348   0.0000       0.782662        21.2973 
 349   0.0000       0.798898        21.7391 
 350   0.0000       0.804189        21.8831 
 351   0.0000       0.811235        22.0748 
 352   0.0000       0.818591        22.2750 
 353   0.0000       0.830618        22.6023 
 354   0.0000       0.835668        22.7397 
 355   0.0000       0.844552        22.9814 
 356   0.0000       0.850611        23.1463 
 357   0.0000       0.860794        23.4234 
 358   0.0000       0.869573        23.6623 
 359   0.0000       0.878360        23.9014 
 360   0.0000       0.883920        24.0527 
 361   0.0000       0.888468        24.1764 
 362   0.0000       0.897992        24.4356 
 363   0.0000       0.904445        24.6112 
 364   0.0000       0.908141        24.7118 
 365   0.0000       0.923813        25.1382 
 366   0.0000       0.927244        25.2316 
 367   0.0000       0.939002        25.5515 
 368   0.0000       0.942439        25.6451 
 369   0.0000       0.953918        25.9574 
 370   0.0000       0.961309        26.1585 
 371   0.0000       0.976662        26.5763 
 372   0.0000       0.986626        26.8475 
 373   0.0000       0.999454        27.1965 
 374   0.0000       1.007406        27.4129 
 375   0.0000       1.048971        28.5439 
 376   0.0000       1.074676        29.2434 
 377   0.0000       1.090057        29.6620 
 378   0.0000       1.172458        31.9042 
 379   0.0000       1.186907        32.2974 
 380   0.0000       1.195567        32.5330 
 381   0.0000       1.209150        32.9026 
 382   0.0000       1.214007        33.0348 
 383   0.0000       1.217003        33.1163 
 384   0.0000       1.229650        33.4605 
 385   0.0000       1.243951        33.8496 
 386   0.0000       1.265002        34.4224 
 387   0.0000       1.270212        34.5642 
 388   0.0000       1.272310        34.6213 
 389   0.0000       1.281117        34.8610 
 390   0.0000       1.288456        35.0607 
 391   0.0000       1.303993        35.4835 
 392   0.0000       1.311645        35.6917 
 393   0.0000       1.313134        35.7322 
 394   0.0000       1.314437        35.7676 
 395   0.0000       1.320873        35.9428 
 396   0.0000       1.322336        35.9826 
 397   0.0000       1.328745        36.1570 
 398   0.0000       1.335777        36.3483 
 399   0.0000       1.339483        36.4492 
 400   0.0000       1.343584        36.5608 
 401   0.0000       1.346445        36.6386 
 402   0.0000       1.356429        36.9103 
 403   0.0000       1.357433        36.9376 
 404   0.0000       1.359590        36.9963 
 405   0.0000       1.367852        37.2211 
 406   0.0000       1.373846        37.3842 
 407   0.0000       1.378261        37.5044 
 408   0.0000       1.383064        37.6351 
 409   0.0000       1.392019        37.8788 
 410   0.0000       1.394210        37.9384 
 411   0.0000       1.396976        38.0137 
 412   0.0000       1.403171        38.1822 
 413   0.0000       1.408493        38.3271 
 414   0.0000       1.410692        38.3869 
 415   0.0000       1.411990        38.4222 
 416   0.0000       1.412691        38.4413 
 417   0.0000       1.417917        38.5835 
 418   0.0000       1.419809        38.6350 
 419   0.0000       1.421969        38.6937 
 420   0.0000       1.426406        38.8145 
 421   0.0000       1.428549        38.8728 
 422   0.0000       1.430431        38.9240 
 423   0.0000       1.433702        39.0130 
 424   0.0000       1.435358        39.0581 
 425   0.0000       1.441234        39.2180 
 426   0.0000       1.447419        39.3863 
 427   0.0000       1.449964        39.4555 
 428   0.0000       1.451779        39.5049 
 429   0.0000       1.455179        39.5974 
 430   0.0000       1.456017        39.6202 
 431   0.0000       1.459664        39.7195 
 432   0.0000       1.460709        39.7479 
 433   0.0000       1.462781        39.8043 
 434   0.0000       1.465462        39.8772 
 435   0.0000       1.468477        39.9593 
 436   0.0000       1.469668        39.9917 
 437   0.0000       1.471305        40.0362 
 438   0.0000       1.473042        40.0835 
 439   0.0000       1.477108        40.1941 
 440   0.0000       1.479526        40.2600 
 441   0.0000       1.483649        40.3722 
 442   0.0000       1.485574        40.4245 
 443   0.0000       1.485887        40.4330 
 444   0.0000       1.487748        40.4837 
 445   0.0000       1.488528        40.5049 
 446   0.0000       1.489262        40.5249 
 447   0.0000       1.491730        40.5920 
 448   0.0000       1.493620        40.6435 
 449   0.0000       1.495363        40.6909 
 450   0.0000       1.498145        40.7666 
 451   0.0000       1.499433        40.8016 
 452   0.0000       1.501660        40.8622 
 453   0.0000       1.502264        40.8787 
 454   0.0000       1.504288        40.9338 
 455   0.0000       1.504766        40.9468 
 456   0.0000       1.505545        40.9680 
 457   0.0000       1.505652        40.9709 
 458   0.0000       1.507564        41.0229 
 459   0.0000       1.508850        41.0579 
 460   0.0000       1.510072        41.0912 
 461   0.0000       1.510800        41.1109 
 462   0.0000       1.513279        41.1784 
 463   0.0000       1.513961        41.1970 
 464   0.0000       1.514156        41.2023 
 465   0.0000       1.514472        41.2109 
 466   0.0000       1.516466        41.2651 
 467   0.0000       1.517452        41.2920 
 468   0.0000       1.518680        41.3254 
 469   0.0000       1.518729        41.3267 
 470   0.0000       1.522206        41.4213 
 471   0.0000       1.524201        41.4756 
 472   0.0000       1.525458        41.5098 
 473   0.0000       1.526127        41.5280 
 474   0.0000       1.527507        41.5656 
 475   0.0000       1.528200        41.5844 
 476   0.0000       1.529717        41.6257 
 477   0.0000       1.531484        41.6738 
 478   0.0000       1.532703        41.7070 
 479   0.0000       1.535462        41.7820 
 480   0.0000       1.536487        41.8099 
 481   0.0000       1.539316        41.8869 
 482   0.0000       1.541381        41.9431 
 483   0.0000       1.543825        42.0096 
 484   0.0000       1.546059        42.0704 
 485   0.0000       1.548271        42.1306 
 486   0.0000       1.549772        42.1714 
 487   0.0000       1.551769        42.2258 
 488   0.0000       1.552067        42.2339 
 489   0.0000       1.556462        42.3535 
 490   0.0000       1.561392        42.4876 
 491   0.0000       1.563860        42.5548 
 492   0.0000       1.565821        42.6082 
 493   0.0000       1.568499        42.6810 
 494   0.0000       1.569610        42.7113 
 495   0.0000       1.572917        42.8013 
 496   0.0000       1.573335        42.8126 
 497   0.0000       1.577659        42.9303 
 498   0.0000       1.579352        42.9764 
 499   0.0000       1.581100        43.0239 
 500   0.0000       1.586398        43.1681 
 501   0.0000       1.586595        43.1734 
 502   0.0000       1.588839        43.2345 
 503   0.0000       1.592723        43.3402 
 504   0.0000       1.595123        43.4055 
 505   0.0000       1.595703        43.4213 
 506   0.0000       1.596877        43.4532 
 507   0.0000       1.598071        43.4857 
 508   0.0000       1.599362        43.5209 
 509   0.0000       1.601412        43.5766 
 510   0.0000       1.601643        43.5829 
 511   0.0000       1.608846        43.7789 
 512   0.0000       1.610803        43.8322 
 513   0.0000       1.612448        43.8769 
 514   0.0000       1.615668        43.9645 
 515   0.0000       1.617459        44.0133 
 516   0.0000       1.621591        44.1257 
 517   0.0000       1.622400        44.1478 
 518   0.0000       1.626539        44.2604 
 519   0.0000       1.628695        44.3190 
 520   0.0000       1.630700        44.3736 
 521   0.0000       1.633871        44.4599 
 522   0.0000       1.635835        44.5133 
 523   0.0000       1.641484        44.6671 
 524   0.0000       1.643921        44.7334 
 525   0.0000       1.647727        44.8369 
 526   0.0000       1.654090        45.0101 
 527   0.0000       1.659073        45.1457 
 528   0.0000       1.660716        45.1904 
 529   0.0000       1.668215        45.3944 
 530   0.0000       1.673228        45.5309 
 531   0.0000       1.677968        45.6598 
 532   0.0000       1.682793        45.7911 
 533   0.0000       1.688607        45.9493 
 534   0.0000       1.692433        46.0535 
 535   0.0000       1.694417        46.1074 
 536   0.0000       1.696598        46.1668 
 537   0.0000       1.706146        46.4266 
 538   0.0000       1.711782        46.5799 
 539   0.0000       1.715886        46.6916 
 540   0.0000       1.719501        46.7900 
 541   0.0000       1.730203        47.0812 
 542   0.0000       1.732422        47.1416 
 543   0.0000       1.738607        47.3099 
 544   0.0000       1.744607        47.4732 
 545   0.0000       1.750212        47.6257 
 546   0.0000       1.760630        47.9092 
 547   0.0000       1.767746        48.1028 
 548   0.0000       1.772563        48.2339 
 549   0.0000       1.778731        48.4017 
 550   0.0000       1.781387        48.4740 
 551   0.0000       1.781858        48.4868 
 552   0.0000       1.788531        48.6684 
 553   0.0000       1.789793        48.7027 
 554   0.0000       1.801222        49.0137 
 555   0.0000       1.820175        49.5295 
 556   0.0000       1.820974        49.5512 
 557   0.0000       1.824037        49.6346 
 558   0.0000       1.836038        49.9611 
 559   0.0000       1.840213        50.0747 
 560   0.0000       1.842772        50.1444 
 561   0.0000       1.847898        50.2839 
 562   0.0000       1.851314        50.3768 
 563   0.0000       1.862287        50.6754 
 564   0.0000       1.868360        50.8407 
 565   0.0000       1.886058        51.3223 
 566   0.0000       1.890701        51.4486 
 567   0.0000       1.908587        51.9353 
 568   0.0000       1.911134        52.0046 
 569   0.0000       1.935273        52.6614 
 570   0.0000       1.951250        53.0962 
 571   0.0000       1.979232        53.8576 
 572   0.0000       1.985908        54.0393 
 573   0.0000       2.091138        56.9028 
 574   0.0000       2.185337        59.4660 
 575   0.0000       2.207415        60.0668 
 576   0.0000       2.214358        60.2558 
 577   0.0000       2.283068        62.1254 
 578   0.0000       2.307029        62.7775 
 579   0.0000       2.318122        63.0793 
 580   0.0000       2.360518        64.2329 
 581   0.0000       2.369880        64.4877 
 582   0.0000       2.392903        65.1142 
 583   0.0000       2.412241        65.6404 
 584   0.0000       2.435526        66.2740 
 585   0.0000       2.441067        66.4248 
 586   0.0000       2.446349        66.5686 
 587   0.0000       2.473683        67.3123 
 588   0.0000       2.497591        67.9629 
 589   0.0000       2.505121        68.1678 
 590   0.0000       2.527456        68.7756 
 591   0.0000       2.535802        69.0027 
 592   0.0000       2.542852        69.1945 
 593   0.0000       2.573015        70.0153 
 594   0.0000       2.579437        70.1900 
 595   0.0000       2.598872        70.7189 
 596   0.0000       2.624723        71.4224 
 597   0.0000       2.846968        77.4699 
 598   0.0000       2.858092        77.7726 
 599   0.0000       2.864605        77.9499 
 600   0.0000       2.871278        78.1315 
 601   0.0000       2.878159        78.3187 
 602   0.0000       2.880885        78.3929 
 603   0.0000       2.899605        78.9023 
 604   0.0000       2.933012        79.8113 
 605   0.0000      23.872315       649.5987 
 606   0.0000      24.081913       655.3022 
 607   0.0000      24.171429       657.7380 
 608   0.0000      24.370544       663.1562 
 609   0.0000      24.394890       663.8187 
 610   0.0000      24.544850       667.8993 
 611   0.0000      24.850347       676.2123 
 612   0.0000      24.935204       678.5214 
 613   0.0000      24.985691       679.8952 
 614   0.0000      25.122387       683.6149 
 615   0.0000      25.327564       689.1981 
 616   0.0000      25.354427       689.9290 
 617   0.0000      25.401910       691.2211 
 618   0.0000      25.521937       694.4872 
 619   0.0000      25.592385       696.4042 
 620   0.0000      25.722302       699.9394 
 621   0.0000      25.856362       703.5874 
 622   0.0000      25.918530       705.2791 
 623   0.0000      26.033014       708.3943 
 624   0.0000      26.052901       708.9355 
 625   0.0000      26.080779       709.6941 
 626   0.0000      26.113812       710.5929 
 627   0.0000      26.297339       715.5870 
 628   0.0000      26.449189       719.7190 
 629   0.0000      26.508963       721.3456 
 630   0.0000      26.561837       722.7843 
 631   0.0000      26.652526       725.2521 
 632   0.0000      26.743523       727.7283 
 633   0.0000      26.769809       728.4435 
 634   0.0000      26.844374       730.4726 
 635   0.0000      26.893831       731.8184 
 636   0.0000      27.003834       734.8117 
 637   0.0000      27.076467       736.7881 
 638   0.0000      27.169779       739.3273 
 639   0.0000      27.276938       742.2432 
 640   0.0000      27.371839       744.8256 
 641   0.0000      27.531189       749.1617 
 642   0.0000      27.569471       750.2035 
 643   0.0000      27.611206       751.3391 
 644   0.0000      27.665342       752.8122 
 645   0.0000      27.764584       755.5128 
 646   0.0000      27.895371       759.0716 
 647   0.0000      28.088308       764.3217 
 648   0.0000      28.179583       766.8054 
 649   0.0000      28.479961       774.9791 
 650   0.0000      29.448655       801.3386 
 651   0.0000      30.067668       818.1829 
 652   0.0000      30.399888       827.2230 
 653   0.0000      43.915578      1195.0036 
 654   0.0000      44.017298      1197.7716 
 655   0.0000      44.032648      1198.1893 
 656   0.0000      44.061088      1198.9632 
 657   0.0000      44.078461      1199.4359 
 658   0.0000      44.130895      1200.8627 
 659   0.0000      44.135008      1200.9746 
 660   0.0000      44.147753      1201.3214 
 661   0.0000      44.164473      1201.7764 
 662   0.0000      44.181502      1202.2398 
 663   0.0000      44.183024      1202.2812 
 664   0.0000      44.194963      1202.6061 
 665   0.0000      44.198264      1202.6959 
 666   0.0000      44.244620      1203.9573 
 667   0.0000      44.252102      1204.1609 
 668   0.0000      44.284413      1205.0401 
 669   0.0000     205.094821      5580.9138 
 670   0.0000     205.136735      5582.0543 
 671   0.0000     205.142976      5582.2242 
 672   0.0000     205.152384      5582.4802 
 673   0.0000     205.162827      5582.7643 
 674   0.0000     205.185155      5583.3719 
 675   0.0000     205.186377      5583.4052 
 676   0.0000     205.190939      5583.5293 
 677   0.0000     205.198423      5583.7330 
 678   0.0000     205.201759      5583.8237 
 679   0.0000     205.208975      5584.0201 
 680   0.0000     205.214099      5584.1595 
 681   0.0000     205.214883      5584.1809 
 682   0.0000     205.229189      5584.5701 
 683   0.0000     205.236921      5584.7805 
 684   0.0000     205.245262      5585.0075 

                 SPIN DOWN ORBITALS
  NO   OCC          E(Eh)            E(eV) 
   0   1.0000    -214.482578     -5836.3677 
   1   1.0000     -24.230971      -659.3582 
   2   1.0000     -20.609845      -560.8224 
   3   1.0000     -20.608602      -560.7886 
   4   1.0000     -20.598952      -560.5260 
   5   1.0000      -4.035423      -109.8094 
   6   1.0000      -4.035015      -109.7984 
   7   1.0000      -4.034027      -109.7715 
   8   1.0000      -4.033853      -109.7667 
   9   1.0000      -4.031459      -109.7016 
  10   1.0000      -4.029674      -109.6530 
  11   1.0000      -4.027619      -109.5971 
  12   1.0000      -4.026638      -109.5704 
  13   1.0000      -4.026321      -109.5618 
  14   1.0000      -4.025882      -109.5498 
  15   1.0000      -4.024504      -109.5123 
  16   1.0000      -4.022206      -109.4498 
  17   1.0000      -4.022013      -109.4445 
  18   1.0000      -4.021968      -109.4433 
  19   1.0000      -4.021559      -109.4322 
  20   1.0000      -4.019365      -109.3725 
  21   1.0000      -2.656857       -72.2968 
  22   1.0000      -2.251757       -61.2734 
  23   1.0000      -2.250566       -61.2410 
  24   1.0000      -2.249770       -61.2194 
  25   1.0000      -2.249554       -61.2135 
  26   1.0000      -2.248739       -61.1913 
  27   1.0000      -2.248504       -61.1849 
  28   1.0000      -2.247605       -61.1604 
  29   1.0000      -2.247176       -61.1488 
  30   1.0000      -2.246718       -61.1363 
  31   1.0000      -2.245247       -61.0963 
  32   1.0000      -2.244815       -61.0845 
  33   1.0000      -2.244744       -61.0826 
  34   1.0000      -2.244352       -61.0719 
  35   1.0000      -2.244229       -61.0686 
  36   1.0000      -2.243868       -61.0588 
  37   1.0000      -2.243300       -61.0433 
  38   1.0000      -2.242733       -61.0279 
  39   1.0000      -2.242485       -61.0211 
  40   1.0000      -2.241730       -61.0006 
  41   1.0000      -2.241132       -60.9843 
  42   1.0000      -2.240970       -60.9799 
  43   1.0000      -2.240603       -60.9699 
  44   1.0000      -2.240305       -60.9618 
  45   1.0000      -2.239866       -60.9499 
  46   1.0000      -2.239678       -60.9447 
  47   1.0000      -2.239501       -60.9399 
  48   1.0000      -2.239311       -60.9348 
  49   1.0000      -2.238527       -60.9134 
  50   1.0000      -2.237453       -60.8842 
  51   1.0000      -2.237093       -60.8744 
  52   1.0000      -2.236971       -60.8711 
  53   1.0000      -2.236906       -60.8693 
  54   1.0000      -2.236718       -60.8642 
  55   1.0000      -2.236222       -60.8507 
  56   1.0000      -2.235827       -60.8399 
  57   1.0000      -2.235552       -60.8325 
  58   1.0000      -2.235106       -60.8203 
  59   1.0000      -2.234647       -60.8078 
  60   1.0000      -2.234457       -60.8027 
  61   1.0000      -2.234447       -60.8024 
  62   1.0000      -2.234348       -60.7997 
  63   1.0000      -2.233808       -60.7850 
  64   1.0000      -2.233167       -60.7676 
  65   1.0000      -2.232394       -60.7465 
  66   1.0000      -2.231881       -60.7326 
  67   1.0000      -2.231353       -60.7182 
  68   1.0000      -2.230735       -60.7014 
  69   1.0000      -2.229998       -60.6813 
  70   1.0000      -1.657848       -45.1123 
  71   1.0000      -1.655804       -45.0567 
  72   1.0000      -1.632918       -44.4340 
  73   1.0000      -0.422412       -11.4944 
  74   1.0000      -0.392293       -10.6748 
  75   1.0000      -0.384312       -10.4577 
  76   1.0000      -0.383719       -10.4415 
  77   1.0000      -0.371463       -10.1080 
  78   1.0000      -0.368515       -10.0278 
  79   1.0000      -0.365670        -9.9504 
  80   1.0000      -0.364968        -9.9313 
  81   1.0000      -0.363985        -9.9045 
  82   1.0000      -0.360770        -9.8171 
  83   1.0000      -0.358534        -9.7562 
  84   1.0000      -0.358351        -9.7512 
  85   1.0000      -0.354199        -9.6382 
  86   1.0000      -0.352464        -9.5910 
  87   1.0000      -0.351482        -9.5643 
  88   1.0000      -0.350814        -9.5461 
  89   1.0000      -0.349562        -9.5121 
  90   1.0000      -0.348398        -9.4804 
  91   1.0000      -0.347774        -9.4634 
  92   1.0000      -0.346391        -9.4258 
  93   1.0000      -0.344940        -9.3863 
  94   1.0000      -0.341601        -9.2954 
  95   1.0000      -0.340379        -9.2622 
  96   1.0000      -0.336147        -9.1470 
  97   1.0000      -0.334894        -9.1129 
  98   1.0000      -0.333411        -9.0726 
  99   1.0000      -0.331748        -9.0273 
 100   1.0000      -0.329400        -8.9634 
 101   1.0000      -0.328235        -8.9317 
 102   1.0000      -0.327198        -8.9035 
 103   1.0000      -0.322917        -8.7870 
 104   1.0000      -0.320824        -8.7301 
 105   1.0000      -0.319197        -8.6858 
 106   1.0000      -0.313615        -8.5339 
 107   1.0000      -0.312750        -8.5104 
 108   1.0000      -0.311384        -8.4732 
 109   1.0000      -0.310259        -8.4426 
 110   1.0000      -0.308163        -8.3855 
 111   1.0000      -0.305732        -8.3194 
 112   1.0000      -0.299863        -8.1597 
 113   1.0000      -0.298919        -8.1340 
 114   1.0000      -0.293741        -7.9931 
 115   1.0000      -0.292053        -7.9472 
 116   1.0000      -0.290348        -7.9008 
 117   1.0000      -0.289694        -7.8830 
 118   1.0000      -0.288290        -7.8448 
 119   1.0000      -0.286572        -7.7980 
 120   1.0000      -0.286114        -7.7855 
 121   1.0000      -0.281429        -7.6581 
 122   1.0000      -0.280308        -7.6276 
 123   1.0000      -0.279981        -7.6187 
 124   1.0000      -0.279303        -7.6002 
 125   1.0000      -0.276555        -7.5254 
 126   1.0000      -0.275461        -7.4957 
 127   1.0000      -0.274417        -7.4673 
 128   1.0000      -0.272201        -7.4070 
 129   1.0000      -0.271951        -7.4002 
 130   1.0000      -0.268829        -7.3152 
 131   1.0000      -0.268532        -7.3071 
 132   1.0000      -0.267963        -7.2916 
 133   1.0000      -0.265433        -7.2228 
 134   1.0000      -0.264473        -7.1967 
 135   1.0000      -0.264307        -7.1921 
 136   1.0000      -0.263488        -7.1699 
 137   1.0000      -0.260968        -7.1013 
 138   1.0000      -0.260608        -7.0915 
 139   1.0000      -0.258378        -7.0308 
 140   1.0000      -0.257365        -7.0032 
 141   1.0000      -0.256968        -6.9925 
 142   1.0000      -0.256281        -6.9738 
 143   1.0000      -0.253410        -6.8956 
 144   1.0000      -0.252863        -6.8807 
 145   1.0000      -0.252023        -6.8579 
 146   1.0000      -0.250853        -6.8261 
 147   1.0000      -0.250605        -6.8193 
 148   1.0000      -0.248951        -6.7743 
 149   1.0000      -0.248005        -6.7486 
 150   1.0000      -0.245281        -6.6744 
 151   1.0000      -0.244913        -6.6644 
 152   1.0000      -0.244044        -6.6408 
 153   1.0000      -0.241946        -6.5837 
 154   1.0000      -0.240211        -6.5365 
 155   1.0000      -0.237488        -6.4624 
 156   1.0000      -0.230199        -6.2640 
 157   1.0000      -0.227057        -6.1785 
 158   1.0000      -0.219609        -5.9759 
 159   1.0000      -0.217576        -5.9206 
 160   1.0000      -0.210406        -5.7254 
 161   1.0000      -0.200550        -5.4572 
 162   0.0000      -0.171997        -4.6803 
 163   0.0000      -0.139048        -3.7837 
 164   0.0000      -0.137726        -3.7477 
 165   0.0000      -0.135494        -3.6870 
 166   0.0000      -0.128146        -3.4870 
 167   0.0000      -0.125785        -3.4228 
 168   0.0000      -0.110509        -3.0071 
 169   0.0000      -0.109153        -2.9702 
 170   0.0000      -0.106154        -2.8886 
 171   0.0000      -0.095334        -2.5942 
 172   0.0000      -0.091838        -2.4990 
 173   0.0000      -0.091103        -2.4790 
 174   0.0000      -0.085478        -2.3260 
 175   0.0000      -0.078125        -2.1259 
 176   0.0000      -0.064968        -1.7679 
 177   0.0000      -0.062461        -1.6997 
 178   0.0000      -0.058305        -1.5866 
[...]
      dx2y2   :     1.981495
      dxy     :     1.983451
      f0      :     0.000770  f :     0.006288
      f+1     :     0.000717
      f-1     :     0.001027
      f+2     :     0.000877
      f-2     :     0.000879
      f+3     :     0.001077
      f-3     :     0.000941
 10 Aus       :     2.524769  s :     2.524769
      pz      :     2.141658  p :     6.508760
      px      :     2.209195
      py      :     2.157907
      dz2     :     1.996812  d :     9.897630
      dxz     :     1.972383
      dyz     :     1.976450
      dx2y2   :     1.969872
      dxy     :     1.982113
      f0      :     0.001107  f :     0.006387
      f+1     :     0.000894
      f-1     :     0.000792
      f+2     :     0.000816
      f-2     :     0.000768
      f+3     :     0.001091
      f-3     :     0.000918
 11 Aus       :     2.525440  s :     2.525440
      pz      :     2.194488  p :     6.496615
      px      :     2.120169
      py      :     2.181959
      dz2     :     1.974557  d :     9.881000
      dxz     :     1.990461
      dyz     :     1.977466
      dx2y2   :     1.987070
      dxy     :     1.951446
      f0      :     0.000827  f :     0.006278
      f+1     :     0.000740
      f-1     :     0.000755
      f+2     :     0.001010
      f-2     :     0.001296
      f+3     :     0.000766
      f-3     :     0.000883
 12 Aus       :     2.559992  s :     2.559992
      pz      :     2.148790  p :     6.436077
      px      :     2.159628
      py      :     2.127659
      dz2     :     1.984188  d :     9.875871
      dxz     :     1.969839
      dyz     :     1.967184
      dx2y2   :     1.986642
      dxy     :     1.968019
      f0      :     0.000661  f :     0.005718
      f+1     :     0.000773
      f-1     :     0.000809
      f+2     :     0.001049
      f-2     :     0.000965
      f+3     :     0.000827
      f-3     :     0.000635
 13 Aus       :     2.572832  s :     2.572832
      pz      :     2.190956  p :     6.423208
      px      :     2.132360
      py      :     2.099892
      dz2     :     1.976093  d :     9.890440
      dxz     :     1.961439
      dyz     :     1.994080
      dx2y2   :     1.967803
      dxy     :     1.991026
      f0      :     0.000712  f :     0.005477
      f+1     :     0.000848
      f-1     :     0.000875
      f+2     :     0.000751
      f-2     :     0.001217
      f+3     :     0.000594
      f-3     :     0.000480
 14 Aus       :     2.523996  s :     2.523996
      pz      :     2.155587  p :     6.507416
      px      :     2.188045
      py      :     2.163784
      dz2     :     1.989764  d :     9.847317
      dxz     :     1.972505
      dyz     :     1.938265
      dx2y2   :     1.985159
      dxy     :     1.961624
      f0      :     0.000756  f :     0.006139
      f+1     :     0.000785
      f-1     :     0.000862
      f+2     :     0.000858
      f-2     :     0.001126
      f+3     :     0.000924
      f-3     :     0.000827
 15 Aus       :     2.559707  s :     2.559707
      pz      :     2.181348  p :     6.442898
      px      :     2.093932
      py      :     2.167618
      dz2     :     1.979630  d :     9.874176
      dxz     :     1.993785
      dyz     :     1.960281
      dx2y2   :     1.949582
      dxy     :     1.990897
      f0      :     0.000727  f :     0.005725
      f+1     :     0.000717
      f-1     :     0.000788
      f+2     :     0.000951
      f-2     :     0.001247
      f+3     :     0.000673
      f-3     :     0.000621
 16 Crs       :     6.239960  s :     6.239960
      pz      :     4.177521  p :    12.509895
      px      :     4.183951
      py      :     4.148423
      dz2     :     1.351067  d :     6.532517
      dxz     :     1.227661
      dyz     :     1.230182
      dx2y2   :     1.401998
      dxy     :     1.321608
      f0      :     0.000208  f :     0.001545
      f+1     :     0.000252
      f-1     :     0.000218
      f+2     :     0.000187
      f-2     :     0.000303
      f+3     :     0.000200
      f-3     :     0.000177

SPIN
  0 Aus       :    -0.039737  s :    -0.039737
      pz      :    -0.011826  p :    -0.039472
      px      :    -0.025737
      py      :    -0.001908
      dz2     :     0.000176  d :    -0.004565
      dxz     :     0.002095
      dyz     :    -0.000991
      dx2y2   :    -0.004280
      dxy     :    -0.001565
      f0      :     0.000094  f :     0.000477
      f+1     :     0.000071
      f-1     :     0.000119
      f+2     :     0.000121
      f-2     :     0.000114
      f+3     :    -0.000034
      f-3     :    -0.000008
  1 Aus       :    -0.036449  s :    -0.036449
      pz      :    -0.019249  p :    -0.035095
      px      :    -0.009255
      py      :    -0.006591
      dz2     :    -0.003666  d :    -0.021744
      dxz     :    -0.005472
      dyz     :    -0.007071
      dx2y2   :     0.003698
      dxy     :    -0.009232
      f0      :    -0.000001  f :     0.000174
      f+1     :     0.000066
      f-1     :    -0.000004
      f+2     :     0.000014
      f-2     :    -0.000003
      f+3     :     0.000061
      f-3     :     0.000041
  2 Aus       :    -0.179065  s :    -0.179065
      pz      :    -0.004911  p :    -0.048171
      px      :    -0.032221
      py      :    -0.011039
      dz2     :    -0.002911  d :    -0.032977
      dxz     :    -0.009662
      dyz     :    -0.001655
      dx2y2   :    -0.008811
      dxy     :    -0.009939
      f0      :    -0.000005  f :    -0.000047
      f+1     :    -0.000004
      f-1     :    -0.000009
      f+2     :    -0.000011
      f-2     :     0.000003
      f+3     :    -0.000007
      f-3     :    -0.000014
  3 Aus       :    -0.036364  s :    -0.036364
      pz      :    -0.008461  p :    -0.036630
      px      :    -0.011850
      py      :    -0.016318
      dz2     :    -0.001243  d :    -0.023960
      dxz     :    -0.000136
      dyz     :     0.000196
      dx2y2   :    -0.021641
      dxy     :    -0.001136
      f0      :    -0.000007  f :     0.000119
      f+1     :     0.000017
      f-1     :     0.000023
      f+2     :    -0.000002
      f-2     :     0.000064
      f+3     :     0.000003
      f-3     :     0.000020
  4 Aus       :    -0.039200  s :    -0.039200
      pz      :    -0.012443  p :    -0.036973
      px      :    -0.008325
      py      :    -0.016205
      dz2     :     0.002137  d :    -0.004443
      dxz     :    -0.005078
      dyz     :     0.001166
      dx2y2   :     0.000701
      dxy     :    -0.003368
      f0      :     0.000044  f :     0.000393
      f+1     :     0.000109
      f-1     :     0.000028
      f+2     :     0.000063
      f-2     :     0.000105
      f+3     :     0.000021
      f-3     :     0.000023
  5 Aus       :    -0.020891  s :    -0.020891
      pz      :    -0.006804  p :    -0.019325
      px      :    -0.008467
      py      :    -0.004054
      dz2     :     0.004447  d :    -0.006226
      dxz     :     0.000211
      dyz     :     0.001492
      dx2y2   :    -0.003097
      dxy     :    -0.009278
      f0      :     0.000027  f :     0.000069
      f+1     :     0.000007
      f-1     :     0.000057
      f+2     :    -0.000017
      f-2     :     0.000005
      f+3     :    -0.000006
      f-3     :    -0.000003
  6 Aus       :     0.004474  s :     0.004474
      pz      :    -0.015468  p :    -0.030117
      px      :    -0.020737
      py      :     0.006087
      dz2     :     0.000111  d :    -0.017969
      dxz     :    -0.004038
      dyz     :    -0.005082
      dx2y2   :     0.001232
      dxy     :    -0.010192
      f0      :    -0.000013  f :    -0.000030
      f+1     :    -0.000010
      f-1     :    -0.000003
      f+2     :     0.000007
      f-2     :    -0.000012
      f+3     :    -0.000004
      f-3     :     0.000005
  7 Aus       :     0.012171  s :     0.012171
      pz      :    -0.002418  p :    -0.019623
      px      :    -0.021112
      py      :     0.003907
      dz2     :    -0.004491  d :    -0.024278
      dxz     :    -0.010879
      dyz     :    -0.001308
      dx2y2   :    -0.007989
      dxy     :     0.000389
      f0      :     0.000000  f :    -0.000097
      f+1     :    -0.000026
      f-1     :    -0.000001
      f+2     :    -0.000035
      f-2     :    -0.000011
      f+3     :    -0.000004
      f-3     :    -0.000021
  8 Aus       :     0.002523  s :     0.002523
      pz      :    -0.005083  p :    -0.030707
      px      :    -0.018327
      py      :    -0.007297
      dz2     :    -0.004047  d :    -0.015466
      dxz     :     0.000341
      dyz     :    -0.000750
      dx2y2   :    -0.007148
      dxy     :    -0.003862
      f0      :     0.000003  f :    -0.000023
      f+1     :     0.000018
      f-1     :    -0.000021
      f+2     :     0.000008
      f-2     :    -0.000003
      f+3     :    -0.000021
      f-3     :    -0.000007
  9 Aus       :    -0.066843  s :    -0.066843
      pz      :    -0.008066  p :    -0.030517
      px      :    -0.007618
      py      :    -0.014834
      dz2     :     0.002177  d :    -0.008343
      dxz     :     0.006368
      dyz     :     0.001442
      dx2y2   :    -0.003636
      dxy     :    -0.014694
      f0      :     0.000122  f :     0.000326
      f+1     :     0.000173
      f-1     :     0.000053
      f+2     :     0.000025
      f-2     :    -0.000025
      f+3     :    -0.000015
      f-3     :    -0.000007
 10 Aus       :    -0.006840  s :    -0.006840
      pz      :    -0.003834  p :    -0.025552
      px      :    -0.022586
      py      :     0.000868
      dz2     :    -0.000293  d :    -0.014548
      dxz     :    -0.009544
      dyz     :     0.001030
      dx2y2   :    -0.003750
      dxy     :    -0.001992
      f0      :    -0.000012  f :    -0.000021
      f+1     :    -0.000013
      f-1     :     0.000007
      f+2     :     0.000010
      f-2     :    -0.000001
      f+3     :    -0.000007
      f-3     :    -0.000004
 11 Aus       :    -0.069137  s :    -0.069137
      pz      :    -0.020235  p :    -0.031429
      px      :    -0.005557
      py      :    -0.005637
      dz2     :    -0.008718  d :    -0.004695
      dxz     :    -0.000852
      dyz     :     0.000115
      dx2y2   :     0.006199
      dxy     :    -0.001439
      f0      :     0.000011  f :     0.000328
      f+1     :     0.000024
      f-1     :     0.000011
      f+2     :    -0.000000
      f-2     :     0.000071
      f+3     :     0.000085
      f-3     :     0.000125
 12 Aus       :    -0.039312  s :    -0.039312
      pz      :    -0.016361  p :    -0.041964
      px      :    -0.025860
      py      :     0.000257
      dz2     :     0.000100  d :    -0.003311
      dxz     :    -0.002328
      dyz     :    -0.007584
      dx2y2   :     0.002887
      dxy     :     0.003615
      f0      :     0.000016  f :     0.000262
      f+1     :     0.000005
      f-1     :     0.000022
      f+2     :     0.000006
      f-2     :     0.000112
      f+3     :     0.000077
      f-3     :     0.000023
 13 Aus       :    -0.021009  s :    -0.021009
      pz      :    -0.007780  p :    -0.016869
      px      :    -0.010121
      py      :     0.001032
      dz2     :    -0.003832  d :    -0.001838
      dxz     :    -0.005778
      dyz     :     0.001794
      dx2y2   :     0.004512
      dxy     :     0.001465
      f0      :     0.000013  f :     0.000150
      f+1     :    -0.000019
      f-1     :     0.000051
      f+2     :     0.000018
      f-2     :    -0.000011
      f+3     :     0.000025
      f-3     :     0.000072
 14 Aus       :    -0.042104  s :    -0.042104
      pz      :    -0.014860  p :    -0.039735
      px      :    -0.018914
      py      :    -0.005961
      dz2     :     0.005314  d :    -0.002015
      dxz     :     0.003206
      dyz     :    -0.007902
      dx2y2   :     0.004094
      dxy     :    -0.006727
      f0      :     0.000006  f :     0.000453
      f+1     :     0.000051
      f-1     :     0.000092
      f+2     :     0.000110
      f-2     :     0.000114
      f+3     :     0.000052
      f-3     :     0.000027
 15 Aus       :    -0.040641  s :    -0.040641
      pz      :    -0.012279  p :    -0.040053
      px      :    -0.004369
      py      :    -0.023405
      dz2     :     0.000438  d :    -0.001920
      dxz     :     0.002328
      dyz     :    -0.005917
      dx2y2   :    -0.002828
      dxy     :     0.004060
      f0      :     0.000031  f :     0.000315
      f+1     :     0.000068
      f-1     :    -0.000022
      f+2     :     0.000074
      f-2     :     0.000012
      f+3     :     0.000107
      f-3     :     0.000044
 16 Crs       :     0.018517  s :     0.018517
      pz      :     0.012167  p :     0.035554
      px      :     0.010628
      py      :     0.012758
      dz2     :     0.683933  d :     3.272007
      dxz     :     0.532389
      dyz     :     0.588477
      dx2y2   :     0.779086
      dxy     :     0.688122
      f0      :     0.000008  f :     0.000025
      f+1     :     0.000004
      f-1     :     0.000002
      f+2     :     0.000008
      f-2     :    -0.000003
      f+3     :     0.000005
      f-3     :     0.000001


                      *****************************
                      * MAYER POPULATION ANALYSIS *
                      *****************************

  NA   - Mulliken gross atomic population
  ZA   - Total nuclear charge
  QA   - Mulliken gross atomic charge
  VA   - Mayer's total valence
  BVA  - Mayer's bonded valence
  FA   - Mayer's free valence

  ATOM       NA         ZA         QA         VA         BVA        FA
  0 Au    18.5629    19.0000     0.4371     1.9454     1.9404     0.0050
  1 Au    18.9999    19.0000     0.0001     2.2219     2.2170     0.0048
  2 Au    18.5422    19.0000     0.4578     1.3786     1.2921     0.0864
  3 Au    18.9604    19.0000     0.0396     2.1450     2.1392     0.0057
  4 Au    18.6619    19.0000     0.3381     1.9273     1.9230     0.0043
  5 Au    18.5686    19.0000     0.4314     1.6141     1.6128     0.0013
  6 Au    18.6586    19.0000     0.3414     1.5861     1.5846     0.0015
  7 Au    19.1114    19.0000    -0.1114     2.0630     2.0606     0.0024
  8 Au    18.6555    19.0000     0.3445     1.5926     1.5913     0.0013
  9 Au    18.7151    19.0000     0.2849     1.8404     1.8245     0.0158
 10 Au    18.6296    19.0000     0.3704     1.6157     1.6146     0.0011
 11 Au    18.7186    19.0000     0.2814     1.8207     1.8033     0.0174
 12 Au    18.5205    19.0000     0.4795     1.6615     1.6584     0.0031
 13 Au    18.5937    19.0000     0.4063     1.6701     1.6689     0.0013
 14 Au    18.5372    19.0000     0.4628     1.9244     1.9189     0.0055
 15 Au    18.5390    19.0000     0.4610     1.6977     1.6945     0.0032
 16 Cr    29.0248    24.0000    -5.0248     9.9305     6.9792     2.9514

  Mayer bond orders larger than 0.100000
B(  0-Au,  3-Au) :   0.2314 B(  0-Au,  5-Au) :   0.2853 B(  0-Au,  6-Au) :   0.1707 
B(  0-Au, 11-Au) :   0.1235 B(  0-Au, 14-Au) :   0.1249 B(  0-Au, 15-Au) :   0.1550 
B(  0-Au, 16-Cr) :   0.5771 B(  1-Au,  2-Au) :   0.3334 B(  1-Au,  3-Au) :   0.2297 
B(  1-Au,  4-Au) :   0.2006 B(  1-Au,  7-Au) :   0.2574 B(  1-Au,  8-Au) :   0.2272 
B(  1-Au, 14-Au) :   0.2396 B(  1-Au, 16-Cr) :   0.4871 B(  2-Au,  3-Au) :   0.3327 
B(  2-Au,  7-Au) :   0.3671 B(  3-Au,  4-Au) :   0.1845 B(  3-Au,  6-Au) :   0.2323 
B(  3-Au,  7-Au) :   0.2627 B(  3-Au, 16-Cr) :   0.4520 B(  4-Au,  5-Au) :   0.2388 
B(  4-Au, 13-Au) :   0.2484 B(  4-Au, 16-Cr) :   0.6762 B(  5-Au, 13-Au) :   0.2359 
B(  5-Au, 15-Au) :   0.2540 B(  5-Au, 16-Cr) :   0.3105 B(  6-Au,  7-Au) :   0.2100 
B(  6-Au, 10-Au) :   0.2096 B(  6-Au, 11-Au) :   0.1802 B(  6-Au, 16-Cr) :   0.4319 
B(  7-Au,  8-Au) :   0.2080 B(  7-Au, 10-Au) :   0.3519 B(  7-Au, 16-Cr) :   0.3470 
B(  8-Au,  9-Au) :   0.1928 B(  8-Au, 10-Au) :   0.2151 B(  8-Au, 14-Au) :   0.1724 
B(  8-Au, 16-Cr) :   0.4078 B(  9-Au, 10-Au) :   0.1722 B(  9-Au, 11-Au) :   0.1877 
B(  9-Au, 12-Au) :   0.2287 B(  9-Au, 14-Au) :   0.1255 B(  9-Au, 16-Cr) :   0.5745 
B( 10-Au, 11-Au) :   0.1688 B( 10-Au, 16-Cr) :   0.3347 B( 11-Au, 15-Au) :   0.2254 
B( 11-Au, 16-Cr) :   0.5799 B( 12-Au, 13-Au) :   0.2533 B( 12-Au, 14-Au) :   0.1582 
B( 12-Au, 15-Au) :   0.2640 B( 12-Au, 16-Cr) :   0.4127 B( 13-Au, 14-Au) :   0.2764 
B( 13-Au, 16-Cr) :   0.3290 B( 14-Au, 16-Cr) :   0.5797 B( 15-Au, 16-Cr) :   0.4333 


-------
TIMINGS
-------

Total SCF time: 0 days 1 hours 4 min 54 sec 

Total time                  ....    3894.344 sec
Sum of individual times     ....    3804.857 sec  ( 97.7%)

Fock matrix formation       ....    2010.026 sec  ( 51.6%)
  Split-RI-J                ....     764.171 sec  ( 38.0% of F)
  XC integration            ....     996.951 sec  ( 49.6% of F)
    Basis function eval.    ....     107.424 sec  ( 10.8% of XC)
    Density eval.           ....     435.246 sec  ( 43.7% of XC)
    XC-Functional eval.     ....      15.991 sec  (  1.6% of XC)
    XC-Potential eval.      ....     314.952 sec  ( 31.6% of XC)
Diagonalization             ....     702.383 sec  ( 18.0%)
Density matrix formation    ....      48.629 sec  (  1.2%)
Population analysis         ....       2.856 sec  (  0.1%)
Initial guess               ....       0.849 sec  (  0.0%)
Orbital Transformation      ....     114.020 sec  (  2.9%)
Orbital Orthonormalization  ....       0.631 sec  (  0.0%)
DIIS solution               ....     915.895 sec  ( 23.5%)
Grid generation             ....       7.557 sec  (  0.2%)

Maximum memory used throughout the entire SCF-calculation: 134.2 MB

-------------------------   --------------------
FINAL SINGLE POINT ENERGY     -3217.491300940068
-------------------------   --------------------


                            ***************************************
                            *     ORCA property calculations      *
                            ***************************************

                                    ---------------------
                                    Active property flags
                                    ---------------------
   (+) Dipole Moment


------------------------------------------------------------------------------
                       ORCA ELECTRIC PROPERTIES CALCULATION
------------------------------------------------------------------------------

Dipole Moment Calculation                       ... on
Quadrupole Moment Calculation                   ... off
Polarizability Calculation                      ... off
GBWName                                         ... pbeSP_job2.gbw
Electron density                                ... pbeSP_job2.scfp
The origin for moment calculation is the CENTER OF MASS  = (14.872208, 15.300806 15.263542)

-------------
DIPOLE MOMENT
-------------
                                X             Y             Z
Electronic contribution:     16.74424      18.06141       4.53794
Nuclear contribution   :    -17.16907     -18.40493      -4.58993
                        -----------------------------------------
Total Dipole Moment    :     -0.42482      -0.34352      -0.05199
                        -----------------------------------------
Magnitude (a.u.)       :      0.54880
Magnitude (Debye)      :      1.39495



--------------------
Rotational spectrum 
--------------------
 
Rotational constants in cm-1:     0.000981     0.000754     0.000714 
Rotational constants in MHz :    29.398088    22.617518    21.417188 

 Dipole components along the rotational axes: 
x,y,z [a.u.] :    -0.544034     0.071154    -0.012259 
x,y,z [Debye]:    -1.382824     0.180860    -0.031160 

 

Timings for individual modules:

Sum of individual times         ...     3931.159 sec (=  65.519 min)
GTO integral calculation        ...       35.563 sec (=   0.593 min)   0.9 %
SCF iterations                  ...     3895.596 sec (=  64.927 min)  99.1 %



                             ****ORCA TERMINATED NORMALLY****
TOTAL RUN TIME: 0 days 1 hours 28 minutes 54 seconds 984 msec
