
                                 *****************
                                 * O   R   C   A *
                                 *****************

                                            #,                                       
                                            ###                                      
                                            ####                                     
                                            #####                                    
                                            ######                                   
                                           ########,                                 
                                     ,,################,,,,,                         
                               ,,#################################,,                 
                          ,,##########################################,,             
                       ,#########################################, ''#####,          
                    ,#############################################,,   '####,        
                  ,##################################################,,,,####,       
                ,###########''''           ''''###############################       
              ,#####''   ,,,,##########,,,,          '''####'''          '####       
            ,##' ,,,,###########################,,,                        '##       
           ' ,,###''''                  '''############,,,                           
         ,,##''                                '''############,,,,        ,,,,,,###''
      ,#''                                            '''#######################'''  
     '                                                          ''''####''''         
             ,#######,   #######,   ,#######,      ##                                
            ,#'     '#,  ##    ##  ,#'     '#,    #''#        ######   ,####,        
            ##       ##  ##   ,#'  ##            #'  '#       #        #'  '#        
            ##       ##  #######   ##           ,######,      #####,   #    #        
            '#,     ,#'  ##    ##  '#,     ,#' ,#      #,         ##   #,  ,#        
             '#######'   ##     ##  '#######'  #'      '#     #####' # '####'        



                  #######################################################
                  #                        -***-                        #
                  #          Department of theory and spectroscopy      #
                  #    Directorship and core code : Frank Neese         #
                  #        Max Planck Institute fuer Kohlenforschung    #
                  #                Kaiser Wilhelm Platz 1               #
                  #                 D-45470 Muelheim/Ruhr               #
                  #                      Germany                        #
                  #                                                     #
                  #                  All rights reserved                #
                  #                        -***-                        #
                  #######################################################


                         Program Version 5.0.3 -  RELEASE  -


 With contributions from (in alphabetic order):
   Daniel Aravena         : Magnetic Suceptibility
   Michael Atanasov       : Ab Initio Ligand Field Theory (pilot matlab implementation)
   Alexander A. Auer      : GIAO ZORA, VPT2 properties, NMR spectrum
   Ute Becker             : Parallelization
   Giovanni Bistoni       : ED, misc. LED, open-shell LED, HFLD
   Martin Brehm           : Molecular dynamics
   Dmytro Bykov           : SCF Hessian
   Vijay G. Chilkuri      : MRCI spin determinant printing, contributions to CSF-ICE
   Dipayan Datta          : RHF DLPNO-CCSD density
   Achintya Kumar Dutta   : EOM-CC, STEOM-CC
   Dmitry Ganyushin       : Spin-Orbit,Spin-Spin,Magnetic field MRCI
   Miquel Garcia          : C-PCM and meta-GGA Hessian, CC/C-PCM, Gaussian charge scheme
   Yang Guo               : DLPNO-NEVPT2, F12-NEVPT2, CIM, IAO-localization
   Andreas Hansen         : Spin unrestricted coupled pair/coupled cluster methods
   Benjamin Helmich-Paris : MC-RPA, TRAH-SCF, COSX integrals
   Lee Huntington         : MR-EOM, pCC
   Robert Izsak           : Overlap fitted RIJCOSX, COSX-SCS-MP3, EOM
   Marcus Kettner         : VPT2
   Christian Kollmar      : KDIIS, OOCD, Brueckner-CCSD(T), CCSD density, CASPT2, CASPT2-K
   Simone Kossmann        : Meta GGA functionals, TD-DFT gradient, OOMP2, MP2 Hessian
   Martin Krupicka        : Initial AUTO-CI
   Lucas Lang             : DCDCAS
   Marvin Lechner         : AUTO-CI (C++ implementation), FIC-MRCC
   Dagmar Lenk            : GEPOL surface, SMD
   Dimitrios Liakos       : Extrapolation schemes; Compound Job, initial MDCI parallelization
   Dimitrios Manganas     : Further ROCIS development; embedding schemes
   Dimitrios Pantazis     : SARC Basis sets
   Anastasios Papadopoulos: AUTO-CI, single reference methods and gradients
   Taras Petrenko         : DFT Hessian,TD-DFT gradient, ASA, ECA, R-Raman, ABS, FL, XAS/XES, NRVS
   Peter Pinski           : DLPNO-MP2, DLPNO-MP2 Gradient
   Christoph Reimann      : Effective Core Potentials
   Marius Retegan         : Local ZFS, SOC
   Christoph Riplinger    : Optimizer, TS searches, QM/MM, DLPNO-CCSD(T), (RO)-DLPNO pert. Triples
   Tobias Risthaus        : Range-separated hybrids, TD-DFT gradient, RPA, STAB
   Michael Roemelt        : Original ROCIS implementation
   Masaaki Saitow         : Open-shell DLPNO-CCSD energy and density
   Barbara Sandhoefer     : DKH picture change effects
   Avijit Sen             : IP-ROCIS
   Kantharuban Sivalingam : CASSCF convergence, NEVPT2, FIC-MRCI
   Bernardo de Souza      : ESD, SOC TD-DFT
   Georgi Stoychev        : AutoAux, RI-MP2 NMR, DLPNO-MP2 response
   Willem Van den Heuvel  : Paramagnetic NMR
   Boris Wezisla          : Elementary symmetry handling
   Frank Wennmohs         : Technical directorship


 We gratefully acknowledge several colleagues who have allowed us to
 interface, adapt or use parts of their codes:
   Stefan Grimme, W. Hujo, H. Kruse, P. Pracht,  : VdW corrections, initial TS optimization,
                  C. Bannwarth, S. Ehlert          DFT functionals, gCP, sTDA/sTD-DF
   Ed Valeev, F. Pavosevic, A. Kumar             : LibInt (2-el integral package), F12 methods
   Garnet Chan, S. Sharma, J. Yang, R. Olivares  : DMRG
   Ulf Ekstrom                                   : XCFun DFT Library
   Mihaly Kallay                                 : mrcc  (arbitrary order and MRCC methods)
   Jiri Pittner, Ondrej Demel                    : Mk-CCSD
   Frank Weinhold                                : gennbo (NPA and NBO analysis)
   Christopher J. Cramer and Donald G. Truhlar   : smd solvation model
   Lars Goerigk                                  : TD-DFT with DH, B97 family of functionals
   V. Asgeirsson, H. Jonsson                     : NEB implementation
   FAccTs GmbH                                   : IRC, NEB, NEB-TS, DLPNO-Multilevel, CI-OPT
                                                   MM, QMMM, 2- and 3-layer-ONIOM, Crystal-QMMM,
                                                   LR-CPCM, SF, NACMEs, symmetry and pop. for TD-DFT,
                                                   nearIR, NL-DFT gradient (VV10), updates on ESD,
                                                   ML-optimized integration grids
   S Lehtola, MJT Oliveira, MAL Marques          : LibXC Library
   Liviu Ungur et al                             : ANISO software


 Your calculation uses the libint2 library for the computation of 2-el integrals
 For citations please refer to: http://libint.valeyev.net

 Your ORCA version has been built with support for libXC version: 5.1.0
 For citations please refer to: https://tddft.org/programs/libxc/

 This ORCA versions uses:
   CBLAS   interface :  Fast vector & matrix operations
   LAPACKE interface :  Fast linear algebra routines
   SCALAPACK package :  Parallel linear algebra routines
   Shared memory     :  Shared parallel matrices
   BLAS/LAPACK       :  OpenBLAS 0.3.15  USE64BITINT DYNAMIC_ARCH NO_AFFINITY Haswell SINGLE_THREADED
        Core in use  :  Haswell
   Copyright (c) 2011-2014, The OpenBLAS Project




***************************************
The coordinates will be read from file: pbe.xyz
***************************************


================================================================================

cite the ECPs for Au [Def2-ECP] as follows:
Ce-Yb(ecp-28): M. Dolg, H. Stoll, H.Preuss, J. Chem. Phys., 1989, 90, 1730-1734.
Y-Cd(ecp-28), Hf-Hg(ecp-46): D. Andrae,U. Haeussermann, M. Dolg, H. Stoll, H. Preuss, Theor. Chim. Acta, 1990, 77, 123-141.
In-Sb(ecp-28), Tl-Bi(ecp-46): B. Metz, H. Stoll, M. Dolg, J. Chem. Phys., 2000, 113, 2563-2569.
Te-Xe(ecp-28), Po-Rn(ecp-46): K. A. Peterson, D. Figgen, E. Goll, H. Stoll, M. Dolg, J. Chem. Phys., 2003, 119, 11113-11123.
Rb(ecp-28), Cs(ecp-46): T. Leininger, A. Nicklass, W. Kuechle, H. Stoll, M. Dolg, A. Bergner, Chem. Phys. Lett., 1996, 255, 274-280.
Sr(ecp-28), Ba(ecp-46): M. Kaupp, P. V. Schleyer, H. Stoll and H. Preuss, J. Chem. Phys., 1991, 94, 1360-1366.
La(ecp-46): M. Dolg, H. Stoll, A. Savin, H. Preuss, Theor. Chim. Acta, 1989, 75, 173-194.
Lu(ecp-28): X. Cao, M. Dolg, J. Chem. Phys., 2001, 115, 7348-7355.

ECP parameters for Au [Def2-ECP] have been obtained from:
TURBOMOLE (7.0.2)

----- Orbital basis set information -----
Your calculation utilizes the basis: def2-TZVP
   F. Weigend and R. Ahlrichs, Phys. Chem. Chem. Phys. 7, 3297 (2005).

----- AuxJ basis set information -----
Your calculation utilizes the auxiliary basis: def2/J
   F. Weigend, Phys. Chem. Chem. Phys. 8, 1057 (2006).

----- AuxC basis set information -----
Your calculation utilizes the auxiliary basis: def2-TZVP/C
  H-La, Hf-Rn : A. Hellweg, C. Hattig, S. Hofener and W. Klopper, Theor. Chem. Acc. 117, 587 (2007).
        Ce-Lu : J. Chmela and M. E. Harding, Mol. Phys. (2018).

================================================================================
                                        WARNINGS
                       Please study these warnings very carefully!
================================================================================


IMPORTANT NOTE: CASSCF must signal convergence for a subsequent CASPT2/NEVPT2! 
                Set maxiter=1 to run CASPT2/NEVPT2 with arbitrary orbitals.


INFO   : the flag for use of the SHARK integral package has been found!

================================================================================
                                       INPUT FILE
================================================================================
NAME = nevpt2.inp
|  1> !SC-NEVPT2 def2-TZVP def2-TZVP/C
|  2> !MOREAD RIJCOSX def2/J
|  3> %maxcore 4000
|  4> %moinp "casscf.gbw"
|  5> %pal nprocs 8 end 
|  6> 
|  7> %casscf
|  8>  mult 5,3
|  9>  bweight 1,1
| 10>  nroots 5,45
| 11>  nel 6
| 12>  norb 5
| 13>  ptsettings
| 14>   d4tpre 1e-14 # default = 1e-10
| 15>   d3tpre 1e-14
| 16>  end
| 17>  rel           
| 18>    dosoc true   
| 19>    gtensor true 
| 20>  end           
| 21> end
| 22> 
| 23> 
| 24> *xyzfile 0 5 pbe.xyz
| 25> 
| 26> 
| 27>                          ****END OF INPUT****
================================================================================

                       ****************************
                       * Single Point Calculation *
                       ****************************

---------------------------------
CARTESIAN COORDINATES (ANGSTROEM)
---------------------------------
  Au     6.044512    8.591653    6.234705
  Au     7.435489   10.671233    7.751588
  Au    10.008416   10.980906    7.116656
  Au     4.919076    9.892000    8.495530
  Au     6.903214    9.934216   10.527115
  Au     6.854553    7.171720   11.012690
  Au     4.563824    7.229714    9.392857
  Au     8.554973    6.179143    8.929457
  Au     6.137604    6.042183    7.396647
  Au     9.423592    8.537374    7.994075
  Fe     6.926397    8.184383    8.627569

----------------------------
CARTESIAN COORDINATES (A.U.)
----------------------------
  NO LB      ZA    FRAG     MASS         X           Y           Z
   0 Au   19.0000*   0   196.966   11.422473   16.235872   11.781885
   1 Au   19.0000*   0   196.966   14.051037   20.165707   14.648378
   2 Au   19.0000*   0   196.966   18.913165   20.750905   13.448530
   3 Au   19.0000*   0   196.966    9.295706   18.693171   16.054225
   4 Au   19.0000*   0   196.966   13.045184   18.772947   19.893364
   5 Au   19.0000*   0   196.966   12.953228   13.552587   20.810968
   6 Au   19.0000*   0   196.966    8.624377   13.662179   17.749928
   7 Au   19.0000*   0   196.966   16.166556   11.676888   16.874229
   8 Au   19.0000*   0   196.966   11.598390   11.418071   13.977638
   9 Au   19.0000*   0   196.966   17.808007   16.133299   15.106613
  10 Fe   26.0000    0    55.850   13.088993   15.466242   16.303743
* core charge reduced due to ECP

--------------------------------
INTERNAL COORDINATES (ANGSTROEM)
--------------------------------
 Au     0   0   0     0.000000000000     0.00000000     0.00000000
 Au     1   0   0     2.925816137142     0.00000000     0.00000000
 Au     2   1   0     2.668143436910   114.68121888     0.00000000
 Au     2   1   3     2.737332136667    60.10065631   189.86821970
 Au     4   2   1     2.840056654621    63.12382257   129.15176404
 Au     5   4   2     2.805268650755    95.57009544   244.14194769
 Au     6   5   4     2.806182860999    83.90903047   349.34908276
 Au     6   5   4     2.866443391846   101.82400078    82.30267802
 Au     1   2   3     2.803314890414   114.56527091    89.90085255
 Au     3   2   1     2.661340381295    66.61384628   300.26993342
 Fe     1   2   3     2.582515996984    57.95195662    99.79876965

---------------------------
INTERNAL COORDINATES (A.U.)
---------------------------
 Au     0   0   0     0.000000000000     0.00000000     0.00000000
 Au     1   0   0     5.528991217406     0.00000000     0.00000000
 Au     2   1   0     5.042060381780   114.68121888     0.00000000
 Au     2   1   3     5.172808075882    60.10065631   189.86821970
 Au     4   2   1     5.366929282053    63.12382257   129.15176404
 Au     5   4   2     5.301189482002    95.57009544   244.14194769
 Au     6   5   4     5.302917088992    83.90903047   349.34908276
 Au     6   5   4     5.416792988977   101.82400078    82.30267802
 Au     1   2   3     5.297497410027   114.56527091    89.90085255
 Au     3   2   1     5.029204469793    66.61384628   300.26993342
 Fe     1   2   3     4.880247970770    57.95195662    99.79876965

---------------------
BASIS SET INFORMATION
---------------------
There are 2 groups of distinct atoms

 Group   1 Type Au  : 8s7p6d1f contracted to 6s4p3d1f pattern {311111/4111/411/1}
 Group   2 Type Fe  : 17s11p7d1f contracted to 6s4p4d1f pattern {842111/6311/4111/1}

Atom   0Au   basis set group =>   1
Atom   1Au   basis set group =>   1
Atom   2Au   basis set group =>   1
Atom   3Au   basis set group =>   1
Atom   4Au   basis set group =>   1
Atom   5Au   basis set group =>   1
Atom   6Au   basis set group =>   1
Atom   7Au   basis set group =>   1
Atom   8Au   basis set group =>   1
Atom   9Au   basis set group =>   1
Atom  10Fe   basis set group =>   2
---------------------------------
AUXILIARY/J BASIS SET INFORMATION
---------------------------------
There are 2 groups of distinct atoms

 Group   1 Type Au  : 11s5p5d3f3g contracted to 8s5p5d2f3g pattern {41111111/11111/11111/21/111}
 Group   2 Type Fe  : 19s5p5d3f3g contracted to 8s5p5d2f3g pattern {121111111/11111/11111/21/111}

Atom   0Au   basis set group =>   1
Atom   1Au   basis set group =>   1
Atom   2Au   basis set group =>   1
Atom   3Au   basis set group =>   1
Atom   4Au   basis set group =>   1
Atom   5Au   basis set group =>   1
Atom   6Au   basis set group =>   1
Atom   7Au   basis set group =>   1
Atom   8Au   basis set group =>   1
Atom   9Au   basis set group =>   1
Atom  10Fe   basis set group =>   2
---------------------------------
AUXILIARY/C BASIS SET INFORMATION
---------------------------------
There are 2 groups of distinct atoms

 Group   1 Type Au  : 8s8p7d5f3g2h contracted to 8s8p7d5f3g2h pattern {11111111/11111111/1111111/11111/111/11}
 Group   2 Type Fe  : 11s9p8d6f5g2h contracted to 9s8p8d6f5g2h pattern {311111111/21111111/11111111/111111/11111/11}

Atom   0Au   basis set group =>   1
Atom   1Au   basis set group =>   1
Atom   2Au   basis set group =>   1
Atom   3Au   basis set group =>   1
Atom   4Au   basis set group =>   1
Atom   5Au   basis set group =>   1
Atom   6Au   basis set group =>   1
Atom   7Au   basis set group =>   1
Atom   8Au   basis set group =>   1
Atom   9Au   basis set group =>   1
Atom  10Fe   basis set group =>   2
-------------------------
ECP PARAMETER INFORMATION
-------------------------

 Group 1, Type Au ECP Def2-ECP (replacing 60 core electrons, lmax=3)

Atom   0Au   ECP group =>   1
Atom   1Au   ECP group =>   1
Atom   2Au   ECP group =>   1
Atom   3Au   ECP group =>   1
Atom   4Au   ECP group =>   1
Atom   5Au   ECP group =>   1
Atom   6Au   ECP group =>   1
Atom   7Au   ECP group =>   1
Atom   8Au   ECP group =>   1
Atom   9Au   ECP group =>   1



           ************************************************************
           *        Program running with 8 parallel MPI-processes     *
           *              working on a common directory               *
           ************************************************************
------------------------------------------------------------------------------
                           ORCA GTO INTEGRAL CALCULATION
                           -- RI-GTO INTEGRALS CHOSEN --
------------------------------------------------------------------------------
------------------------------------------------------------------------------
                   ___                                                        
                  /   \      - P O W E R E D   B Y -                         
                 /     \                                                     
                 |  |  |   _    _      __       _____    __    __             
                 |  |  |  | |  | |    /  \     |  _  \  |  |  /  |          
                  \  \/   | |  | |   /    \    | | | |  |  | /  /          
                 / \  \   | |__| |  /  /\  \   | |_| |  |  |/  /          
                |  |  |   |  __  | /  /__\  \  |    /   |      \           
                |  |  |   | |  | | |   __   |  |    \   |  |\   \          
                \     /   | |  | | |  |  |  |  | |\  \  |  | \   \       
                 \___/    |_|  |_| |__|  |__|  |_| \__\ |__|  \__/        
                                                                              
                      - O R C A' S   B I G   F R I E N D -                    
                                      &                                       
                       - I N T E G R A L  F E E D E R -                       
                                                                              
 v1 FN, 2020, v2 2021                                                         
------------------------------------------------------------------------------


Reading SHARK input file nevpt2.SHARKINP.tmp ... ok
----------------------
SHARK INTEGRAL PACKAGE
----------------------

Number of atoms                             ...     11
Number of basis functions                   ...    445
Number of shells                            ...    155
Maximum angular momentum                    ...      3
Integral batch strategy                     ... SHARK/LIBINT Hybrid
RI-J (if used) integral strategy            ... SPLIT-RIJ (Revised 2003 algorithm where possible)
Printlevel                                  ...      1
Contraction scheme used                     ... SEGMENTED contraction
Coulomb Range Separation                    ... NOT USED
Exchange Range Separation                   ... NOT USED
Finite Nucleus Model                        ... NOT USED
Auxiliary Coulomb fitting basis             ... AVAILABLE
   # of basis functions in Aux-J            ...    979
   # of shells in Aux-J                     ...    253
   Maximum angular momentum in Aux-J        ...      4
Auxiliary J/K fitting basis                 ... NOT available
Auxiliary Correlation fitting basis         ... AVAILABLE
   # of basis functions in Aux-C            ...   1692
   # of shells in Aux-C                     ...    368
   Maximum angular momentum in Aux-C        ...      5
Auxiliary 'external' fitting basis          ... NOT available
Integral threshold                          ...     1.000000e-10
Primitive cut-off                           ...     1.000000e-11
Primitive pair pre-selection threshold      ...     1.000000e-11

Calculating pre-screening integrals         ... done (  0.1 sec) Dimension = 155
Organizing shell pair data                  ... done (  0.2 sec)
Shell pair information
Total number of shell pairs                 ...     12090
Shell pairs after pre-screening             ...      9982
Total number of primitive shell pairs       ...     33105
Primitive shell pairs kept                  ...     20067
          la=0 lb=0:   1554 shell pairs
          la=1 lb=0:   2263 shell pairs
          la=1 lb=1:    865 shell pairs
          la=2 lb=0:   1972 shell pairs
          la=2 lb=1:   1393 shell pairs
          la=2 lb=2:    572 shell pairs
          la=3 lb=0:    535 shell pairs
          la=3 lb=1:    418 shell pairs
          la=3 lb=2:    352 shell pairs
          la=3 lb=3:     58 shell pairs

Calculating one electron integrals          ... done (  0.0 sec)
Calculating ECP integrals                   ... done (  3.9 sec)
Calculating RI/J V-Matrix + Cholesky decomp.... done (  0.0 sec)
Calculating RI/C V-Matrix + Cholesky decomp.... done (  0.1 sec)
Calculating Nuclear repulsion               ... done (  0.0 sec) ENN=   3244.366306240360 Eh

SHARK setup successfully completed in   4.4 seconds

Maximum memory used throughout the entire GTOINT-calculation: 29.9 MB


           ************************************************************
           *        Program running with 8 parallel MPI-processes     *
           *              working on a common directory               *
           ************************************************************
-------------------------------------------------------------------------------
                                 ORCA SCF
-------------------------------------------------------------------------------

------------
SCF SETTINGS
------------
Hamiltonian:
 Ab initio Hamiltonian  Method          .... Hartree-Fock(GTOs)
 RI-approximation to the Coulomb term is turned on
   Number of AuxJ basis functions       .... 979
   RIJ-COSX (HFX calculated with COS-X)).... on


General Settings:
 Integral files         IntName         .... nevpt2
 Hartree-Fock type      HFTyp           .... CASSCF
 Total Charge           Charge          ....    0
 Multiplicity           Mult            ....    5
 Number of Electrons    NEL             ....  216
 Basis Dimension        Dim             ....  445
 Nuclear Repulsion      ENuc            ....   3244.3663062404 Eh


Diagonalization of the overlap matrix:
Smallest eigenvalue                        ... 5.086e-04
Time for diagonalization                   ...    0.034 sec
Threshold for overlap eigenvalues          ... 1.000e-08
Number of eigenvalues below threshold      ... 0
Time for construction of square roots      ...    0.021 sec
Total time needed                          ...    0.056 sec

---------------------
INITIAL GUESS: MOREAD
---------------------
Guess MOs are being read from file: casscf.gbw
Input Geometry matches current geometry (good)
Input basis set matches current basis set (good)
MOs were renormalized
Gram-Schmidt orthogonalization of all MOs with pivot on actives
                      ------------------
                      INITIAL GUESS DONE (   0.7 sec)
                      ------------------
--------------------
COSX GRID GENERATION
--------------------

GRIDX 1
-------
General Integration Accuracy     IntAcc      ... 3.816
Radial Grid Type                 RadialGrid  ... OptM3 with GC (2021)
Angular Grid (max. ang.)         AngularGrid ... 1 (Lebedev-50)
Angular grid pruning method      GridPruning ... 4 (adaptive)
Weight generation scheme         WeightScheme... Becke
Basis function cutoff            BFCut       ... 1.0000e-10
Integration weight cutoff        WCut        ... 1.0000e-14
Angular grids for H and He will be reduced by one unit
Partially contracted basis set               ... on
Rotationally invariant grid construction     ... off

Total number of grid points                  ...    13053
Total number of batches                      ...      209
Average number of points per batch           ...       62
Average number of grid points per atom       ...     1187
UseSFitting                                  ... on

GRIDX 2
-------
General Integration Accuracy     IntAcc      ... 4.020
Radial Grid Type                 RadialGrid  ... OptM3 with GC (2021)
Angular Grid (max. ang.)         AngularGrid ... 2 (Lebedev-110)
Angular grid pruning method      GridPruning ... 4 (adaptive)
Weight generation scheme         WeightScheme... Becke
Basis function cutoff            BFCut       ... 1.0000e-10
Integration weight cutoff        WCut        ... 1.0000e-14
Angular grids for H and He will be reduced by one unit
Partially contracted basis set               ... on
Rotationally invariant grid construction     ... off

Total number of grid points                  ...    39356
Total number of batches                      ...      619
Average number of points per batch           ...       63
Average number of grid points per atom       ...     3578
UseSFitting                                  ... on

GRIDX 3
-------
General Integration Accuracy     IntAcc      ... 4.338
Radial Grid Type                 RadialGrid  ... OptM3 with GC (2021)
Angular Grid (max. ang.)         AngularGrid ... 3 (Lebedev-194)
Angular grid pruning method      GridPruning ... 4 (adaptive)
Weight generation scheme         WeightScheme... Becke
Basis function cutoff            BFCut       ... 1.0000e-10
Integration weight cutoff        WCut        ... 1.0000e-14
Angular grids for H and He will be reduced by one unit
Partially contracted basis set               ... on
Rotationally invariant grid construction     ... off

Total number of grid points                  ...    72589
Total number of batches                      ...     1141
Average number of points per batch           ...       63
Average number of grid points per atom       ...     6599
UseSFitting                                  ... on

Time for X-Grid setup             =    0.737 sec



 ... the calculation is a CASSCF calculation -I'm leaving here GOOD LUCK!!!



           ************************************************************
           *        Program running with 8 parallel MPI-processes     *
           *              working on a common directory               *
           ************************************************************
-------------------------------------------------------------------------------
                              ORCA-CASSCF
-------------------------------------------------------------------------------

Setting up the integral package       ... done
Setting up the integral package (RI)  ... done
Building the CAS space                ... done (5 configurations for Mult=5)
Building the CAS space                ... done (35 configurations for Mult=3)

 CASSCF (estimated) memory needed     ... 81.6 MB
 NEVPT2 (estimated) memory needed     ... 245.9 MB


SYSTEM-SPECIFIC SETTINGS:
Number of active electrons          ...    6
Number of active orbitals           ...    5
Total number of electrons           ...  216
Total number of orbitals            ...  445
Total number aux. functions         ... 1692

Determined orbital ranges:
   Internal       0 -  104 ( 105 orbitals)
   Active       105 -  109 (   5 orbitals)
   External     110 -  444 ( 335 orbitals)
Number of rotation parameters      ...  37375

CI-STEP:
CI strategy                         ... General CI
Number of multiplicity blocks       ...    2
BLOCK  1 WEIGHT=   0.5000
  Multiplicity                      ...    5
  #(Configurations)                 ...    5
  #(CSFs)                           ...    5
  #(Roots)                          ...    5
    ROOT=0 WEIGHT=    0.100000
    ROOT=1 WEIGHT=    0.100000
    ROOT=2 WEIGHT=    0.100000
    ROOT=3 WEIGHT=    0.100000
    ROOT=4 WEIGHT=    0.100000

BLOCK  2 WEIGHT=   0.5000
  Multiplicity                      ...    3
  #(Configurations)                 ...   35
  #(CSFs)                           ...   45
  #(Roots)                          ...   45
    ROOT=0 WEIGHT=    0.011111
    ROOT=1 WEIGHT=    0.011111
    ROOT=2 WEIGHT=    0.011111
    ROOT=3 WEIGHT=    0.011111
    ROOT=4 WEIGHT=    0.011111
    ROOT=5 WEIGHT=    0.011111
    ROOT=6 WEIGHT=    0.011111
    ROOT=7 WEIGHT=    0.011111
    ROOT=8 WEIGHT=    0.011111
    ROOT=9 WEIGHT=    0.011111
    ROOT=10 WEIGHT=    0.011111
    ROOT=11 WEIGHT=    0.011111
    ROOT=12 WEIGHT=    0.011111
    ROOT=13 WEIGHT=    0.011111
    ROOT=14 WEIGHT=    0.011111
    ROOT=15 WEIGHT=    0.011111
    ROOT=16 WEIGHT=    0.011111
    ROOT=17 WEIGHT=    0.011111
    ROOT=18 WEIGHT=    0.011111
    ROOT=19 WEIGHT=    0.011111
    ROOT=20 WEIGHT=    0.011111
    ROOT=21 WEIGHT=    0.011111
    ROOT=22 WEIGHT=    0.011111
    ROOT=23 WEIGHT=    0.011111
    ROOT=24 WEIGHT=    0.011111
    ROOT=25 WEIGHT=    0.011111
    ROOT=26 WEIGHT=    0.011111
    ROOT=27 WEIGHT=    0.011111
    ROOT=28 WEIGHT=    0.011111
    ROOT=29 WEIGHT=    0.011111
    ROOT=30 WEIGHT=    0.011111
    ROOT=31 WEIGHT=    0.011111
    ROOT=32 WEIGHT=    0.011111
    ROOT=33 WEIGHT=    0.011111
    ROOT=34 WEIGHT=    0.011111
    ROOT=35 WEIGHT=    0.011111
    ROOT=36 WEIGHT=    0.011111
    ROOT=37 WEIGHT=    0.011111
    ROOT=38 WEIGHT=    0.011111
    ROOT=39 WEIGHT=    0.011111
    ROOT=40 WEIGHT=    0.011111
    ROOT=41 WEIGHT=    0.011111
    ROOT=42 WEIGHT=    0.011111
    ROOT=43 WEIGHT=    0.011111
    ROOT=44 WEIGHT=    0.011111

  PrintLevel                        ...    1
  N(GuessMat)                       ...       512
  MaxDim(CI)                        ...        10
  MaxIter(CI)                       ...        64
  Energy Tolerance CI               ...  1.00e-08
  Residual Tolerance CI             ...  1.00e-08
  Shift(CI)                         ...  1.00e-04

INTEGRAL-TRANSFORMATION-STEP:
  Algorithm                         ... RI-MO

ORBITAL-IMPROVEMENT-STEP:
  Algorithm                         ... SuperCI(PT)
  Default Parametrization           ... CAYLEY
  Act-Act rotations                 ... depends on algorithm used

  Note: SuperCI(PT) will ignore FreezeIE, FreezeAct and FreezeGrad. In general Default settings are encouraged.
        In conjunction with ShiftUp, ShiftDn or GradScaling the performance of SuperCI(PT) is less optimal.  

  MaxRot                            ... 2.00e-01 
  Max. no of vectors (DIIS)         ... 15
  DThresh (cut-off) metric          ... 1.00e-06
  Switch step at gradient           ...  3.00e-02 
  Switch step at iteration          ...        50   
  Switch step to                    ... SuperCI(PT)    

SCF-SETTINGS:
  Incremental                       ... off
  RIJCOSX approximation             ... on
  UseFinalGrid                      ... on
  RI-JK approximation               ... off
  AO integral handling              ... DIRECT
  Integral Neglect Thresh           ...  1.00e-10
  Primitive cutoff TCut             ...  1.00e-11
  Energy convergence tolerance      ...  1.00e-07
  Orbital gradient convergence      ...  1.00e-03
  Max. number of iterations         ...        75  

PT2-SETTINGS:
  A PT2 calculation will be performed on top of the CASSCF wave function (PT2 = SC-NEVPT2)   
 CI step strategy                   ... General CI
  D4C handling                      ... on the fly 
  CI truncation for D4C at          ...  1.00e-14
  CI truncation for D3  at          ...  1.00e-14
  Orbitals                          ... canonical for each state 
  Last  frozen  orbital             ... 4
  First deleted orbital             ... 445
  RI Step                           ... store IJV(array) (MC_ONDISK during integral transformation) 

PROPERTIES-SETTINGS:
  Spin orbit coupling               ... true
  GTensor                           ... true
  QDPT diagonal energies            ... NEVPT2 energies 

FINAL ORBITALS:
  Active   Orbitals                 ... natural 
  Internal Orbitals                 ... canonical 
  External Orbitals                 ... canonical 

------------------
CAS-SCF ITERATIONS
------------------


MACRO-ITERATION   1: 
   --- Inactive Energy E0 = -2594.82044854 Eh
CI-ITERATION   0: 
 -2610.505399403   0.000000000000 (    0.00)
 -2610.505324829   0.000000000000
 -2610.500717428   0.000000000000
 -2610.497788230   0.000000000000
 -2610.487235444   0.000000000000
   CI-PROBLEM SOLVED
   DENSITIES MADE
CI-ITERATION   0: 
 -2610.418466496   0.000000000000 (    0.00)
 -2610.418275002   0.000000000000
 -2610.414107190   0.000000000000
 -2610.412751951   0.000000000000
 -2610.410864158   0.000000000000
 -2610.409239981   0.000000000000
 -2610.407028864   0.000000000000
 -2610.405671004   0.000000000000
 -2610.404863912   0.000000000000
 -2610.403774801   0.000000000000
 -2610.401239475   0.000000000000
 -2610.400107607   0.000000000000
 -2610.395848024   0.000000000000
 -2610.395543499   0.000000000000
 -2610.394021412   0.000000000000
 -2610.390713987   0.000000000000
 -2610.389703365   0.000000000000
 -2610.387437366   0.000000000000
 -2610.387340103   0.000000000000
 -2610.385094688   0.000000000000
 -2610.384254565   0.000000000000
 -2610.383692182   0.000000000000
 -2610.382840600   0.000000000000
 -2610.382646204   0.000000000000
 -2610.382007149   0.000000000000
 -2610.377020545   0.000000000000
 -2610.374679274   0.000000000000
 -2610.373858023   0.000000000000
 -2610.373170467   0.000000000000
 -2610.372468376   0.000000000000
 -2610.351058351   0.000000000000
 -2610.344615201   0.000000000000
 -2610.344405654   0.000000000000
 -2610.342429230   0.000000000000
 -2610.339394899   0.000000000000
 -2610.255136030   0.000000000000
 -2610.250533152   0.000000000000
 -2610.248474879   0.000000000000
 -2610.243734875   0.000000000000
 -2610.243356518   0.000000000000
 -2610.241600989   0.000000000000
 -2610.239757246   0.000000000000
 -2610.235575560   0.000000000000
 -2610.232514908   0.000000000000
 -2610.228251183   0.000000000000
   CI-PROBLEM SOLVED
   DENSITIES MADE

                 <<<<<<<<<<<<<<<<<<INITIAL CI STATE CHECK>>>>>>>>>>>>>>>>>>

BLOCK  1 MULT= 5 NROOTS= 5 
ROOT   0:  E=   -2610.5053994032 Eh
      0.70582 [     1]: 11121
      0.16805 [     3]: 12111
      0.12606 [     0]: 11112
ROOT   1:  E=   -2610.5053248288 Eh  0.002 eV     16.4 cm**-1
      0.92151 [     4]: 21111
      0.05105 [     3]: 12111
      0.01586 [     2]: 11211
      0.01051 [     1]: 11121
ROOT   2:  E=   -2610.5007174285 Eh  0.127 eV   1027.6 cm**-1
      0.84989 [     0]: 11112
      0.08242 [     3]: 12111
      0.06251 [     1]: 11121
      0.00517 [     4]: 21111
ROOT   3:  E=   -2610.4977882302 Eh  0.207 eV   1670.5 cm**-1
      0.67820 [     3]: 12111
      0.21543 [     1]: 11121
      0.04507 [     4]: 21111
      0.03950 [     2]: 11211
      0.02179 [     0]: 11112
ROOT   4:  E=   -2610.4872354444 Eh  0.494 eV   3986.5 cm**-1
      0.94459 [     2]: 11211
      0.02820 [     4]: 21111
      0.02028 [     3]: 12111
      0.00573 [     1]: 11121

BLOCK  2 MULT= 3 NROOTS=45 
ROOT   0:  E=   -2610.4184664958 Eh
      0.51330 [     9]: 11022
      0.17022 [    15]: 12012
      0.08049 [     0]: 01122
      0.03595 [    18]: 12111
      0.02724 [    32]: 22011
      0.02701 [     3]: 02112
      0.02505 [    26]: 21021
      0.02435 [    14]: 11220
      0.01480 [    28]: 21111
      0.01286 [    11]: 11121
      0.01255 [    16]: 12021
      0.01028 [    12]: 11202
      0.00878 [    24]: 20211
      0.00732 [    27]: 21102
      0.00705 [    21]: 12210
      0.00408 [    30]: 21201
      0.00391 [     7]: 10212
      0.00356 [    13]: 11211
ROOT   1:  E=   -2610.4182750021 Eh  0.005 eV     42.0 cm**-1
      0.60613 [    25]: 21012
      0.08261 [    10]: 11112
      0.05214 [    32]: 22011
      0.03939 [    26]: 21021
      0.03018 [    31]: 21210
      0.02852 [    22]: 20112
      0.02596 [    15]: 12012
      0.01881 [    17]: 12102
      0.01601 [     7]: 10212
      0.01543 [    11]: 11121
      0.01543 [     6]: 10122
      0.01206 [     1]: 01212
      0.00997 [    27]: 21102
      0.00744 [    13]: 11211
      0.00671 [     2]: 01221
      0.00513 [     9]: 11022
      0.00505 [    18]: 12111
      0.00379 [     5]: 02211
      0.00352 [    16]: 12021
      0.00338 [    12]: 11202
      0.00281 [    28]: 21111
ROOT   2:  E=   -2610.4141071896 Eh  0.119 eV    956.8 cm**-1
      0.42386 [    15]: 12012
      0.12943 [    10]: 11112
      0.10748 [    26]: 21021
      0.10515 [     9]: 11022
      0.03982 [    22]: 20112
      0.03520 [     7]: 10212
      0.02263 [    11]: 11121
      0.01907 [    30]: 21201
      0.01870 [    32]: 22011
      0.01592 [    21]: 12210
      0.01221 [    27]: 21102
      0.01179 [    25]: 21012
      0.00850 [    12]: 11202
      0.00683 [    17]: 12102
      0.00591 [    18]: 12111
      0.00555 [     2]: 01221
      0.00524 [    28]: 21111
      0.00450 [    14]: 11220
      0.00385 [    34]: 22110
      0.00357 [    24]: 20211
      0.00330 [     6]: 10122
      0.00301 [     1]: 01212
ROOT   3:  E=   -2610.4127519508 Eh  0.156 eV   1254.2 cm**-1
      0.20234 [    11]: 11121
      0.16122 [    22]: 20112
      0.14927 [    10]: 11112
      0.06247 [    27]: 21102
      0.05864 [    26]: 21021
      0.05807 [    28]: 21111
      0.04467 [     3]: 02112
      0.03914 [    15]: 12012
      0.03658 [    18]: 12111
      0.02827 [    32]: 22011
      0.02587 [     9]: 11022
      0.01676 [    13]: 11211
      0.01364 [     0]: 01122
      0.01358 [    16]: 12021
      0.01295 [    17]: 12102
      0.01201 [     6]: 10122
      0.01014 [    30]: 21201
      0.00929 [     8]: 10221
      0.00784 [     7]: 10212
      0.00758 [    23]: 20121
      0.00687 [     1]: 01212
      0.00601 [    29]: 21120
      0.00343 [    34]: 22110
      0.00297 [    21]: 12210
      0.00296 [    14]: 11220
ROOT   4:  E=   -2610.4108641578 Eh  0.207 eV   1668.5 cm**-1
      0.19891 [    10]: 11112
      0.19154 [    16]: 12021
      0.13904 [    11]: 11121
      0.07530 [    28]: 21111
      0.07390 [    23]: 20121
      0.07282 [    18]: 12111
      0.05077 [     8]: 10221
      0.03054 [    15]: 12012
      0.02081 [     4]: 02121
      0.02021 [     6]: 10122
      0.01835 [     1]: 01212
      0.01791 [    17]: 12102
      0.01344 [     2]: 01221
      0.01265 [    20]: 12201
      0.01210 [    13]: 11211
      0.01070 [     3]: 02112
      0.01015 [    26]: 21021
      0.00724 [    34]: 22110
      0.00662 [    21]: 12210
      0.00510 [     0]: 01122
      0.00372 [    25]: 21012
ROOT   5:  E=   -2610.4092399806 Eh  0.251 eV   2025.0 cm**-1
      0.52951 [    28]: 21111
      0.15095 [    10]: 11112
      0.05277 [    13]: 11211
      0.04129 [     6]: 10122
      0.02535 [     8]: 10221
      0.02497 [    22]: 20112
      0.02422 [    20]: 12201
      0.02420 [    23]: 20121
      0.02277 [    34]: 22110
      0.02100 [    33]: 22101
      0.01571 [    27]: 21102
      0.01360 [    29]: 21120
      0.01215 [    11]: 11121
      0.00897 [    12]: 11202
      0.00880 [    18]: 12111
      0.00675 [    17]: 12102
      0.00467 [    32]: 22011
      0.00446 [    14]: 11220
ROOT   6:  E=   -2610.4070288637 Eh  0.311 eV   2510.3 cm**-1
      0.22313 [    18]: 12111
      0.15694 [    27]: 21102
      0.14149 [    28]: 21111
      0.08533 [    32]: 22011
      0.08195 [    11]: 11121
      0.06073 [    24]: 20211
      0.04086 [    33]: 22101
      0.03568 [    22]: 20112
      0.02496 [     9]: 11022
      0.02274 [    26]: 21021
      0.02196 [    23]: 20121
      0.01915 [     0]: 01122
      0.01866 [    30]: 21201
      0.01740 [    13]: 11211
      0.01500 [     3]: 02112
      0.01069 [    10]: 11112
      0.01002 [    29]: 21120
      0.00305 [    15]: 12012
ROOT   7:  E=   -2610.4056710037 Eh  0.348 eV   2808.3 cm**-1
      0.19877 [    11]: 11121
      0.14019 [    23]: 20121
      0.11397 [    28]: 21111
      0.08871 [     4]: 02121
      0.06860 [    18]: 12111
      0.04219 [    13]: 11211
      0.04113 [     2]: 01221
      0.03896 [     3]: 02112
      0.03656 [    10]: 11112
      0.03159 [     0]: 01122
      0.02508 [    29]: 21120
      0.02374 [     7]: 10212
      0.02257 [    30]: 21201
      0.02043 [     8]: 10221
      0.01450 [     5]: 02211
      0.01233 [    16]: 12021
      0.01209 [    19]: 12120
      0.01129 [    33]: 22101
      0.01099 [    34]: 22110
      0.00927 [    24]: 20211
      0.00711 [    12]: 11202
      0.00706 [     6]: 10122
      0.00670 [    15]: 12012
      0.00536 [    31]: 21210
      0.00361 [     9]: 11022
ROOT   8:  E=   -2610.4048639118 Eh  0.370 eV   2985.4 cm**-1
      0.27713 [    11]: 11121
      0.12573 [    18]: 12111
      0.09949 [     6]: 10122
      0.09275 [    10]: 11112
      0.07910 [    17]: 12102
      0.04689 [    16]: 12021
      0.04448 [     4]: 02121
      0.04238 [    23]: 20121
      0.03200 [    33]: 22101
      0.02822 [     2]: 01221
      0.02204 [    13]: 11211
      0.02100 [     1]: 01212
      0.01354 [    25]: 21012
      0.01339 [     8]: 10221
      0.01290 [    30]: 21201
      0.01111 [    28]: 21111
      0.00802 [    29]: 21120
      0.00623 [     5]: 02211
      0.00552 [    24]: 20211
      0.00349 [     3]: 02112
      0.00252 [     0]: 01122
      0.00252 [    15]: 12012
ROOT   9:  E=   -2610.4037748006 Eh  0.400 eV   3224.5 cm**-1
      0.20994 [    28]: 21111
      0.15136 [    23]: 20121
      0.13387 [    33]: 22101
      0.09456 [    13]: 11211
      0.08879 [    17]: 12102
      0.05123 [    19]: 12120
      0.05001 [     6]: 10122
      0.03732 [    11]: 11121
      0.03637 [    24]: 20211
      0.03601 [    18]: 12111
      0.02032 [    27]: 21102
      0.01883 [    29]: 21120
      0.01561 [     5]: 02211
      0.01548 [    30]: 21201
      0.00964 [    10]: 11112
      0.00758 [     2]: 01221
      0.00513 [     0]: 01122
      0.00504 [     3]: 02112
      0.00336 [     7]: 10212
ROOT  10:  E=   -2610.4012394745 Eh  0.469 eV   3780.9 cm**-1
      0.27506 [    18]: 12111
      0.11232 [    11]: 11121
      0.08781 [     0]: 01122
      0.08570 [    24]: 20211
      0.07035 [    29]: 21120
      0.05949 [    13]: 11211
      0.04361 [     3]: 02112
      0.04212 [    10]: 11112
      0.02900 [    34]: 22110
      0.02347 [    12]: 11202
      0.02300 [    30]: 21201
      0.02120 [    19]: 12120
      0.01892 [    20]: 12201
      0.01746 [     8]: 10221
      0.01134 [    32]: 22011
      0.00977 [    17]: 12102
      0.00960 [    33]: 22101
      0.00790 [    28]: 21111
      0.00777 [    14]: 11220
      0.00693 [     5]: 02211
      0.00559 [     4]: 02121
      0.00470 [    27]: 21102
      0.00461 [    31]: 21210
      0.00446 [    26]: 21021
      0.00444 [     7]: 10212
      0.00295 [    21]: 12210
      0.00291 [     9]: 11022
ROOT  11:  E=   -2610.4001076071 Eh  0.500 eV   4029.3 cm**-1
      0.28782 [    11]: 11121
      0.15173 [    22]: 20112
      0.10435 [    15]: 12012
      0.10109 [    10]: 11112
      0.06012 [    18]: 12111
      0.05734 [    28]: 21111
      0.05277 [    27]: 21102
      0.04722 [     3]: 02112
      0.03207 [    16]: 12021
      0.02018 [     9]: 11022
      0.01673 [    26]: 21021
      0.01573 [    23]: 20121
      0.01347 [    34]: 22110
      0.00792 [    31]: 21210
      0.00546 [    19]: 12120
      0.00544 [    21]: 12210
      0.00400 [     4]: 02121
      0.00321 [     0]: 01122
ROOT  12:  E=   -2610.3958480241 Eh  0.615 eV   4964.2 cm**-1
      0.23231 [    10]: 11112
      0.17589 [    28]: 21111
      0.11731 [    16]: 12021
      0.11086 [    33]: 22101
      0.06860 [     4]: 02121
      0.04594 [     3]: 02112
      0.03324 [    34]: 22110
      0.03315 [    11]: 11121
      0.02632 [     0]: 01122
      0.02316 [    26]: 21021
      0.01788 [    17]: 12102
      0.01333 [    32]: 22011
      0.01278 [     9]: 11022
      0.01155 [     6]: 10122
      0.01123 [    18]: 12111
      0.01096 [    25]: 21012
      0.00963 [    31]: 21210
      0.00687 [    15]: 12012
      0.00546 [     8]: 10221
      0.00444 [     2]: 01221
      0.00404 [    29]: 21120
      0.00401 [     7]: 10212
      0.00393 [    30]: 21201
      0.00372 [    20]: 12201
      0.00264 [    22]: 20112
ROOT  13:  E=   -2610.3955434990 Eh  0.624 eV   5031.0 cm**-1
      0.21156 [    18]: 12111
      0.15493 [    28]: 21111
      0.10402 [    17]: 12102
      0.09833 [    27]: 21102
      0.06198 [    19]: 12120
      0.05404 [    11]: 11121
      0.05318 [    14]: 11220
      0.05158 [    10]: 11112
      0.04579 [    13]: 11211
      0.03954 [     6]: 10122
      0.02683 [     0]: 01122
      0.02092 [     9]: 11022
      0.01771 [     3]: 02112
      0.01362 [    22]: 20112
      0.00999 [    21]: 12210
      0.00870 [    33]: 22101
      0.00737 [    15]: 12012
      0.00486 [    32]: 22011
      0.00416 [     8]: 10221
      0.00254 [    26]: 21021
ROOT  14:  E=   -2610.3940214119 Eh  0.665 eV   5365.1 cm**-1
      0.18129 [     4]: 02121
      0.09644 [    17]: 12102
      0.09564 [    31]: 21210
      0.09519 [    11]: 11121
      0.08986 [    10]: 11112
      0.08304 [     1]: 01212
      0.06230 [     6]: 10122
      0.05837 [     3]: 02112
      0.04256 [     0]: 01122
      0.04171 [    25]: 21012
      0.03015 [    23]: 20121
      0.02514 [    13]: 11211
      0.02264 [    18]: 12111
      0.01842 [    30]: 21201
      0.01562 [    24]: 20211
      0.01525 [    33]: 22101
      0.00675 [    20]: 12201
      0.00476 [    22]: 20112
      0.00390 [    21]: 12210
      0.00316 [    14]: 11220
ROOT  15:  E=   -2610.3907139872 Eh  0.755 eV   6091.0 cm**-1
      0.37372 [    11]: 11121
      0.11609 [    18]: 12111
      0.09546 [    30]: 21201
      0.04411 [     3]: 02112
      0.03977 [     7]: 10212
      0.03956 [    34]: 22110
      0.03658 [    24]: 20211
      0.02964 [    29]: 21120
      0.02873 [    31]: 21210
      0.02087 [    20]: 12201
      0.01955 [    15]: 12012
      0.01712 [     2]: 01221
      0.01529 [     4]: 02121
      0.01513 [    12]: 11202
      0.01512 [    22]: 20112
      0.01346 [     8]: 10221
      0.00957 [    28]: 21111
      0.00889 [     6]: 10122
      0.00832 [    23]: 20121
      0.00756 [     9]: 11022
      0.00699 [     1]: 01212
      0.00597 [     0]: 01122
      0.00537 [    10]: 11112
      0.00419 [    21]: 12210
      0.00418 [    16]: 12021
      0.00385 [    27]: 21102
      0.00293 [    19]: 12120
      0.00276 [     5]: 02211
      0.00260 [    13]: 11211
ROOT  16:  E=   -2610.3897033646 Eh  0.783 eV   6312.8 cm**-1
      0.26478 [    18]: 12111
      0.19700 [    24]: 20211
      0.11827 [    28]: 21111
      0.06930 [    11]: 11121
      0.06172 [    13]: 11211
      0.05952 [    30]: 21201
      0.03196 [    12]: 11202
      0.02319 [    29]: 21120
      0.02265 [    27]: 21102
      0.01904 [    10]: 11112
      0.01770 [     9]: 11022
      0.01373 [    32]: 22011
      0.01354 [    20]: 12201
      0.01164 [    19]: 12120
      0.01137 [     3]: 02112
      0.01108 [     8]: 10221
      0.00810 [    31]: 21210
      0.00785 [    34]: 22110
      0.00715 [    15]: 12012
      0.00682 [    26]: 21021
      0.00563 [     0]: 01122
      0.00401 [    17]: 12102
      0.00309 [     7]: 10212
      0.00273 [    14]: 11220
ROOT  17:  E=   -2610.3874373657 Eh  0.844 eV   6810.1 cm**-1
      0.29198 [    13]: 11211
      0.08628 [    19]: 12120
      0.08502 [    28]: 21111
      0.06731 [    10]: 11112
      0.06492 [     6]: 10122
      0.05950 [    18]: 12111
      0.04337 [     7]: 10212
      0.04268 [    24]: 20211
      0.04198 [    21]: 12210
      0.03546 [    29]: 21120
      0.02950 [    14]: 11220
      0.02177 [    30]: 21201
      0.02117 [    12]: 11202
      0.02105 [    23]: 20121
      0.01945 [    33]: 22101
      0.01878 [     5]: 02211
      0.01724 [    11]: 11121
      0.01125 [     2]: 01221
      0.00472 [    34]: 22110
      0.00336 [    31]: 21210
      0.00329 [     0]: 01122
ROOT  18:  E=   -2610.3873401030 Eh  0.847 eV   6831.5 cm**-1
      0.18109 [    10]: 11112
      0.17562 [     4]: 02121
      0.17554 [    13]: 11211
      0.17108 [    31]: 21210
      0.13977 [     8]: 10221
      0.05400 [    16]: 12021
      0.01641 [    22]: 20112
      0.01510 [     7]: 10212
      0.00822 [    30]: 21201
      0.00624 [    11]: 11121
      0.00616 [     0]: 01122
      0.00583 [    27]: 21102
      0.00569 [    25]: 21012
      0.00530 [     1]: 01212
      0.00517 [    14]: 11220
      0.00426 [    33]: 22101
      0.00374 [    34]: 22110
      0.00367 [     2]: 01221
      0.00358 [    18]: 12111
      0.00317 [    12]: 11202
      0.00290 [    24]: 20211
ROOT  19:  E=   -2610.3850946885 Eh  0.908 eV   7324.3 cm**-1
      0.27041 [    28]: 21111
      0.21810 [    10]: 11112
      0.07022 [    18]: 12111
      0.06505 [    19]: 12120
      0.06151 [    17]: 12102
      0.05303 [    29]: 21120
      0.05241 [    13]: 11211
      0.03870 [    11]: 11121
      0.03073 [     6]: 10122
      0.02332 [    34]: 22110
      0.01695 [    33]: 22101
      0.01685 [    24]: 20211
      0.01368 [    23]: 20121
      0.01216 [    27]: 21102
      0.01154 [    12]: 11202
      0.00963 [     7]: 10212
      0.00654 [     5]: 02211
      0.00621 [    22]: 20112
      0.00393 [    30]: 21201
      0.00390 [    21]: 12210
      0.00350 [    20]: 12201
      0.00266 [     2]: 01221
ROOT  20:  E=   -2610.3842545650 Eh  0.931 eV   7508.7 cm**-1
      0.17798 [    30]: 21201
      0.11007 [     3]: 02112
      0.10629 [    26]: 21021
      0.06693 [    11]: 11121
      0.05749 [    22]: 20112
      0.05665 [     4]: 02121
      0.05006 [    31]: 21210
      0.04818 [    24]: 20211
      0.04663 [     6]: 10122
      0.03623 [    25]: 21012
      0.03296 [     2]: 01221
      0.03051 [    32]: 22011
      0.02562 [    17]: 12102
      0.01922 [    18]: 12111
      0.01807 [     0]: 01122
      0.01782 [    33]: 22101
      0.01754 [    10]: 11112
      0.01625 [    27]: 21102
      0.00982 [    15]: 12012
      0.00827 [     5]: 02211
      0.00799 [     1]: 01212
      0.00618 [     9]: 11022
      0.00596 [    16]: 12021
      0.00505 [    12]: 11202
      0.00402 [     7]: 10212
      0.00362 [    23]: 20121
      0.00359 [    20]: 12201
      0.00350 [    19]: 12120
ROOT  21:  E=   -2610.3836921825 Eh  0.946 eV   7632.1 cm**-1
      0.31591 [    14]: 11220
      0.10957 [    13]: 11211
      0.08443 [     5]: 02211
      0.06245 [    21]: 12210
      0.06044 [    32]: 22011
      0.04870 [    18]: 12111
      0.04569 [     8]: 10221
      0.04538 [    24]: 20211
      0.03156 [    28]: 21111
      0.03076 [     0]: 01122
      0.02206 [    26]: 21021
      0.02128 [    20]: 12201
      0.02008 [    17]: 12102
      0.01641 [    11]: 11121
      0.01567 [    30]: 21201
      0.01561 [     2]: 01221
      0.01398 [     3]: 02112
      0.01345 [    10]: 11112
      0.00618 [    12]: 11202
      0.00442 [     1]: 01212
      0.00324 [    29]: 21120
      0.00258 [     6]: 10122
ROOT  22:  E=   -2610.3828405997 Eh  0.969 eV   7819.0 cm**-1
      0.21382 [    31]: 21210
      0.15187 [    10]: 11112
      0.09883 [    16]: 12021
      0.08991 [    20]: 12201
      0.05852 [    11]: 11121
      0.04067 [     1]: 01212
      0.03724 [    13]: 11211
      0.03141 [    22]: 20112
      0.03103 [    18]: 12111
      0.02684 [     8]: 10221
      0.02670 [    28]: 21111
      0.02123 [    34]: 22110
      0.02060 [    17]: 12102
      0.01600 [     3]: 02112
      0.01530 [    24]: 20211
      0.01471 [    33]: 22101
      0.01379 [     4]: 02121
      0.01317 [     0]: 01122
      0.01315 [    30]: 21201
      0.01306 [     6]: 10122
      0.01266 [     9]: 11022
      0.01238 [    15]: 12012
      0.00624 [    27]: 21102
      0.00594 [    12]: 11202
      0.00375 [     7]: 10212
      0.00281 [    25]: 21012
ROOT  23:  E=   -2610.3826462038 Eh  0.975 eV   7861.6 cm**-1
      0.20939 [    18]: 12111
      0.14009 [    27]: 21102
      0.12555 [     0]: 01122
      0.09119 [    32]: 22011
      0.05395 [    11]: 11121
      0.04592 [     3]: 02112
      0.04537 [    19]: 12120
      0.04483 [    14]: 11220
      0.04457 [    22]: 20112
      0.03516 [    26]: 21021
      0.02149 [    21]: 12210
      0.01624 [    12]: 11202
      0.01612 [     5]: 02211
      0.01275 [    24]: 20211
      0.01193 [     8]: 10221
      0.01054 [    13]: 11211
      0.01046 [     2]: 01221
      0.00847 [    17]: 12102
      0.00832 [     6]: 10122
      0.00656 [    15]: 12012
      0.00638 [    30]: 21201
      0.00635 [    10]: 11112
      0.00633 [     7]: 10212
      0.00628 [     9]: 11022
      0.00558 [    28]: 21111
      0.00281 [    20]: 12201
ROOT  24:  E=   -2610.3820071491 Eh  0.992 eV   8001.9 cm**-1
      0.23937 [    21]: 12210
      0.19366 [     2]: 01221
      0.09429 [    14]: 11220
      0.08366 [     5]: 02211
      0.05514 [    11]: 11121
      0.04328 [    30]: 21201
      0.02902 [    13]: 11211
      0.02590 [     1]: 01212
      0.02074 [    24]: 20211
      0.01995 [    18]: 12111
      0.01966 [    20]: 12201
      0.01900 [    26]: 21021
      0.01804 [    34]: 22110
      0.01740 [     8]: 10221
      0.01419 [    12]: 11202
      0.01275 [     7]: 10212
      0.01208 [    23]: 20121
      0.01188 [    31]: 21210
      0.01148 [     6]: 10122
      0.00890 [     3]: 02112
      0.00655 [    10]: 11112
      0.00643 [    33]: 22101
      0.00631 [    25]: 21012
      0.00590 [    32]: 22011
      0.00506 [    22]: 20112
      0.00450 [    16]: 12021
      0.00368 [     0]: 01122
      0.00363 [    29]: 21120
      0.00293 [    17]: 12102
ROOT  25:  E=   -2610.3770205448 Eh  1.128 eV   9096.3 cm**-1
      0.22698 [    28]: 21111
      0.11996 [    13]: 11211
      0.09544 [    20]: 12201
      0.08787 [     8]: 10221
      0.06184 [    19]: 12120
      0.05018 [     6]: 10122
      0.04998 [    14]: 11220
      0.04270 [    22]: 20112
      0.03942 [    34]: 22110
      0.03673 [    10]: 11112
      0.03386 [    27]: 21102
      0.02957 [    18]: 12111
      0.02538 [    33]: 22101
      0.02302 [    12]: 11202
      0.01849 [    23]: 20121
      0.01771 [    29]: 21120
      0.01203 [     5]: 02211
      0.00922 [    24]: 20211
      0.00788 [    11]: 11121
      0.00411 [    21]: 12210
ROOT  26:  E=   -2610.3746792743 Eh  1.192 eV   9610.2 cm**-1
      0.26129 [    18]: 12111
      0.11803 [    13]: 11211
      0.11341 [     5]: 02211
      0.10714 [    29]: 21120
      0.10202 [     0]: 01122
      0.05740 [    24]: 20211
      0.04598 [    11]: 11121
      0.03733 [     2]: 01221
      0.02840 [    28]: 21111
      0.01755 [    30]: 21201
      0.01711 [    10]: 11112
      0.01645 [    23]: 20121
      0.01449 [     9]: 11022
      0.01210 [    34]: 22110
      0.01209 [     3]: 02112
      0.00751 [    14]: 11220
      0.00552 [    33]: 22101
      0.00482 [     1]: 01212
      0.00455 [    15]: 12012
      0.00397 [    17]: 12102
      0.00348 [    31]: 21210
      0.00291 [    21]: 12210
ROOT  27:  E=   -2610.3738580230 Eh  1.214 eV   9790.4 cm**-1
      0.20459 [    13]: 11211
      0.20412 [    31]: 21210
      0.08676 [    20]: 12201
      0.07938 [    33]: 22101
      0.05802 [    28]: 21111
      0.05747 [    21]: 12210
      0.04716 [    10]: 11112
      0.04145 [    11]: 11121
      0.02782 [     7]: 10212
      0.02639 [    17]: 12102
      0.02428 [     6]: 10122
      0.02271 [     8]: 10221
      0.02041 [    25]: 21012
      0.01564 [    30]: 21201
      0.01531 [    24]: 20211
      0.01345 [    16]: 12021
      0.01110 [    18]: 12111
      0.00868 [    14]: 11220
      0.00758 [     1]: 01212
      0.00464 [     3]: 02112
      0.00453 [     0]: 01122
      0.00329 [    27]: 21102
      0.00321 [    32]: 22011
ROOT  28:  E=   -2610.3731704667 Eh  1.233 eV   9941.3 cm**-1
      0.32867 [    13]: 11211
      0.12660 [    18]: 12111
      0.12497 [    19]: 12120
      0.09271 [    11]: 11121
      0.06432 [    17]: 12102
      0.05421 [     5]: 02211
      0.02980 [     8]: 10221
      0.02734 [    20]: 12201
      0.02427 [    28]: 21111
      0.02137 [     2]: 01221
      0.02062 [    24]: 20211
      0.01734 [    29]: 21120
      0.01045 [    30]: 21201
      0.01037 [    34]: 22110
      0.00945 [     6]: 10122
      0.00935 [    27]: 21102
      0.00656 [    12]: 11202
      0.00636 [    23]: 20121
      0.00338 [    22]: 20112
      0.00314 [    10]: 11112
ROOT  29:  E=   -2610.3724683758 Eh  1.252 eV  10095.4 cm**-1
      0.14685 [    30]: 21201
      0.13942 [    34]: 22110
      0.12013 [    21]: 12210
      0.10439 [     2]: 01221
      0.08412 [     3]: 02112
      0.05274 [    29]: 21120
      0.04488 [    10]: 11112
      0.04178 [     4]: 02121
      0.04041 [    13]: 11211
      0.03898 [    24]: 20211
      0.02937 [    14]: 11220
      0.02431 [    18]: 12111
      0.02271 [    11]: 11121
      0.02109 [     0]: 01122
      0.01718 [     5]: 02211
      0.01429 [    28]: 21111
      0.01363 [    20]: 12201
      0.00988 [     1]: 01212
      0.00619 [     6]: 10122
      0.00530 [     7]: 10212
      0.00450 [    31]: 21210
      0.00332 [    17]: 12102
ROOT  30:  E=   -2610.3510583507 Eh  1.834 eV  14794.4 cm**-1
      0.41311 [    10]: 11112
      0.12033 [    16]: 12021
      0.09645 [    28]: 21111
      0.06665 [    11]: 11121
      0.05037 [    18]: 12111
      0.03701 [    20]: 12201
      0.03326 [    22]: 20112
      0.02584 [    33]: 22101
      0.02155 [    25]: 21012
      0.01912 [    23]: 20121
      0.01855 [     8]: 10221
      0.01793 [     1]: 01212
      0.01341 [     9]: 11022
      0.01169 [    15]: 12012
      0.00747 [    34]: 22110
      0.00613 [    26]: 21021
      0.00611 [     3]: 02112
      0.00487 [     4]: 02121
      0.00465 [    13]: 11211
      0.00411 [    27]: 21102
      0.00344 [    21]: 12210
      0.00340 [    12]: 11202
      0.00278 [     0]: 01122
ROOT  31:  E=   -2610.3446152006 Eh  2.010 eV  16208.5 cm**-1
      0.13278 [    13]: 11211
      0.11517 [    12]: 11202
      0.08321 [    10]: 11112
      0.07920 [    14]: 11220
      0.07820 [    28]: 21111
      0.07214 [     8]: 10221
      0.06857 [     6]: 10122
      0.06765 [    20]: 12201
      0.03735 [    32]: 22011
      0.03476 [    18]: 12111
      0.02976 [    29]: 21120
      0.02806 [    34]: 22110
      0.02295 [    24]: 20211
      0.02285 [    19]: 12120
      0.02237 [    27]: 21102
      0.01942 [    33]: 22101
      0.01757 [    22]: 20112
      0.01355 [     9]: 11022
      0.01339 [    23]: 20121
      0.01240 [    26]: 21021
      0.00863 [     7]: 10212
      0.00597 [    21]: 12210
      0.00455 [    11]: 11121
      0.00270 [    30]: 21201
ROOT  32:  E=   -2610.3444056535 Eh  2.015 eV  16254.5 cm**-1
      0.10349 [    13]: 11211
      0.09558 [     7]: 10212
      0.08491 [    10]: 11112
      0.08265 [     3]: 02112
      0.06530 [    21]: 12210
      0.06472 [     4]: 02121
      0.05577 [    26]: 21021
      0.05380 [    34]: 22110
      0.04709 [     1]: 01212
      0.04234 [     2]: 01221
      0.03326 [    16]: 12021
      0.03010 [    12]: 11202
      0.02584 [    31]: 21210
      0.02571 [    25]: 21012
      0.02479 [    11]: 11121
      0.02219 [    14]: 11220
      0.02090 [     0]: 01122
      0.02043 [    29]: 21120
      0.01949 [    23]: 20121
      0.01663 [    32]: 22011
      0.01303 [    18]: 12111
      0.01267 [     8]: 10221
      0.00838 [    15]: 12012
      0.00672 [    30]: 21201
      0.00553 [    33]: 22101
      0.00447 [     6]: 10122
      0.00361 [     5]: 02211
ROOT  33:  E=   -2610.3424292299 Eh  2.069 eV  16688.3 cm**-1
      0.13701 [     5]: 02211
      0.13524 [    13]: 11211
      0.12164 [    32]: 22011
      0.10408 [    28]: 21111
      0.06904 [     0]: 01122
      0.05087 [    20]: 12201
      0.04441 [     8]: 10221
      0.04355 [     2]: 01221
      0.04198 [    18]: 12111
      0.04116 [     9]: 11022
      0.03616 [    12]: 11202
      0.03183 [    26]: 21021
      0.02102 [    29]: 21120
      0.01696 [    10]: 11112
      0.01486 [     3]: 02112
      0.01103 [     7]: 10212
      0.01095 [    24]: 20211
      0.01029 [    27]: 21102
      0.00846 [    22]: 20112
      0.00777 [    17]: 12102
      0.00741 [    23]: 20121
      0.00631 [    15]: 12012
      0.00522 [    30]: 21201
      0.00412 [    11]: 11121
      0.00346 [    33]: 22101
      0.00315 [    19]: 12120
      0.00269 [    21]: 12210
ROOT  34:  E=   -2610.3393948994 Eh  2.152 eV  17354.2 cm**-1
      0.41431 [    13]: 11211
      0.10653 [    18]: 12111
      0.06632 [    28]: 21111
      0.05532 [    11]: 11121
      0.03822 [    27]: 21102
      0.03820 [    33]: 22101
      0.03284 [    29]: 21120
      0.03216 [    23]: 20121
      0.03205 [    17]: 12102
      0.02924 [    21]: 12210
      0.02892 [     7]: 10212
      0.01827 [    19]: 12120
      0.01551 [    14]: 11220
      0.01422 [     8]: 10221
      0.01398 [    20]: 12201
      0.01350 [    12]: 11202
      0.00996 [     6]: 10122
      0.00987 [     5]: 02211
      0.00451 [    24]: 20211
      0.00390 [    34]: 22110
      0.00355 [    31]: 21210
      0.00331 [    10]: 11112
      0.00323 [    22]: 20112
      0.00305 [     1]: 01212
ROOT  35:  E=   -2610.2551360298 Eh  4.444 eV  35846.9 cm**-1
      0.25583 [    26]: 21021
      0.11074 [    16]: 12021
      0.08007 [    25]: 21012
      0.07993 [     2]: 01221
      0.06855 [    11]: 11121
      0.06202 [    32]: 22011
      0.05593 [    30]: 21201
      0.05345 [     8]: 10221
      0.03556 [     1]: 01212
      0.03176 [    20]: 12201
      0.02263 [    23]: 20121
      0.01986 [    18]: 12111
      0.01601 [    24]: 20211
      0.01485 [     5]: 02211
      0.01236 [    33]: 22101
      0.01137 [    34]: 22110
      0.01071 [    10]: 11112
      0.00960 [    13]: 11211
      0.00750 [    15]: 12012
      0.00676 [    22]: 20112
      0.00516 [    31]: 21210
      0.00478 [     7]: 10212
      0.00473 [     3]: 02112
      0.00364 [    21]: 12210
      0.00328 [     4]: 02121
      0.00252 [     9]: 11022
ROOT  36:  E=   -2610.2505331517 Eh  4.570 eV  36857.1 cm**-1
      0.23005 [    32]: 22011
      0.13225 [     5]: 02211
      0.09344 [    29]: 21120
      0.06774 [    24]: 20211
      0.06205 [    26]: 21021
      0.05727 [    18]: 12111
      0.04870 [     9]: 11022
      0.04198 [     2]: 01221
      0.03498 [    27]: 21102
      0.03451 [    12]: 11202
      0.02517 [    34]: 22110
      0.02371 [    19]: 12120
      0.01848 [     0]: 01122
      0.01833 [    11]: 11121
      0.01725 [    30]: 21201
      0.01537 [    13]: 11211
      0.01467 [    28]: 21111
      0.01228 [    22]: 20112
      0.00976 [    17]: 12102
      0.00701 [     6]: 10122
      0.00604 [     3]: 02112
      0.00592 [    15]: 12012
      0.00522 [    23]: 20121
      0.00432 [    25]: 21012
      0.00415 [     7]: 10212
ROOT  37:  E=   -2610.2484748790 Eh  4.626 eV  37308.8 cm**-1
      0.17437 [    23]: 20121
      0.11446 [     8]: 10221
      0.09945 [    33]: 22101
      0.06684 [     4]: 02121
      0.06128 [    22]: 20112
      0.05030 [    25]: 21012
      0.04430 [    11]: 11121
      0.04167 [    10]: 11112
      0.03813 [    16]: 12021
      0.03454 [    20]: 12201
      0.03327 [     2]: 01221
      0.03220 [    31]: 21210
      0.03113 [    27]: 21102
      0.02352 [    13]: 11211
      0.02192 [    29]: 21120
      0.01719 [    34]: 22110
      0.01560 [    26]: 21021
      0.01538 [    28]: 21111
      0.01418 [     6]: 10122
      0.01307 [     1]: 01212
      0.01152 [    18]: 12111
      0.01030 [    21]: 12210
      0.00785 [    17]: 12102
      0.00642 [     5]: 02211
      0.00399 [     7]: 10212
      0.00330 [    12]: 11202
      0.00315 [    19]: 12120
      0.00261 [     9]: 11022
ROOT  38:  E=   -2610.2437348745 Eh  4.755 eV  38349.2 cm**-1
      0.21099 [    19]: 12120
      0.13535 [    29]: 21120
      0.07501 [     0]: 01122
      0.07476 [    18]: 12111
      0.07279 [     5]: 02211
      0.07092 [     6]: 10122
      0.05982 [    28]: 21111
      0.04485 [    17]: 12102
      0.03978 [    32]: 22011
      0.03139 [    34]: 22110
      0.02716 [    11]: 11121
      0.02425 [    13]: 11211
      0.01840 [     2]: 01221
      0.01497 [    27]: 21102
      0.01221 [    22]: 20112
      0.01197 [     3]: 02112
      0.01179 [    26]: 21021
      0.01140 [    24]: 20211
      0.01041 [    33]: 22101
      0.00839 [    14]: 11220
      0.00683 [    10]: 11112
      0.00592 [     4]: 02121
      0.00442 [     8]: 10221
      0.00392 [    30]: 21201
      0.00365 [    21]: 12210
      0.00293 [    20]: 12201
ROOT  39:  E=   -2610.2433565184 Eh  4.765 eV  38432.2 cm**-1
      0.14839 [    17]: 12102
      0.14252 [    19]: 12120
      0.13520 [     6]: 10122
      0.09445 [    27]: 21102
      0.07981 [     0]: 01122
      0.07772 [    13]: 11211
      0.04672 [    29]: 21120
      0.03619 [    18]: 12111
      0.02920 [    22]: 20112
      0.02718 [     5]: 02211
      0.02486 [    34]: 22110
      0.02484 [    28]: 21111
      0.02136 [    23]: 20121
      0.02084 [     3]: 02112
      0.01920 [    21]: 12210
      0.01586 [    33]: 22101
      0.01463 [    14]: 11220
      0.01253 [     2]: 01221
      0.00956 [    11]: 11121
      0.00370 [    32]: 22011
      0.00313 [     9]: 11022
      0.00286 [    10]: 11112
ROOT  40:  E=   -2610.2416009886 Eh  4.813 eV  38817.5 cm**-1
      0.27090 [    34]: 22110
      0.10596 [     3]: 02112
      0.08322 [    22]: 20112
      0.06423 [    29]: 21120
      0.06277 [    11]: 11121
      0.05116 [     2]: 01221
      0.04968 [     4]: 02121
      0.03674 [    20]: 12201
      0.03284 [     0]: 01122
      0.02664 [    26]: 21021
      0.02533 [     5]: 02211
      0.02487 [    27]: 21102
      0.02213 [    10]: 11112
      0.01909 [    30]: 21201
      0.01890 [    21]: 12210
      0.01643 [     7]: 10212
      0.01557 [    14]: 11220
      0.01512 [     8]: 10221
      0.01103 [     1]: 01212
      0.01012 [    16]: 12021
      0.01010 [    18]: 12111
      0.00885 [    32]: 22011
      0.00457 [    24]: 20211
      0.00430 [    28]: 21111
      0.00413 [    13]: 11211
      0.00268 [    17]: 12102
ROOT  41:  E=   -2610.2397572460 Eh  4.863 eV  39222.1 cm**-1
      0.18577 [    20]: 12201
      0.15818 [    33]: 22101
      0.06418 [     8]: 10221
      0.06182 [    10]: 11112
      0.06176 [    16]: 12021
      0.04715 [    28]: 21111
      0.04472 [    13]: 11211
      0.04180 [     4]: 02121
      0.03747 [    23]: 20121
      0.03741 [    12]: 11202
      0.03358 [    21]: 12210
      0.02935 [     7]: 10212
      0.02874 [    30]: 21201
      0.02266 [     3]: 02112
      0.01832 [    15]: 12012
      0.01787 [    14]: 11220
      0.01729 [    24]: 20211
      0.01539 [    22]: 20112
      0.01478 [     9]: 11022
      0.01081 [     6]: 10122
      0.01003 [    34]: 22110
      0.00988 [    11]: 11121
      0.00450 [    31]: 21210
      0.00449 [    18]: 12111
      0.00402 [    17]: 12102
      0.00383 [    32]: 22011
      0.00381 [    26]: 21021
      0.00311 [     0]: 01122
      0.00266 [     1]: 01212
ROOT  42:  E=   -2610.2355755602 Eh  4.977 eV  40139.9 cm**-1
      0.31960 [     7]: 10212
      0.14292 [    21]: 12210
      0.07693 [    12]: 11202
      0.05694 [    34]: 22110
      0.04806 [    30]: 21201
      0.04640 [    11]: 11121
      0.04341 [     2]: 01221
      0.03324 [    15]: 12012
      0.02861 [    14]: 11220
      0.02126 [     1]: 01212
      0.01774 [    33]: 22101
      0.01540 [    23]: 20121
      0.01469 [     6]: 10122
      0.01459 [    18]: 12111
      0.01456 [     8]: 10221
      0.01455 [    20]: 12201
      0.01134 [     5]: 02211
      0.01076 [    29]: 21120
      0.00825 [     9]: 11022
      0.00814 [    22]: 20112
      0.00769 [    31]: 21210
      0.00700 [    24]: 20211
      0.00698 [    25]: 21012
      0.00687 [    10]: 11112
      0.00649 [    28]: 21111
      0.00524 [    27]: 21102
      0.00301 [    17]: 12102
      0.00264 [    13]: 11211
ROOT  43:  E=   -2610.2325149084 Eh  5.060 eV  40811.7 cm**-1
      0.39319 [    12]: 11202
      0.12816 [     7]: 10212
      0.09555 [    14]: 11220
      0.04147 [    21]: 12210
      0.04055 [     9]: 11022
      0.02873 [    18]: 12111
      0.02737 [     5]: 02211
      0.02470 [    20]: 12201
      0.02417 [    17]: 12102
      0.02096 [    30]: 21201
      0.01944 [    13]: 11211
      0.01869 [    24]: 20211
      0.01771 [     2]: 01221
      0.01561 [    28]: 21111
      0.01556 [     6]: 10122
      0.01407 [    15]: 12012
      0.01182 [    29]: 21120
      0.01128 [    27]: 21102
      0.00849 [    19]: 12120
      0.00779 [    10]: 11112
      0.00655 [    23]: 20121
      0.00585 [    33]: 22101
      0.00505 [    11]: 11121
      0.00449 [    22]: 20112
      0.00371 [    34]: 22110
ROOT  44:  E=   -2610.2282511827 Eh  5.176 eV  41747.4 cm**-1
      0.57125 [     1]: 01212
      0.06451 [     7]: 10212
      0.05701 [    31]: 21210
      0.05499 [     5]: 02211
      0.04951 [     2]: 01221
      0.03604 [    25]: 21012
      0.03081 [     4]: 02121
      0.02273 [    20]: 12201
      0.02009 [    10]: 11112
      0.01938 [    12]: 11202
      0.00790 [    22]: 20112
      0.00547 [     8]: 10221
      0.00526 [    16]: 12021
      0.00518 [     6]: 10122
      0.00492 [    17]: 12102
      0.00469 [    24]: 20211
      0.00469 [    34]: 22110
      0.00420 [     0]: 01122
      0.00413 [    33]: 22101
      0.00361 [     3]: 02112
      0.00355 [    11]: 11121
      0.00355 [    13]: 11211
      0.00351 [    27]: 21102
      0.00293 [    23]: 20121

                 <<<<<<<<<<<<<<<<<<INITIAL CI STATE CHECK>>>>>>>>>>>>>>>>>>

   E(CAS)= -2610.426975077 Eh DE=    0.000000e+00
   --- Energy gap subspaces: Ext-Act = 0.209   Act-Int = -0.060
   N(occ)=  1.20000 1.20000 1.20000 1.20000 1.20000
   ||g|| =     8.242632e-04 Max(G)=    1.604457e-04 Rot=382,15
                     ---- THE CAS-SCF GRADIENT HAS CONVERGED ----
                            --- FINALIZING ORBITALS ---
                    ---- DOING ONE FINAL ITERATION FOR PRINTING ----
   --- Forming Natural Orbitals
   --- Canonicalize Internal Space
   --- Canonicalize External Space

MACRO-ITERATION   2: 
   --- Inactive Energy E0 = -2594.82044854 Eh
   --- All densities will be recomputed
CI-ITERATION   0: 
 -2610.505399403   0.000000000000 (    0.00)
 -2610.505324828   0.000000000000
 -2610.500717428   0.000000000000
 -2610.497788229   0.000000000000
 -2610.487235444   0.000000000000
   CI-PROBLEM SOLVED
   DENSITIES MADE
CI-ITERATION   0: 
 -2610.418466496   0.000000000000 (    0.00)
 -2610.418275002   0.000000000000
 -2610.414107189   0.000000000000
 -2610.412751950   0.000000000000
 -2610.410864157   0.000000000000
 -2610.409239980   0.000000000000
 -2610.407028863   0.000000000000
 -2610.405671003   0.000000000000
 -2610.404863911   0.000000000000
 -2610.403774800   0.000000000000
 -2610.401239474   0.000000000000
 -2610.400107607   0.000000000000
 -2610.395848023   0.000000000000
 -2610.395543498   0.000000000000
 -2610.394021411   0.000000000000
 -2610.390713987   0.000000000000
 -2610.389703364   0.000000000000
 -2610.387437365   0.000000000000
 -2610.387340102   0.000000000000
 -2610.385094688   0.000000000000
 -2610.384254564   0.000000000000
 -2610.383692181   0.000000000000
 -2610.382840599   0.000000000000
 -2610.382646203   0.000000000000
 -2610.382007148   0.000000000000
 -2610.377020544   0.000000000000
 -2610.374679273   0.000000000000
 -2610.373858022   0.000000000000
 -2610.373170466   0.000000000000
 -2610.372468375   0.000000000000
 -2610.351058350   0.000000000000
 -2610.344615200   0.000000000000
 -2610.344405653   0.000000000000
 -2610.342429229   0.000000000000
 -2610.339394899   0.000000000000
 -2610.255136029   0.000000000000
 -2610.250533151   0.000000000000
 -2610.248474878   0.000000000000
 -2610.243734874   0.000000000000
 -2610.243356518   0.000000000000
 -2610.241600988   0.000000000000
 -2610.239757245   0.000000000000
 -2610.235575560   0.000000000000
 -2610.232514908   0.000000000000
 -2610.228251182   0.000000000000
   CI-PROBLEM SOLVED
   DENSITIES MADE
   E(CAS)= -2610.426975076 Eh DE=    6.953087e-10
   --- Energy gap subspaces: Ext-Act = 0.211   Act-Int = -0.059
   N(occ)=  1.20000 1.20000 1.20000 1.20000 1.20000
   ||g|| =     8.242632e-04 Max(G)=   -1.604457e-04 Rot=382,15
--------------
CASSCF RESULTS
--------------

Final CASSCF energy       : -2610.426975076 Eh  -71033.3293 eV

----------------
ORBITAL ENERGIES
----------------

  NO   OCC          E(Eh)            E(eV) 
   0   2.0000    -261.383410     -7112.6042 
   1   2.0000     -31.950010      -869.4040 
   2   2.0000     -27.430293      -746.4162 
   3   2.0000     -27.429574      -746.3966 
   4   2.0000     -27.429201      -746.3865 
   5   2.0000      -4.731855      -128.7603 
   6   2.0000      -4.714938      -128.3000 
   7   2.0000      -4.714911      -128.2993 
   8   2.0000      -4.714292      -128.2824 
   9   2.0000      -4.713822      -128.2696 
  10   2.0000      -4.709500      -128.1520 
  11   2.0000      -4.709473      -128.1513 
  12   2.0000      -4.707213      -128.0898 
  13   2.0000      -4.696205      -127.7902 
  14   2.0000      -4.692890      -127.7000 
  15   2.0000      -4.184533      -113.8669 
  16   2.0000      -2.772357       -75.4397 
  17   2.0000      -2.768581       -75.3369 
  18   2.0000      -2.766324       -75.2755 
  19   2.0000      -2.764987       -75.2391 
  20   2.0000      -2.764763       -75.2330 
  21   2.0000      -2.763948       -75.2109 
  22   2.0000      -2.755635       -74.9846 
  23   2.0000      -2.754894       -74.9645 
  24   2.0000      -2.753973       -74.9394 
  25   2.0000      -2.751874       -74.8823 
  26   2.0000      -2.751607       -74.8750 
  27   2.0000      -2.750675       -74.8497 
  28   2.0000      -2.749867       -74.8277 
  29   2.0000      -2.749434       -74.8159 
  30   2.0000      -2.748884       -74.8009 
  31   2.0000      -2.748221       -74.7829 
  32   2.0000      -2.747723       -74.7693 
  33   2.0000      -2.746065       -74.7242 
  34   2.0000      -2.745492       -74.7086 
  35   2.0000      -2.745081       -74.6975 
  36   2.0000      -2.744866       -74.6916 
  37   2.0000      -2.744497       -74.6816 
  38   2.0000      -2.743885       -74.6649 
  39   2.0000      -2.742947       -74.6394 
  40   2.0000      -2.741577       -74.6021 
  41   2.0000      -2.740851       -74.5823 
  42   2.0000      -2.738699       -74.5238 
  43   2.0000      -2.733496       -74.3822 
  44   2.0000      -2.730858       -74.3104 
  45   2.0000      -2.730052       -74.2885 
  46   2.0000      -2.727486       -74.2187 
  47   2.0000      -2.726177       -74.1830 
  48   2.0000      -2.725544       -74.1658 
  49   2.0000      -0.583072       -15.8662 
  50   2.0000      -0.557946       -15.1825 
  51   2.0000      -0.548499       -14.9254 
  52   2.0000      -0.547541       -14.8994 
  53   2.0000      -0.542951       -14.7744 
  54   2.0000      -0.534559       -14.5461 
  55   2.0000      -0.534082       -14.5331 
  56   2.0000      -0.528797       -14.3893 
  57   2.0000      -0.524883       -14.2828 
  58   2.0000      -0.524236       -14.2652 
  59   2.0000      -0.523078       -14.2337 
  60   2.0000      -0.517847       -14.0913 
  61   2.0000      -0.515531       -14.0283 
  62   2.0000      -0.514145       -13.9906 
  63   2.0000      -0.511941       -13.9306 
  64   2.0000      -0.503038       -13.6884 
  65   2.0000      -0.501094       -13.6355 
  66   2.0000      -0.500482       -13.6188 
  67   2.0000      -0.495954       -13.4956 
  68   2.0000      -0.493061       -13.4169 
  69   2.0000      -0.491946       -13.3865 
  70   2.0000      -0.486227       -13.2309 
  71   2.0000      -0.478653       -13.0248 
  72   2.0000      -0.478074       -13.0091 
  73   2.0000      -0.473940       -12.8966 
  74   2.0000      -0.471923       -12.8417 
  75   2.0000      -0.469007       -12.7623 
  76   2.0000      -0.468435       -12.7468 
  77   2.0000      -0.466934       -12.7059 
  78   2.0000      -0.465115       -12.6564 
  79   2.0000      -0.462767       -12.5925 
  80   2.0000      -0.459066       -12.4918 
  81   2.0000      -0.457829       -12.4582 
  82   2.0000      -0.456612       -12.4250 
  83   2.0000      -0.454449       -12.3662 
  84   2.0000      -0.452404       -12.3105 
  85   2.0000      -0.449807       -12.2399 
  86   2.0000      -0.448345       -12.2001 
  87   2.0000      -0.441940       -12.0258 
  88   2.0000      -0.440913       -11.9979 
  89   2.0000      -0.434023       -11.8104 
  90   2.0000      -0.432363       -11.7652 
  91   2.0000      -0.430837       -11.7237 
  92   2.0000      -0.429823       -11.6961 
  93   2.0000      -0.429312       -11.6822 
  94   2.0000      -0.427029       -11.6200 
  95   2.0000      -0.421799       -11.4777 
  96   2.0000      -0.419418       -11.4129 
  97   2.0000      -0.407623       -11.0920 
  98   2.0000      -0.406885       -11.0719 
  99   2.0000      -0.397050       -10.8043 
 100   2.0000      -0.340206        -9.2575 
 101   2.0000      -0.321577        -8.7506 
 102   2.0000      -0.294235        -8.0065 
 103   2.0000      -0.244925        -6.6648 
 104   2.0000      -0.206240        -5.6121 
 105   1.2000      -0.263585        -7.1725 
 106   1.2000      -0.260528        -7.0893 
 107   1.2000      -0.264889        -7.2080 
 108   1.2000      -0.265689        -7.2298 
 109   1.2000      -0.246236        -6.7004 
 110   0.0000      -0.034927        -0.9504 
 111   0.0000      -0.033729        -0.9178 
 112   0.0000      -0.010469        -0.2849 
 113   0.0000       0.016746         0.4557 
 114   0.0000       0.026341         0.7168 
 115   0.0000       0.038163         1.0385 
 116   0.0000       0.048188         1.3113 
 117   0.0000       0.057986         1.5779 
 118   0.0000       0.058045         1.5795 
 119   0.0000       0.066852         1.8191 
 120   0.0000       0.072197         1.9646 
 121   0.0000       0.076424         2.0796 
 122   0.0000       0.084952         2.3116 
 123   0.0000       0.109982         2.9928 
 124   0.0000       0.110435         3.0051 
 125   0.0000       0.114142         3.1060 
 126   0.0000       0.122051         3.3212 
 127   0.0000       0.122302         3.3280 
 128   0.0000       0.136471         3.7136 
 129   0.0000       0.136834         3.7234 
 130   0.0000       0.139056         3.7839 
 131   0.0000       0.146947         3.9986 
 132   0.0000       0.153506         4.1771 
 133   0.0000       0.159609         4.3432 
 134   0.0000       0.161088         4.3834 
 135   0.0000       0.163732         4.4554 
 136   0.0000       0.164960         4.4888 
 137   0.0000       0.169997         4.6259 
 138   0.0000       0.179310         4.8793 
 139   0.0000       0.186851         5.0845 
 140   0.0000       0.194647         5.2966 
 141   0.0000       0.207016         5.6332 
 142   0.0000       0.209310         5.6956 
 143   0.0000       0.215874         5.8742 
[...]
 3 117   28988.6    345.0   0.000000000   0.00000   0.00037   0.00016   0.00003
 3 118   31527.9    317.2   0.000000000   0.00000   0.00004   0.00011   0.00036
 3 119   31537.8    317.1   0.000000000   0.00000   0.00030   0.00035   0.00017
 3 120   31543.5    317.0   0.000000000   0.00000   0.00002   0.00012   0.00006
 3 121   31682.3    315.6   0.000000000   0.00000   0.00004   0.00005   0.00016
 3 122   31694.9    315.5   0.000000000   0.00000   0.00000   0.00002   0.00000
 3 123   31700.6    315.5   0.000000001   0.00000   0.00064   0.00019   0.00005
 3 124   32378.7    308.8   0.000000001   0.00000   0.00052   0.00015   0.00014
 3 125   32379.3    308.8   0.000000000   0.00000   0.00004   0.00003   0.00009
 3 126   32382.5    308.8   0.000000000   0.00000   0.00007   0.00014   0.00044
 3 127   33650.9    297.2   0.000000000   0.00000   0.00000   0.00002   0.00006
 3 128   33651.9    297.2   0.000000000   0.00000   0.00033   0.00028   0.00016
 3 129   33653.9    297.1   0.000000000   0.00000   0.00005   0.00010   0.00031
 3 130   43081.3    232.1   0.000000000   0.00000   0.00001   0.00010   0.00002
 3 131   43087.0    232.1   0.000000000   0.00000   0.00002   0.00002   0.00008
 3 132   43087.1    232.1   0.000000000   0.00000   0.00024   0.00012   0.00001
 3 133   45780.8    218.4   0.000000000   0.00000   0.00008   0.00005   0.00003
 3 134   45782.5    218.4   0.000000000   0.00000   0.00001   0.00002   0.00005
 3 135   45785.0    218.4   0.000000000   0.00000   0.00002   0.00001   0.00006
 3 136   46450.9    215.3   0.000000001   0.00000   0.00041   0.00048   0.00007
 3 137   46459.2    215.2   0.000000000   0.00000   0.00005   0.00009   0.00026
 3 138   46468.7    215.2   0.000000000   0.00000   0.00002   0.00017   0.00004
 3 139   48101.1    207.9   0.000000000   0.00000   0.00006   0.00006   0.00004
 3 140   48105.8    207.9   0.000000000   0.00000   0.00001   0.00001   0.00006
 3 141   48113.6    207.8   0.000000000   0.00000   0.00006   0.00007   0.00025
 3 142   48820.4    204.8   0.000000000   0.00000   0.00004   0.00019   0.00005
 3 143   48822.2    204.8   0.000000000   0.00000   0.00004   0.00007   0.00021
 3 144   48824.6    204.8   0.000000000   0.00000   0.00004   0.00004   0.00013
 3 145   49428.5    202.3   0.000000001   0.00000   0.00037   0.00029   0.00003
 3 146   49430.0    202.3   0.000000003   0.00000   0.00044   0.00088   0.00034
 3 147   49439.1    202.3   0.000000000   0.00000   0.00006   0.00008   0.00037
 3 148   49988.5    200.0   0.000000004   0.00000   0.00118   0.00026   0.00014
 3 149   49998.5    200.0   0.000000001   0.00000   0.00029   0.00026   0.00013
 3 150   50007.4    200.0   0.000000000   0.00000   0.00002   0.00001   0.00004
 3 151   50827.0    196.7   0.000000003   0.00000   0.00043   0.00087   0.00018
 3 152   50837.8    196.7   0.000000000   0.00000   0.00001   0.00000   0.00002
 3 153   50844.0    196.7   0.000000000   0.00000   0.00026   0.00018   0.00012
 3 154   52194.5    191.6   0.000000000   0.00000   0.00000   0.00000   0.00000
 3 155   52223.2    191.5   0.000000000   0.00000   0.00001   0.00036   0.00011
 3 156   52250.1    191.4   0.000000000   0.00000   0.00007   0.00011   0.00033
 3 157   53488.0    187.0   0.000000000   0.00000   0.00015   0.00028   0.00006
 3 158   53507.7    186.9   0.000000000   0.00000   0.00001   0.00001   0.00004
 3 159   53528.3    186.8   0.000000001   0.00000   0.00001   0.00040   0.00011
 4  5      24.3   410954.1   0.000000002   0.00319   0.00860   0.01587   0.05349
 4  6     164.5   60787.4   0.000000000   0.00000   0.00008   0.00036   0.00081
 4  7     203.8   49074.1   0.000000000   0.00005   0.00263   0.00642   0.00133
 4  8     362.7   27573.9   0.000000000   0.00000   0.00037   0.00016   0.00009
 4  9     364.3   27448.4   0.000000001   0.00007   0.00127   0.00230   0.00785
 4 10    1019.7   9806.9   0.000000013   0.00043   0.01150   0.01584   0.00693
 4 11    1027.9   9728.1   0.000000000   0.00000   0.00052   0.00088   0.00034
 4 12    1050.5   9519.0   0.000000000   0.00000   0.00010   0.00017   0.00015
 4 13    1089.6   9177.4   0.000000002   0.00007   0.00483   0.00623   0.00218
 4 14    1091.7   9159.8   0.000000015   0.00045   0.01222   0.01592   0.00722
 4 15    2798.3   3573.6   0.000000000   0.00000   0.00022   0.00046   0.00214
 4 16    2799.2   3572.5   0.000000001   0.00001   0.00111   0.00348   0.00097
 4 17    2809.0   3559.9   0.000000014   0.00016   0.00142   0.00667   0.01087
 4 18    2815.0   3552.4   0.000000000   0.00000   0.00107   0.00022   0.00040
 4 19    2816.8   3550.1   0.000000019   0.00023   0.00208   0.00554   0.01389
 4 20    6638.7   1506.3   0.000000000   0.00000   0.00046   0.00028   0.00139
 4 21    6640.2   1506.0   0.000000000   0.00000   0.00135   0.00009   0.00007
 4 22    6643.7   1505.2   0.000000015   0.00008   0.00111   0.00262   0.00836
 4 23    6650.7   1503.6   0.000000003   0.00002   0.00394   0.00062   0.00081
 4 24    6651.0   1503.5   0.000000001   0.00000   0.00066   0.00080   0.00131
 4 25   14071.3    710.7   0.000000000   0.00000   0.00003   0.00007   0.00020
 4 26   14076.7    710.4   0.000000000   0.00000   0.00013   0.00011   0.00001
 4 27   14283.3    700.1   0.000000000   0.00000   0.00050   0.00014   0.00012
 4 28   14352.8    696.7   0.000000000   0.00000   0.00001   0.00006   0.00023
 4 29   14551.5    687.2   0.000000000   0.00000   0.00001   0.00001   0.00003
 4 30   14597.8    685.0   0.000000000   0.00000   0.00059   0.00015   0.00014
 4 31   16728.9    597.8   0.000000000   0.00000   0.00053   0.00045   0.00024
 4 32   16731.0    597.7   0.000000000   0.00000   0.00004   0.00002   0.00010
 4 33   16740.0    597.4   0.000000000   0.00000   0.00009   0.00014   0.00036
 4 34   17656.6    566.4   0.000000000   0.00000   0.00011   0.00018   0.00056
 4 35   17671.7    565.9   0.000000000   0.00000   0.00009   0.00024   0.00084
 4 36   17676.6    565.7   0.000000001   0.00000   0.00124   0.00019   0.00019
 4 37   18810.3    531.6   0.000000002   0.00000   0.00181   0.00079   0.00060
 4 38   18820.1    531.3   0.000000000   0.00000   0.00002   0.00000   0.00014
 4 39   18840.7    530.8   0.000000000   0.00000   0.00005   0.00001   0.00015
 4 40   19276.9    518.8   0.000000001   0.00000   0.00018   0.00035   0.00105
 4 41   19326.0    517.4   0.000000000   0.00000   0.00003   0.00001   0.00027
 4 42   19329.5    517.3   0.000000000   0.00000   0.00027   0.00046   0.00008
 4 43   19530.3    512.0   0.000000000   0.00000   0.00044   0.00070   0.00029
 4 44   19557.4    511.3   0.000000000   0.00000   0.00009   0.00040   0.00006
 4 45   19585.6    510.6   0.000000000   0.00000   0.00008   0.00014   0.00035
 4 46   19950.2    501.2   0.000000001   0.00000   0.00020   0.00041   0.00127
 4 47   19979.8    500.5   0.000000001   0.00000   0.00017   0.00129   0.00048
 4 48   19987.4    500.3   0.000000000   0.00000   0.00004   0.00018   0.00019
 4 49   20121.4    497.0   0.000000002   0.00000   0.00114   0.00119   0.00023
 4 50   20150.8    496.3   0.000000000   0.00000   0.00007   0.00035   0.00079
 4 51   20230.4    494.3   0.000000000   0.00000   0.00053   0.00062   0.00006
 4 52   20303.6    492.5   0.000000000   0.00000   0.00032   0.00023   0.00061
 4 53   20324.3    492.0   0.000000001   0.00000   0.00152   0.00002   0.00014
 4 54   20396.7    490.3   0.000000000   0.00000   0.00008   0.00014   0.00033
 4 55   20955.1    477.2   0.000000000   0.00000   0.00005   0.00008   0.00018
 4 56   20974.2    476.8   0.000000000   0.00000   0.00022   0.00015   0.00000
 4 57   20980.5    476.6   0.000000000   0.00000   0.00020   0.00015   0.00007
 4 58   21447.5    466.3   0.000000000   0.00000   0.00001   0.00006   0.00012
 4 59   21453.6    466.1   0.000000000   0.00000   0.00063   0.00010   0.00010
 4 60   21514.7    464.8   0.000000000   0.00000   0.00013   0.00027   0.00071
 4 61   21781.9    459.1   0.000000000   0.00000   0.00004   0.00003   0.00016
 4 62   21785.7    459.0   0.000000000   0.00000   0.00041   0.00033   0.00014
 4 63   21882.0    457.0   0.000000000   0.00000   0.00016   0.00009   0.00002
 4 64   22192.8    450.6   0.000000000   0.00000   0.00005   0.00005   0.00013
 4 65   22253.9    449.4   0.000000000   0.00000   0.00001   0.00012   0.00017
 4 66   22352.7    447.4   0.000000002   0.00000   0.00098   0.00143   0.00026
 4 67   22372.9    447.0   0.000000001   0.00000   0.00016   0.00102   0.00040
 4 68   22409.7    446.2   0.000000000   0.00000   0.00055   0.00019   0.00006
 4 69   22445.2    445.5   0.000000000   0.00000   0.00004   0.00014   0.00044
 4 70   22830.5    438.0   0.000000000   0.00000   0.00014   0.00063   0.00028
 4 71   22836.1    437.9   0.000000000   0.00000   0.00009   0.00021   0.00053
 4 72   22920.5    436.3   0.000000000   0.00000   0.00004   0.00014   0.00041
 4 73   23225.0    430.6   0.000000000   0.00000   0.00036   0.00049   0.00006
 4 74   23311.1    429.0   0.000000000   0.00000   0.00028   0.00008   0.00011
 4 75   23316.2    428.9   0.000000000   0.00000   0.00007   0.00006   0.00023
 4 76   23861.0    419.1   0.000000000   0.00000   0.00001   0.00003   0.00002
 4 77   23869.8    418.9   0.000000000   0.00000   0.00040   0.00024   0.00016
 4 78   23908.1    418.3   0.000000000   0.00000   0.00040   0.00001   0.00006
 4 79   23962.3    417.3   0.000000001   0.00000   0.00103   0.00047   0.00004
 4 80   23977.1    417.1   0.000000000   0.00000   0.00025   0.00003   0.00039
 4 81   24053.5    415.7   0.000000000   0.00000   0.00008   0.00007   0.00024
 4 82   24144.4    414.2   0.000000000   0.00000   0.00027   0.00049   0.00004
 4 83   24160.9    413.9   0.000000000   0.00000   0.00003   0.00009   0.00027
 4 84   24246.3    412.4   0.000000000   0.00000   0.00004   0.00008   0.00027
 4 85   24566.6    407.1   0.000000000   0.00000   0.00002   0.00001   0.00003
 4 86   24628.6    406.0   0.000000000   0.00000   0.00000   0.00004   0.00018
 4 87   24680.6    405.2   0.000000000   0.00000   0.00016   0.00061   0.00022
 4 88   24706.9    404.7   0.000000000   0.00000   0.00005   0.00015   0.00005
 4 89   24787.0    403.4   0.000000000   0.00000   0.00000   0.00005   0.00018
 4 90   24840.8    402.6   0.000000000   0.00000   0.00031   0.00014   0.00002
 4 91   25261.1    395.9   0.000000000   0.00000   0.00000   0.00004   0.00012
 4 92   25338.4    394.7   0.000000002   0.00000   0.00110   0.00077   0.00048
 4 93   25410.0    393.5   0.000000000   0.00000   0.00004   0.00001   0.00004
 4 94   25739.7    388.5   0.000000000   0.00000   0.00034   0.00023   0.00004
 4 95   25833.4    387.1   0.000000000   0.00000   0.00026   0.00012   0.00011
 4 96   25867.0    386.6   0.000000000   0.00000   0.00003   0.00006   0.00018
 4 97   26547.9    376.7   0.000000000   0.00000   0.00002   0.00000   0.00002
 4 98   26559.6    376.5   0.000000000   0.00000   0.00014   0.00007   0.00010
 4 99   26593.0    376.0   0.000000000   0.00000   0.00010   0.00014   0.00005
 4 100   26881.0    372.0   0.000000000   0.00000   0.00006   0.00008   0.00027
 4 101   26913.9    371.6   0.000000000   0.00000   0.00009   0.00014   0.00046
 4 102   26975.7    370.7   0.000000000   0.00000   0.00026   0.00012   0.00001
 4 103   27470.9    364.0   0.000000000   0.00000   0.00061   0.00042   0.00003
 4 104   27505.1    363.6   0.000000000   0.00000   0.00009   0.00018   0.00053
 4 105   27512.4    363.5   0.000000000   0.00000   0.00008   0.00027   0.00007
 4 106   28023.9    356.8   0.000000000   0.00000   0.00006   0.00013   0.00040
 4 107   28062.0    356.4   0.000000000   0.00000   0.00024   0.00006   0.00008
 4 108   28063.3    356.3   0.000000000   0.00000   0.00023   0.00008   0.00002
 4 109   28290.3    353.5   0.000000000   0.00000   0.00037   0.00007   0.00009
 4 110   28300.0    353.4   0.000000000   0.00000   0.00002   0.00007   0.00020
 4 111   28457.8    351.4   0.000000001   0.00000   0.00074   0.00025   0.00022
 4 112   28697.3    348.5   0.000000000   0.00000   0.00000   0.00004   0.00005
 4 113   28710.9    348.3   0.000000000   0.00000   0.00002   0.00001   0.00005
 4 114   28721.3    348.2   0.000000000   0.00000   0.00006   0.00034   0.00010
 4 115   28755.5    347.8   0.000000000   0.00000   0.00019   0.00015   0.00000
 4 116   28809.8    347.1   0.000000000   0.00000   0.00002   0.00001   0.00001
 4 117   28842.6    346.7   0.000000000   0.00000   0.00000   0.00003   0.00013
 4 118   31381.9    318.7   0.000000000   0.00000   0.00020   0.00032   0.00015
 4 119   31391.8    318.6   0.000000000   0.00000   0.00006   0.00019   0.00060
 4 120   31397.5    318.5   0.000000000   0.00000   0.00000   0.00000   0.00004
 4 121   31536.3    317.1   0.000000000   0.00000   0.00039   0.00009   0.00004
 4 122   31548.9    317.0   0.000000001   0.00000   0.00103   0.00026   0.00008
 4 123   31554.6    316.9   0.000000000   0.00000   0.00002   0.00006   0.00015
 4 124   32232.7    310.2   0.000000000   0.00000   0.00002   0.00010   0.00031
 4 125   32233.3    310.2   0.000000000   0.00000   0.00067   0.00000   0.00010
 4 126   32236.5    310.2   0.000000001   0.00000   0.00101   0.00023   0.00025
 4 127   33504.9    298.5   0.000000001   0.00000   0.00055   0.00042   0.00024
 4 128   33505.9    298.5   0.000000000   0.00000   0.00001   0.00000   0.00003
 4 129   33507.9    298.4   0.000000000   0.00000   0.00004   0.00040   0.00014
 4 130   42935.3    232.9   0.000000000   0.00000   0.00002   0.00004   0.00011
 4 131   42941.0    232.9   0.000000000   0.00000   0.00008   0.00035   0.00010
 4 132   42941.1    232.9   0.000000000   0.00000   0.00004   0.00008   0.00026
 4 133   45634.8    219.1   0.000000000   0.00000   0.00001   0.00001   0.00007
 4 134   45636.5    219.1   0.000000000   0.00000   0.00004   0.00013   0.00004
 4 135   45639.0    219.1   0.000000000   0.00000   0.00018   0.00005   0.00005
 4 136   46304.9    216.0   0.000000000   0.00000   0.00002   0.00003   0.00005
 4 137   46313.2    215.9   0.000000000   0.00000   0.00054   0.00007   0.00015
 4 138   46322.7    215.9   0.000000000   0.00000   0.00007   0.00016   0.00043
 4 139   47955.1    208.5   0.000000000   0.00000   0.00004   0.00001   0.00009
 4 140   47959.8    208.5   0.000000000   0.00000   0.00023   0.00015   0.00009
 4 141   47967.6    208.5   0.000000000   0.00000   0.00017   0.00010   0.00006
 4 142   48674.4    205.4   0.000000000   0.00000   0.00001   0.00002   0.00001
 4 143   48676.2    205.4   0.000000000   0.00000   0.00002   0.00026   0.00009
 4 144   48678.6    205.4   0.000000000   0.00000   0.00017   0.00041   0.00008
 4 145   49282.5    202.9   0.000000000   0.00000   0.00002   0.00003   0.00013
 4 146   49284.0    202.9   0.000000001   0.00000   0.00010   0.00017   0.00059
 4 147   49293.1    202.9   0.000000001   0.00000   0.00038   0.00066   0.00024
 4 148   49842.5    200.6   0.000000000   0.00000   0.00003   0.00001   0.00008
 4 149   49852.5    200.6   0.000000000   0.00000   0.00000   0.00001   0.00004
 4 150   49861.4    200.6   0.000000001   0.00000   0.00099   0.00009   0.00015
 4 151   50681.0    197.3   0.000000000   0.00000   0.00001   0.00003   0.00008
 4 152   50691.8    197.3   0.000000000   0.00000   0.00011   0.00001   0.00002
 4 153   50698.0    197.2   0.000000000   0.00000   0.00002   0.00006   0.00013
 4 154   52048.5    192.1   0.000000000   0.00000   0.00055   0.00002   0.00010
 4 155   52077.2    192.0   0.000000000   0.00000   0.00002   0.00003   0.00009
 4 156   52104.1    191.9   0.000000000   0.00000   0.00009   0.00052   0.00018
 4 157   53342.0    187.5   0.000000000   0.00000   0.00002   0.00002   0.00009
 4 158   53361.7    187.4   0.000000000   0.00000   0.00009   0.00002   0.00004
 4 159   53382.3    187.3   0.000000000   0.00000   0.00005   0.00008   0.00026

------------------------------------------------------------------------------
                           SOC CORRECTED DIPOLE MOMENTS
------------------------------------------------------------------------------
      TX        TY        TZ           |T|
   (Debye)   (Debye)   (Debye)      (Debye)
------------------------------------------------------------------------------
 -15.22285 -32.60485  13.71388     38.50820

--------------
CASSCF TIMINGS
--------------

Total time                       ...     1556.6 sec
Sum of individual times          ...     1558.8 sec (100.1%)

Calculation of AO operators
   F(Core) operator              ...       14.8 sec (  0.9%)
   G(Act) operator               ...       13.6 sec (  0.9%)
   J(AO) operators               ...        0.0 sec (  0.0%)
Calculation of MO transformed quantities
   J(MO) operators               ...        1.4 sec (  0.1%)
   (pq|rs) integrals             ...        0.0 sec (  0.0%)
   AO->MO one electron integrals ...        0.1 sec (  0.0%)
Configuration interaction steps
   CI-setup phase                ...        0.0 sec (  0.0%)
   CI-solution phase             ...        0.1 sec (  0.0%)
   Generation of densities       ...        0.0 sec (  0.0%)
Orbital improvement steps
   Orbital gradient              ...        0.0 sec (  0.0%)
PT2 
   NEVPT2 time                   ...     1516.9 sec ( 97.4%)
Properties                       ...        6.5 sec (  0.4%)
   SOC integral calculation      ...        5.5 sec (  0.4%)
   SSC RMEs (incl. integrals)    ...        0.0 sec (  0.0%)
   SOC RMEs                      ...        0.0 sec (  0.0%)

Maximum memory used throughout the entire CASSCF-calculation: 738.7 MB

-------------------------   --------------------
FINAL SINGLE POINT ENERGY     -2615.496280956600
-------------------------   --------------------


                            ***************************************
                            *     ORCA property calculations      *
                            ***************************************

                                    ---------------------
                                    Active property flags
                                    ---------------------
   (+) Dipole Moment


------------------------------------------------------------------------------
                       ORCA ELECTRIC PROPERTIES CALCULATION
------------------------------------------------------------------------------

Dipole Moment Calculation                       ... on
Quadrupole Moment Calculation                   ... off
Polarizability Calculation                      ... off
GBWName                                         ... nevpt2.gbw
Electron density                                ... nevpt2.scfp
The origin for moment calculation is the CENTER OF MASS  = (13.379573, 16.088518 16.041998)

-------------
DIPOLE MOMENT
-------------
                                X             Y             Z
Electronic contribution:      6.28588      12.75822      -5.43201
Nuclear contribution   :     -5.98958     -12.82669       5.39523
                        -----------------------------------------
Total Dipole Moment    :      0.29630      -0.06846      -0.03677
                        -----------------------------------------
Magnitude (a.u.)       :      0.30632
Magnitude (Debye)      :      0.77861



--------------------
Rotational spectrum 
--------------------
 
Rotational constants in cm-1:     0.002123     0.001496     0.001387 
Rotational constants in MHz :    63.635694    44.852367    41.587551 

 Dipole components along the rotational axes: 
x,y,z [a.u.] :     0.159957     0.261195     0.004885 
x,y,z [Debye]:     0.406577     0.663905     0.012417 

 

Timings for individual modules:

Sum of individual times         ...     1565.930 sec (=  26.099 min)
GTO integral calculation        ...        4.598 sec (=   0.077 min)   0.3 %
SCF iterations                  ...        1.877 sec (=   0.031 min)   0.1 %
CASSCF iterations               ...     1559.455 sec (=  25.991 min)  99.6 %
                             ****ORCA TERMINATED NORMALLY****
TOTAL RUN TIME: 0 days 0 hours 26 minutes 6 seconds 302 msec
