
                                 *****************
                                 * O   R   C   A *
                                 *****************

                                            #,                                       
                                            ###                                      
                                            ####                                     
                                            #####                                    
                                            ######                                   
                                           ########,                                 
                                     ,,################,,,,,                         
                               ,,#################################,,                 
                          ,,##########################################,,             
                       ,#########################################, ''#####,          
                    ,#############################################,,   '####,        
                  ,##################################################,,,,####,       
                ,###########''''           ''''###############################       
              ,#####''   ,,,,##########,,,,          '''####'''          '####       
            ,##' ,,,,###########################,,,                        '##       
           ' ,,###''''                  '''############,,,                           
         ,,##''                                '''############,,,,        ,,,,,,###''
      ,#''                                            '''#######################'''  
     '                                                          ''''####''''         
             ,#######,   #######,   ,#######,      ##                                
            ,#'     '#,  ##    ##  ,#'     '#,    #''#        ######   ,####,        
            ##       ##  ##   ,#'  ##            #'  '#       #        #'  '#        
            ##       ##  #######   ##           ,######,      #####,   #    #        
            '#,     ,#'  ##    ##  '#,     ,#' ,#      #,         ##   #,  ,#        
             '#######'   ##     ##  '#######'  #'      '#     #####' # '####'        



                  #######################################################
                  #                        -***-                        #
                  #          Department of theory and spectroscopy      #
                  #    Directorship and core code : Frank Neese         #
                  #        Max Planck Institute fuer Kohlenforschung    #
                  #                Kaiser Wilhelm Platz 1               #
                  #                 D-45470 Muelheim/Ruhr               #
                  #                      Germany                        #
                  #                                                     #
                  #                  All rights reserved                #
                  #                        -***-                        #
                  #######################################################


                         Program Version 5.0.3 -  RELEASE  -


 With contributions from (in alphabetic order):
   Daniel Aravena         : Magnetic Suceptibility
   Michael Atanasov       : Ab Initio Ligand Field Theory (pilot matlab implementation)
   Alexander A. Auer      : GIAO ZORA, VPT2 properties, NMR spectrum
   Ute Becker             : Parallelization
   Giovanni Bistoni       : ED, misc. LED, open-shell LED, HFLD
   Martin Brehm           : Molecular dynamics
   Dmytro Bykov           : SCF Hessian
   Vijay G. Chilkuri      : MRCI spin determinant printing, contributions to CSF-ICE
   Dipayan Datta          : RHF DLPNO-CCSD density
   Achintya Kumar Dutta   : EOM-CC, STEOM-CC
   Dmitry Ganyushin       : Spin-Orbit,Spin-Spin,Magnetic field MRCI
   Miquel Garcia          : C-PCM and meta-GGA Hessian, CC/C-PCM, Gaussian charge scheme
   Yang Guo               : DLPNO-NEVPT2, F12-NEVPT2, CIM, IAO-localization
   Andreas Hansen         : Spin unrestricted coupled pair/coupled cluster methods
   Benjamin Helmich-Paris : MC-RPA, TRAH-SCF, COSX integrals
   Lee Huntington         : MR-EOM, pCC
   Robert Izsak           : Overlap fitted RIJCOSX, COSX-SCS-MP3, EOM
   Marcus Kettner         : VPT2
   Christian Kollmar      : KDIIS, OOCD, Brueckner-CCSD(T), CCSD density, CASPT2, CASPT2-K
   Simone Kossmann        : Meta GGA functionals, TD-DFT gradient, OOMP2, MP2 Hessian
   Martin Krupicka        : Initial AUTO-CI
   Lucas Lang             : DCDCAS
   Marvin Lechner         : AUTO-CI (C++ implementation), FIC-MRCC
   Dagmar Lenk            : GEPOL surface, SMD
   Dimitrios Liakos       : Extrapolation schemes; Compound Job, initial MDCI parallelization
   Dimitrios Manganas     : Further ROCIS development; embedding schemes
   Dimitrios Pantazis     : SARC Basis sets
   Anastasios Papadopoulos: AUTO-CI, single reference methods and gradients
   Taras Petrenko         : DFT Hessian,TD-DFT gradient, ASA, ECA, R-Raman, ABS, FL, XAS/XES, NRVS
   Peter Pinski           : DLPNO-MP2, DLPNO-MP2 Gradient
   Christoph Reimann      : Effective Core Potentials
   Marius Retegan         : Local ZFS, SOC
   Christoph Riplinger    : Optimizer, TS searches, QM/MM, DLPNO-CCSD(T), (RO)-DLPNO pert. Triples
   Tobias Risthaus        : Range-separated hybrids, TD-DFT gradient, RPA, STAB
   Michael Roemelt        : Original ROCIS implementation
   Masaaki Saitow         : Open-shell DLPNO-CCSD energy and density
   Barbara Sandhoefer     : DKH picture change effects
   Avijit Sen             : IP-ROCIS
   Kantharuban Sivalingam : CASSCF convergence, NEVPT2, FIC-MRCI
   Bernardo de Souza      : ESD, SOC TD-DFT
   Georgi Stoychev        : AutoAux, RI-MP2 NMR, DLPNO-MP2 response
   Willem Van den Heuvel  : Paramagnetic NMR
   Boris Wezisla          : Elementary symmetry handling
   Frank Wennmohs         : Technical directorship


 We gratefully acknowledge several colleagues who have allowed us to
 interface, adapt or use parts of their codes:
   Stefan Grimme, W. Hujo, H. Kruse, P. Pracht,  : VdW corrections, initial TS optimization,
                  C. Bannwarth, S. Ehlert          DFT functionals, gCP, sTDA/sTD-DF
   Ed Valeev, F. Pavosevic, A. Kumar             : LibInt (2-el integral package), F12 methods
   Garnet Chan, S. Sharma, J. Yang, R. Olivares  : DMRG
   Ulf Ekstrom                                   : XCFun DFT Library
   Mihaly Kallay                                 : mrcc  (arbitrary order and MRCC methods)
   Jiri Pittner, Ondrej Demel                    : Mk-CCSD
   Frank Weinhold                                : gennbo (NPA and NBO analysis)
   Christopher J. Cramer and Donald G. Truhlar   : smd solvation model
   Lars Goerigk                                  : TD-DFT with DH, B97 family of functionals
   V. Asgeirsson, H. Jonsson                     : NEB implementation
   FAccTs GmbH                                   : IRC, NEB, NEB-TS, DLPNO-Multilevel, CI-OPT
                                                   MM, QMMM, 2- and 3-layer-ONIOM, Crystal-QMMM,
                                                   LR-CPCM, SF, NACMEs, symmetry and pop. for TD-DFT,
                                                   nearIR, NL-DFT gradient (VV10), updates on ESD,
                                                   ML-optimized integration grids
   S Lehtola, MJT Oliveira, MAL Marques          : LibXC Library
   Liviu Ungur et al                             : ANISO software


 Your calculation uses the libint2 library for the computation of 2-el integrals
 For citations please refer to: http://libint.valeyev.net

 Your ORCA version has been built with support for libXC version: 5.1.0
 For citations please refer to: https://tddft.org/programs/libxc/

 This ORCA versions uses:
   CBLAS   interface :  Fast vector & matrix operations
   LAPACKE interface :  Fast linear algebra routines
   SCALAPACK package :  Parallel linear algebra routines
   Shared memory     :  Shared parallel matrices
   BLAS/LAPACK       :  OpenBLAS 0.3.15  USE64BITINT DYNAMIC_ARCH NO_AFFINITY Haswell SINGLE_THREADED
        Core in use  :  Haswell
   Copyright (c) 2011-2014, The OpenBLAS Project




***************************************
The coordinates will be read from file: pbe.xyz
***************************************


================================================================================

cite the ECPs for Au [Def2-ECP] as follows:
Ce-Yb(ecp-28): M. Dolg, H. Stoll, H.Preuss, J. Chem. Phys., 1989, 90, 1730-1734.
Y-Cd(ecp-28), Hf-Hg(ecp-46): D. Andrae,U. Haeussermann, M. Dolg, H. Stoll, H. Preuss, Theor. Chim. Acta, 1990, 77, 123-141.
In-Sb(ecp-28), Tl-Bi(ecp-46): B. Metz, H. Stoll, M. Dolg, J. Chem. Phys., 2000, 113, 2563-2569.
Te-Xe(ecp-28), Po-Rn(ecp-46): K. A. Peterson, D. Figgen, E. Goll, H. Stoll, M. Dolg, J. Chem. Phys., 2003, 119, 11113-11123.
Rb(ecp-28), Cs(ecp-46): T. Leininger, A. Nicklass, W. Kuechle, H. Stoll, M. Dolg, A. Bergner, Chem. Phys. Lett., 1996, 255, 274-280.
Sr(ecp-28), Ba(ecp-46): M. Kaupp, P. V. Schleyer, H. Stoll and H. Preuss, J. Chem. Phys., 1991, 94, 1360-1366.
La(ecp-46): M. Dolg, H. Stoll, A. Savin, H. Preuss, Theor. Chim. Acta, 1989, 75, 173-194.
Lu(ecp-28): X. Cao, M. Dolg, J. Chem. Phys., 2001, 115, 7348-7355.

ECP parameters for Au [Def2-ECP] have been obtained from:
TURBOMOLE (7.0.2)

----- Orbital basis set information -----
Your calculation utilizes the basis: def2-TZVP
   F. Weigend and R. Ahlrichs, Phys. Chem. Chem. Phys. 7, 3297 (2005).

----- AuxJ basis set information -----
Your calculation utilizes the auxiliary basis: def2/J
   F. Weigend, Phys. Chem. Chem. Phys. 8, 1057 (2006).

----- AuxC basis set information -----
Your calculation utilizes the auxiliary basis: def2-TZVP/C
  H-La, Hf-Rn : A. Hellweg, C. Hattig, S. Hofener and W. Klopper, Theor. Chem. Acc. 117, 587 (2007).
        Ce-Lu : J. Chmela and M. E. Harding, Mol. Phys. (2018).

================================================================================
                                        WARNINGS
                       Please study these warnings very carefully!
================================================================================


IMPORTANT NOTE: CASSCF must signal convergence for a subsequent CASPT2/NEVPT2! 
                Set maxiter=1 to run CASPT2/NEVPT2 with arbitrary orbitals.


INFO   : the flag for use of the SHARK integral package has been found!

================================================================================
                                       INPUT FILE
================================================================================
NAME = nevpt2.inp
|  1> !SC-NEVPT2 def2-TZVP def2-TZVP/C
|  2> !MOREAD RIJCOSX def2/J
|  3> %maxcore 4000
|  4> %moinp "casscf.gbw"
|  5> %pal nprocs 8 end 
|  6> 
|  7> %casscf
|  8>  mult 5,3
|  9>  bweight 1,1
| 10>  nroots 5,45
| 11>  nel 6
| 12>  norb 5
| 13>  ptsettings
| 14>   d4tpre 1e-14 # default = 1e-10
| 15>   d3tpre 1e-14
| 16>  end
| 17>  rel           
| 18>    dosoc true   
| 19>    gtensor true 
| 20>  end           
| 21> end
| 22> 
| 23> 
| 24> *xyzfile 0 5 pbe.xyz
| 25> 
| 26> 
| 27>                          ****END OF INPUT****
================================================================================

                       ****************************
                       * Single Point Calculation *
                       ****************************

---------------------------------
CARTESIAN COORDINATES (ANGSTROEM)
---------------------------------
  Au     4.706264    6.277886    8.543179
  Au     7.253466    6.820951    9.668588
  Au     6.948864    4.783985    7.656462
  Au     9.266552    6.292585    7.439617
  Au     7.736130    5.863181    5.120599
  Au     4.964496    5.826192    5.748648
  Au     4.208957    8.472524    6.458023
  Au     5.304684    8.953190    8.957899
  Au     9.159297   10.865312    6.838922
  Au    10.780331    8.558310    7.237158
  Au     8.774484    8.463478    5.382875
  Au     6.180687    8.170277    4.444116
  Au     6.502343   10.146302    6.511577
  Au     7.962078    9.509738    8.913016
  Au     9.865939    7.732555    9.805527
  Au    10.562413   10.461343    9.302699
  Cr     6.736383    7.488870    7.077138

----------------------------
CARTESIAN COORDINATES (A.U.)
----------------------------
  NO LB      ZA    FRAG     MASS         X           Y           Z
   0 Au   19.0000*   0   196.966    8.893550   11.863486   16.144268
   1 Au   19.0000*   0   196.966   13.707064   12.889729   18.270983
   2 Au   19.0000*   0   196.966   13.131449    9.040421   14.468616
   3 Au   19.0000*   0   196.966   17.511245   11.891263   14.058839
   4 Au   19.0000*   0   196.966   14.619168   11.079806    9.676529
   5 Au   19.0000*   0   196.966    9.381538   11.009908   10.863371
   6 Au   19.0000*   0   196.966    7.953777   16.010751   12.203894
   7 Au   19.0000*   0   196.966   10.024399   16.919077   16.927975
   8 Au   19.0000*   0   196.966   17.308564   20.532463   12.923689
   9 Au   19.0000*   0   196.966   20.371873   16.172861   13.676247
  10 Au   19.0000*   0   196.966   16.581372   15.993656   10.172160
  11 Au   19.0000*   0   196.966   11.679805   15.439585    8.398161
  12 Au   19.0000*   0   196.966   12.287648   19.173732   12.305098
  13 Au   19.0000*   0   196.966   15.046147   17.970800   16.843159
  14 Au   19.0000*   0   196.966   18.643924   14.612411   18.529761
  15 Au   19.0000*   0   196.966   19.960069   19.769073   17.579553
  16 Cr   24.0000    0    52.000   12.729918   14.151914   13.373852
* core charge reduced due to ECP

--------------------------------
INTERNAL COORDINATES (ANGSTROEM)
--------------------------------
 Au     0   0   0     0.000000000000     0.00000000     0.00000000
 Au     1   0   0     2.837199779775     0.00000000     0.00000000
 Au     1   2   0     2.836769625186    60.99048832     0.00000000
 Au     3   1   2     2.773909780626   113.48803818   321.75596139
 Au     4   3   1     2.811480778041    61.74457299   263.13196699
 Au     5   4   3     2.842142308465   110.52155956    35.30855508
 Au     6   5   4     2.842028040862   107.59507820    69.72488543
 Au     7   6   5     2.771468126462   106.35145114   287.40442400
 Au     4   3   1     4.613259678372   121.99386304   336.04580758
 Au     4   3   1     2.732402509343   156.87520220   341.75144637
 Au    10   4   3     2.733272720893    67.35193851   308.34670632
 Au    11  10   4     2.773990551109   156.84493972    51.37227535
 Au     9   4   3     2.771918658843    77.32329014   350.65323484
 Au     8   7   6     2.715419896141   114.05093933    77.59869195
 Au    14   8   7     2.753115362222   122.62171688   252.27521381
 Au    14   8   7     2.796274099000   167.82374795   143.08660006
 Cr     2   1   3     2.725638536260    59.96369005    69.84139495

---------------------------
INTERNAL COORDINATES (A.U.)
---------------------------
 Au     0   0   0     0.000000000000     0.00000000     0.00000000
 Au     1   0   0     5.361530570997     0.00000000     0.00000000
 Au     1   2   0     5.360717696628    60.99048832     0.00000000
 Au     3   1   2     5.241929805589   113.48803818   321.75596139
 Au     4   3   1     5.312928701282    61.74457299   263.13196699
 Au     5   4   3     5.370870596629   110.52155956    35.30855508
 Au     6   5   4     5.370654662154   107.59507820    69.72488543
 Au     7   6   5     5.237315747906   106.35145114   287.40442400
 Au     4   3   1     8.717797376785   121.99386304   336.04580758
 Au     4   3   1     5.163492430298   156.87520220   341.75144637
 Au    10   4   3     5.165136891806    67.35193851   308.34670632
 Au    11  10   4     5.242082439681   156.84493972    51.37227535
 Au     9   4   3     5.238167130720    77.32329014   350.65323484
 Au     8   7   6     5.131399942307   114.05093933    77.59869195
 Au    14   8   7     5.202634049691   122.62171688   252.27521381
 Au    14   8   7     5.284192242488   167.82374795   143.08660006
 Cr     2   1   3     5.150710373593    59.96369005    69.84139495

---------------------
BASIS SET INFORMATION
---------------------
There are 2 groups of distinct atoms

 Group   1 Type Au  : 8s7p6d1f contracted to 6s4p3d1f pattern {311111/4111/411/1}
 Group   2 Type Cr  : 17s11p7d1f contracted to 6s4p4d1f pattern {842111/6311/4111/1}

Atom   0Au   basis set group =>   1
Atom   1Au   basis set group =>   1
Atom   2Au   basis set group =>   1
Atom   3Au   basis set group =>   1
Atom   4Au   basis set group =>   1
Atom   5Au   basis set group =>   1
Atom   6Au   basis set group =>   1
Atom   7Au   basis set group =>   1
Atom   8Au   basis set group =>   1
Atom   9Au   basis set group =>   1
Atom  10Au   basis set group =>   1
Atom  11Au   basis set group =>   1
Atom  12Au   basis set group =>   1
Atom  13Au   basis set group =>   1
Atom  14Au   basis set group =>   1
Atom  15Au   basis set group =>   1
Atom  16Cr   basis set group =>   2
---------------------------------
AUXILIARY/J BASIS SET INFORMATION
---------------------------------
There are 2 groups of distinct atoms

 Group   1 Type Au  : 11s5p5d3f3g contracted to 8s5p5d2f3g pattern {41111111/11111/11111/21/111}
 Group   2 Type Cr  : 19s5p5d3f3g contracted to 8s5p5d2f3g pattern {121111111/11111/11111/21/111}

Atom   0Au   basis set group =>   1
Atom   1Au   basis set group =>   1
Atom   2Au   basis set group =>   1
Atom   3Au   basis set group =>   1
Atom   4Au   basis set group =>   1
Atom   5Au   basis set group =>   1
Atom   6Au   basis set group =>   1
Atom   7Au   basis set group =>   1
Atom   8Au   basis set group =>   1
Atom   9Au   basis set group =>   1
Atom  10Au   basis set group =>   1
Atom  11Au   basis set group =>   1
Atom  12Au   basis set group =>   1
Atom  13Au   basis set group =>   1
Atom  14Au   basis set group =>   1
Atom  15Au   basis set group =>   1
Atom  16Cr   basis set group =>   2
---------------------------------
AUXILIARY/C BASIS SET INFORMATION
---------------------------------
There are 2 groups of distinct atoms

 Group   1 Type Au  : 8s8p7d5f3g2h contracted to 8s8p7d5f3g2h pattern {11111111/11111111/1111111/11111/111/11}
 Group   2 Type Cr  : 11s9p8d6f5g2h contracted to 9s8p8d6f5g2h pattern {311111111/21111111/11111111/111111/11111/11}

Atom   0Au   basis set group =>   1
Atom   1Au   basis set group =>   1
Atom   2Au   basis set group =>   1
Atom   3Au   basis set group =>   1
Atom   4Au   basis set group =>   1
Atom   5Au   basis set group =>   1
Atom   6Au   basis set group =>   1
Atom   7Au   basis set group =>   1
Atom   8Au   basis set group =>   1
Atom   9Au   basis set group =>   1
Atom  10Au   basis set group =>   1
Atom  11Au   basis set group =>   1
Atom  12Au   basis set group =>   1
Atom  13Au   basis set group =>   1
Atom  14Au   basis set group =>   1
Atom  15Au   basis set group =>   1
Atom  16Cr   basis set group =>   2
-------------------------
ECP PARAMETER INFORMATION
-------------------------

 Group 1, Type Au ECP Def2-ECP (replacing 60 core electrons, lmax=3)

Atom   0Au   ECP group =>   1
Atom   1Au   ECP group =>   1
Atom   2Au   ECP group =>   1
Atom   3Au   ECP group =>   1
Atom   4Au   ECP group =>   1
Atom   5Au   ECP group =>   1
Atom   6Au   ECP group =>   1
Atom   7Au   ECP group =>   1
Atom   8Au   ECP group =>   1
Atom   9Au   ECP group =>   1
Atom  10Au   ECP group =>   1
Atom  11Au   ECP group =>   1
Atom  12Au   ECP group =>   1
Atom  13Au   ECP group =>   1
Atom  14Au   ECP group =>   1
Atom  15Au   ECP group =>   1



           ************************************************************
           *        Program running with 8 parallel MPI-processes     *
           *              working on a common directory               *
           ************************************************************
------------------------------------------------------------------------------
                           ORCA GTO INTEGRAL CALCULATION
                           -- RI-GTO INTEGRALS CHOSEN --
------------------------------------------------------------------------------
------------------------------------------------------------------------------
                   ___                                                        
                  /   \      - P O W E R E D   B Y -                         
                 /     \                                                     
                 |  |  |   _    _      __       _____    __    __             
                 |  |  |  | |  | |    /  \     |  _  \  |  |  /  |          
                  \  \/   | |  | |   /    \    | | | |  |  | /  /          
                 / \  \   | |__| |  /  /\  \   | |_| |  |  |/  /          
                |  |  |   |  __  | /  /__\  \  |    /   |      \           
                |  |  |   | |  | | |   __   |  |    \   |  |\   \          
                \     /   | |  | | |  |  |  |  | |\  \  |  | \   \       
                 \___/    |_|  |_| |__|  |__|  |_| \__\ |__|  \__/        
                                                                              
                      - O R C A' S   B I G   F R I E N D -                    
                                      &                                       
                       - I N T E G R A L  F E E D E R -                       
                                                                              
 v1 FN, 2020, v2 2021                                                         
------------------------------------------------------------------------------


Reading SHARK input file nevpt2.SHARKINP.tmp ... ok
----------------------
SHARK INTEGRAL PACKAGE
----------------------

Number of atoms                             ...     17
Number of basis functions                   ...    685
Number of shells                            ...    239
Maximum angular momentum                    ...      3
Integral batch strategy                     ... SHARK/LIBINT Hybrid
RI-J (if used) integral strategy            ... SPLIT-RIJ (Revised 2003 algorithm where possible)
Printlevel                                  ...      1
Contraction scheme used                     ... SEGMENTED contraction
Coulomb Range Separation                    ... NOT USED
Exchange Range Separation                   ... NOT USED
Finite Nucleus Model                        ... NOT USED
Auxiliary Coulomb fitting basis             ... AVAILABLE
   # of basis functions in Aux-J            ...   1513
   # of shells in Aux-J                     ...    391
   Maximum angular momentum in Aux-J        ...      4
Auxiliary J/K fitting basis                 ... NOT available
Auxiliary Correlation fitting basis         ... AVAILABLE
   # of basis functions in Aux-C            ...   2598
   # of shells in Aux-C                     ...    566
   Maximum angular momentum in Aux-C        ...      5
Auxiliary 'external' fitting basis          ... NOT available
Integral threshold                          ...     1.000000e-10
Primitive cut-off                           ...     1.000000e-11
Primitive pair pre-selection threshold      ...     1.000000e-11

Calculating pre-screening integrals         ... done (  0.1 sec) Dimension = 239
Organizing shell pair data                  ... done (  0.4 sec)
Shell pair information
Total number of shell pairs                 ...     28680
Shell pairs after pre-screening             ...     22375
Total number of primitive shell pairs       ...     75765
Primitive shell pairs kept                  ...     42671
          la=0 lb=0:   3534 shell pairs
          la=1 lb=0:   5111 shell pairs
          la=1 lb=1:   1912 shell pairs
          la=2 lb=0:   4449 shell pairs
          la=2 lb=1:   3122 shell pairs
          la=2 lb=2:   1284 shell pairs
          la=3 lb=0:   1177 shell pairs
          la=3 lb=1:    890 shell pairs
          la=3 lb=2:    776 shell pairs
          la=3 lb=3:    120 shell pairs

Calculating one electron integrals          ... done (  0.0 sec)
Calculating ECP integrals                   ... done ( 11.9 sec)
Calculating RI/J V-Matrix + Cholesky decomp.... done (  0.1 sec)
Calculating RI/C V-Matrix + Cholesky decomp.... done (  0.2 sec)
Calculating Nuclear repulsion               ... done (  0.0 sec) ENN=   6986.855970415987 Eh

SHARK setup successfully completed in  13.0 seconds

Maximum memory used throughout the entire GTOINT-calculation: 54.8 MB


           ************************************************************
           *        Program running with 8 parallel MPI-processes     *
           *              working on a common directory               *
           ************************************************************
-------------------------------------------------------------------------------
                                 ORCA SCF
-------------------------------------------------------------------------------

------------
SCF SETTINGS
------------
Hamiltonian:
 Ab initio Hamiltonian  Method          .... Hartree-Fock(GTOs)
 RI-approximation to the Coulomb term is turned on
   Number of AuxJ basis functions       .... 1513
   RIJ-COSX (HFX calculated with COS-X)).... on


General Settings:
 Integral files         IntName         .... nevpt2
 Hartree-Fock type      HFTyp           .... CASSCF
 Total Charge           Charge          ....    0
 Multiplicity           Mult            ....    5
 Number of Electrons    NEL             ....  328
 Basis Dimension        Dim             ....  685
 Nuclear Repulsion      ENuc            ....   6986.8559704160 Eh


Diagonalization of the overlap matrix:
Smallest eigenvalue                        ... 5.696e-05
Time for diagonalization                   ...    0.095 sec
Threshold for overlap eigenvalues          ... 1.000e-08
Number of eigenvalues below threshold      ... 0
Time for construction of square roots      ...    0.046 sec
Total time needed                          ...    0.143 sec

---------------------
INITIAL GUESS: MOREAD
---------------------
Guess MOs are being read from file: casscf.gbw
Input Geometry matches current geometry (good)
Input basis set matches current basis set (good)
MOs were renormalized
Gram-Schmidt orthogonalization of all MOs with pivot on actives
                      ------------------
                      INITIAL GUESS DONE (   3.1 sec)
                      ------------------
--------------------
COSX GRID GENERATION
--------------------

GRIDX 1
-------
General Integration Accuracy     IntAcc      ... 3.816
Radial Grid Type                 RadialGrid  ... OptM3 with GC (2021)
Angular Grid (max. ang.)         AngularGrid ... 1 (Lebedev-50)
Angular grid pruning method      GridPruning ... 4 (adaptive)
Weight generation scheme         WeightScheme... Becke
Basis function cutoff            BFCut       ... 1.0000e-10
Integration weight cutoff        WCut        ... 1.0000e-14
Angular grids for H and He will be reduced by one unit
Partially contracted basis set               ... on
Rotationally invariant grid construction     ... off

Total number of grid points                  ...    19513
Total number of batches                      ...      312
Average number of points per batch           ...       62
Average number of grid points per atom       ...     1148
UseSFitting                                  ... on

GRIDX 2
-------
General Integration Accuracy     IntAcc      ... 4.020
Radial Grid Type                 RadialGrid  ... OptM3 with GC (2021)
Angular Grid (max. ang.)         AngularGrid ... 2 (Lebedev-110)
Angular grid pruning method      GridPruning ... 4 (adaptive)
Weight generation scheme         WeightScheme... Becke
Basis function cutoff            BFCut       ... 1.0000e-10
Integration weight cutoff        WCut        ... 1.0000e-14
Angular grids for H and He will be reduced by one unit
Partially contracted basis set               ... on
Rotationally invariant grid construction     ... off

Total number of grid points                  ...    59177
Total number of batches                      ...      932
Average number of points per batch           ...       63
Average number of grid points per atom       ...     3481
UseSFitting                                  ... on

GRIDX 3
-------
General Integration Accuracy     IntAcc      ... 4.338
Radial Grid Type                 RadialGrid  ... OptM3 with GC (2021)
Angular Grid (max. ang.)         AngularGrid ... 3 (Lebedev-194)
Angular grid pruning method      GridPruning ... 4 (adaptive)
Weight generation scheme         WeightScheme... Becke
Basis function cutoff            BFCut       ... 1.0000e-10
Integration weight cutoff        WCut        ... 1.0000e-14
Angular grids for H and He will be reduced by one unit
Partially contracted basis set               ... on
Rotationally invariant grid construction     ... off

Total number of grid points                  ...   107184
Total number of batches                      ...     1685
Average number of points per batch           ...       63
Average number of grid points per atom       ...     6305
UseSFitting                                  ... on

Time for X-Grid setup             =    1.630 sec



 ... the calculation is a CASSCF calculation -I'm leaving here GOOD LUCK!!!



           ************************************************************
           *        Program running with 8 parallel MPI-processes     *
           *              working on a common directory               *
           ************************************************************
-------------------------------------------------------------------------------
                              ORCA-CASSCF
-------------------------------------------------------------------------------

Setting up the integral package       ... done
Setting up the integral package (RI)  ... done
Building the CAS space                ... done (5 configurations for Mult=5)
Building the CAS space                ... done (35 configurations for Mult=3)

 CASSCF (estimated) memory needed     ... 192.6 MB
 NEVPT2 (estimated) memory needed     ... 757.2 MB


SYSTEM-SPECIFIC SETTINGS:
Number of active electrons          ...    6
Number of active orbitals           ...    5
Total number of electrons           ...  328
Total number of orbitals            ...  685
Total number aux. functions         ... 2598

Determined orbital ranges:
   Internal       0 -  160 ( 161 orbitals)
   Active       161 -  165 (   5 orbitals)
   External     166 -  684 ( 519 orbitals)
Number of rotation parameters      ...  86959

CI-STEP:
CI strategy                         ... General CI
Number of multiplicity blocks       ...    2
BLOCK  1 WEIGHT=   0.5000
  Multiplicity                      ...    5
  #(Configurations)                 ...    5
  #(CSFs)                           ...    5
  #(Roots)                          ...    5
    ROOT=0 WEIGHT=    0.100000
    ROOT=1 WEIGHT=    0.100000
    ROOT=2 WEIGHT=    0.100000
    ROOT=3 WEIGHT=    0.100000
    ROOT=4 WEIGHT=    0.100000

BLOCK  2 WEIGHT=   0.5000
  Multiplicity                      ...    3
  #(Configurations)                 ...   35
  #(CSFs)                           ...   45
  #(Roots)                          ...   45
    ROOT=0 WEIGHT=    0.011111
    ROOT=1 WEIGHT=    0.011111
    ROOT=2 WEIGHT=    0.011111
    ROOT=3 WEIGHT=    0.011111
    ROOT=4 WEIGHT=    0.011111
    ROOT=5 WEIGHT=    0.011111
    ROOT=6 WEIGHT=    0.011111
    ROOT=7 WEIGHT=    0.011111
    ROOT=8 WEIGHT=    0.011111
    ROOT=9 WEIGHT=    0.011111
    ROOT=10 WEIGHT=    0.011111
    ROOT=11 WEIGHT=    0.011111
    ROOT=12 WEIGHT=    0.011111
    ROOT=13 WEIGHT=    0.011111
    ROOT=14 WEIGHT=    0.011111
    ROOT=15 WEIGHT=    0.011111
    ROOT=16 WEIGHT=    0.011111
    ROOT=17 WEIGHT=    0.011111
    ROOT=18 WEIGHT=    0.011111
    ROOT=19 WEIGHT=    0.011111
    ROOT=20 WEIGHT=    0.011111
    ROOT=21 WEIGHT=    0.011111
    ROOT=22 WEIGHT=    0.011111
    ROOT=23 WEIGHT=    0.011111
    ROOT=24 WEIGHT=    0.011111
    ROOT=25 WEIGHT=    0.011111
    ROOT=26 WEIGHT=    0.011111
    ROOT=27 WEIGHT=    0.011111
    ROOT=28 WEIGHT=    0.011111
    ROOT=29 WEIGHT=    0.011111
    ROOT=30 WEIGHT=    0.011111
    ROOT=31 WEIGHT=    0.011111
    ROOT=32 WEIGHT=    0.011111
    ROOT=33 WEIGHT=    0.011111
    ROOT=34 WEIGHT=    0.011111
    ROOT=35 WEIGHT=    0.011111
    ROOT=36 WEIGHT=    0.011111
    ROOT=37 WEIGHT=    0.011111
    ROOT=38 WEIGHT=    0.011111
    ROOT=39 WEIGHT=    0.011111
    ROOT=40 WEIGHT=    0.011111
    ROOT=41 WEIGHT=    0.011111
    ROOT=42 WEIGHT=    0.011111
    ROOT=43 WEIGHT=    0.011111
    ROOT=44 WEIGHT=    0.011111

  PrintLevel                        ...    1
  N(GuessMat)                       ...       512
  MaxDim(CI)                        ...        10
  MaxIter(CI)                       ...        64
  Energy Tolerance CI               ...  1.00e-08
  Residual Tolerance CI             ...  1.00e-08
  Shift(CI)                         ...  1.00e-04

INTEGRAL-TRANSFORMATION-STEP:
  Algorithm                         ... RI-MO

ORBITAL-IMPROVEMENT-STEP:
  Algorithm                         ... SuperCI(PT)
  Default Parametrization           ... CAYLEY
  Act-Act rotations                 ... depends on algorithm used

  Note: SuperCI(PT) will ignore FreezeIE, FreezeAct and FreezeGrad. In general Default settings are encouraged.
        In conjunction with ShiftUp, ShiftDn or GradScaling the performance of SuperCI(PT) is less optimal.  

  MaxRot                            ... 2.00e-01 
  Max. no of vectors (DIIS)         ... 15
  DThresh (cut-off) metric          ... 1.00e-06
  Switch step at gradient           ...  3.00e-02 
  Switch step at iteration          ...        50   
  Switch step to                    ... SuperCI(PT)    

SCF-SETTINGS:
  Incremental                       ... off
  RIJCOSX approximation             ... on
  UseFinalGrid                      ... on
  RI-JK approximation               ... off
  AO integral handling              ... DIRECT
  Integral Neglect Thresh           ...  1.00e-10
  Primitive cutoff TCut             ...  1.00e-11
  Energy convergence tolerance      ...  1.00e-07
  Orbital gradient convergence      ...  1.00e-03
  Max. number of iterations         ...        75  

PT2-SETTINGS:
  A PT2 calculation will be performed on top of the CASSCF wave function (PT2 = SC-NEVPT2)   
 CI step strategy                   ... General CI
  D4C handling                      ... on the fly 
  CI truncation for D4C at          ...  1.00e-14
  CI truncation for D3  at          ...  1.00e-14
  Orbitals                          ... canonical for each state 
  Last  frozen  orbital             ... 4
  First deleted orbital             ... 685
  RI Step                           ... store IJV(array) (MC_ONDISK during integral transformation) 

PROPERTIES-SETTINGS:
  Spin orbit coupling               ... true
  GTensor                           ... true
  QDPT diagonal energies            ... NEVPT2 energies 

FINAL ORBITALS:
  Active   Orbitals                 ... natural 
  Internal Orbitals                 ... canonical 
  External Orbitals                 ... canonical 

------------------
CAS-SCF ITERATIONS
------------------


MACRO-ITERATION   1: 
   --- Inactive Energy E0 = -3191.78735287 Eh
CI-ITERATION   0: 
 -3200.236269127   0.000000000000 (    0.00)
 -3200.204576611   0.000000000000
 -3200.180564393   0.000000000000
 -3200.178551473   0.000000000000
 -3200.151177266   0.000000000000
   CI-PROBLEM SOLVED
   DENSITIES MADE
CI-ITERATION   0: 
 -3200.220433086   0.000000000000 (    0.00)
 -3200.203175955   0.000000000000
 -3200.200298098   0.000000000000
 -3200.195571236   0.000000000000
 -3200.180520183   0.000000000000
 -3200.180400762   0.000000000000
 -3200.176451096   0.000000000000
 -3200.166892705   0.000000000000
 -3200.163610552   0.000000000000
 -3200.162222735   0.000000000000
 -3200.160989808   0.000000000000
 -3200.154361616   0.000000000000
 -3200.146823658   0.000000000000
 -3200.133854468   0.000000000000
 -3200.133185966   0.000000000000
 -3200.131741246   0.000000000000
 -3200.124573352   0.000000000000
 -3200.124094407   0.000000000000
 -3200.118857068   0.000000000000
 -3200.115932606   0.000000000000
 -3200.111825426   0.000000000000
 -3200.109086250   0.000000000000
 -3200.105819881   0.000000000000
 -3200.091499660   0.000000000000
 -3200.085183581   0.000000000000
 -3200.082833111   0.000000000000
 -3200.082599574   0.000000000000
 -3200.079856918   0.000000000000
 -3200.072351648   0.000000000000
 -3200.063506789   0.000000000000
 -3200.052987735   0.000000000000
 -3200.042236882   0.000000000000
 -3200.039562196   0.000000000000
 -3200.026308719   0.000000000000
 -3200.025091937   0.000000000000
 -3200.007213278   0.000000000000
 -3200.001088155   0.000000000000
 -3199.999269837   0.000000000000
 -3199.970246701   0.000000000000
 -3199.814101726   0.000000000000
 -3199.796273490   0.000000000000
 -3199.789374915   0.000000000000
 -3199.716689837   0.000000000000
 -3199.710602992   0.000000000000
 -3199.697980533   0.000000000000
   CI-PROBLEM SOLVED
   DENSITIES MADE

                 <<<<<<<<<<<<<<<<<<INITIAL CI STATE CHECK>>>>>>>>>>>>>>>>>>

BLOCK  1 MULT= 5 NROOTS= 5 
ROOT   0:  E=   -3200.2362691270 Eh
      0.50924 [     2]: 11211
      0.31695 [     0]: 11112
      0.15858 [     4]: 21111
      0.01390 [     3]: 12111
ROOT   1:  E=   -3200.2045766111 Eh  0.862 eV   6955.7 cm**-1
      0.70991 [     4]: 21111
      0.14429 [     2]: 11211
      0.13660 [     1]: 11121
      0.00890 [     0]: 11112
ROOT   2:  E=   -3200.1805643929 Eh  1.516 eV  12225.8 cm**-1
      0.76551 [     1]: 11121
      0.12582 [     4]: 21111
      0.10837 [     0]: 11112
ROOT   3:  E=   -3200.1785514731 Eh  1.571 eV  12667.6 cm**-1
      0.55551 [     0]: 11112
      0.34370 [     2]: 11211
      0.09641 [     1]: 11121
ROOT   4:  E=   -3200.1511772657 Eh  2.315 eV  18675.5 cm**-1
      0.98350 [     3]: 12111
      0.01027 [     0]: 11112
      0.00360 [     4]: 21111

BLOCK  2 MULT= 3 NROOTS=45 
ROOT   0:  E=   -3200.2204330862 Eh
      0.33146 [    24]: 20211
      0.12752 [    22]: 20112
      0.07134 [    31]: 21210
      0.06327 [    28]: 21111
      0.04861 [    32]: 22011
      0.04577 [    13]: 11211
      0.04462 [    25]: 21012
      0.03943 [     8]: 10221
      0.03128 [    18]: 12111
      0.02602 [     5]: 02211
      0.02324 [    10]: 11112
      0.02033 [     6]: 10122
      0.01791 [    34]: 22110
      0.01464 [    23]: 20121
      0.01164 [     2]: 01221
      0.01100 [    16]: 12021
      0.00877 [     7]: 10212
      0.00847 [    21]: 12210
      0.00755 [     9]: 11022
      0.00745 [     3]: 02112
      0.00664 [    14]: 11220
      0.00523 [     0]: 01122
      0.00519 [     4]: 02121
      0.00512 [    26]: 21021
      0.00447 [    19]: 12120
      0.00406 [    11]: 11121
ROOT   1:  E=   -3200.2031759553 Eh  0.470 eV   3787.5 cm**-1
      0.20932 [     7]: 10212
      0.18031 [    13]: 11211
      0.13466 [    10]: 11112
      0.10069 [    15]: 12012
      0.09485 [    28]: 21111
      0.05035 [     3]: 02112
      0.03997 [    32]: 22011
      0.03417 [    24]: 20211
      0.02473 [    22]: 20112
      0.02179 [    18]: 12111
      0.01653 [     1]: 01212
      0.01528 [     8]: 10221
      0.01359 [     5]: 02211
      0.01231 [    34]: 22110
      0.00876 [     6]: 10122
      0.00816 [    25]: 21012
      0.00650 [    23]: 20121
      0.00572 [    21]: 12210
      0.00571 [    31]: 21210
      0.00259 [     9]: 11022
ROOT   2:  E=   -3200.2002980976 Eh  0.548 eV   4419.1 cm**-1
      0.23444 [     8]: 10221
      0.12067 [    23]: 20121
      0.11048 [     6]: 10122
      0.07810 [    22]: 20112
      0.05945 [     2]: 01221
      0.05070 [    16]: 12021
      0.04547 [     7]: 10212
      0.03329 [    24]: 20211
      0.02915 [     4]: 02121
      0.02690 [     0]: 01122
      0.02244 [    14]: 11220
      0.02141 [    19]: 12120
      0.01927 [    10]: 11112
      0.01862 [     9]: 11022
      0.01819 [    26]: 21021
      0.01595 [    13]: 11211
      0.01223 [    25]: 21012
      0.01205 [    29]: 21120
      0.01187 [     1]: 01212
      0.01042 [    11]: 11121
      0.00988 [    15]: 12012
      0.00862 [     3]: 02112
      0.00725 [    32]: 22011
      0.00507 [    34]: 22110
      0.00496 [    18]: 12111
      0.00310 [    20]: 12201
      0.00270 [    31]: 21210
ROOT   3:  E=   -3200.1955712357 Eh  0.677 eV   5456.5 cm**-1
      0.25372 [     7]: 10212
      0.19726 [    13]: 11211
      0.10259 [    10]: 11112
      0.08906 [    28]: 21111
      0.06835 [    21]: 12210
      0.05269 [    22]: 20112
      0.04996 [     5]: 02211
      0.04479 [    18]: 12111
      0.02362 [    32]: 22011
      0.02235 [     8]: 10221
      0.01780 [    34]: 22110
      0.01383 [    24]: 20211
      0.01223 [     6]: 10122
      0.00946 [    25]: 21012
      0.00858 [    23]: 20121
      0.00769 [    16]: 12021
      0.00342 [    14]: 11220
      0.00286 [     1]: 01212
      0.00267 [     9]: 11022
      0.00262 [     4]: 02121
ROOT   4:  E=   -3200.1805201825 Eh  1.086 eV   8759.9 cm**-1
      0.23581 [    10]: 11112
      0.12509 [    13]: 11211
      0.12000 [    28]: 21111
      0.10591 [    11]: 11121
      0.09044 [     1]: 01212
      0.07952 [     2]: 01221
      0.03833 [    12]: 11202
      0.03112 [     0]: 01122
      0.03083 [    31]: 21210
      0.02897 [    26]: 21021
      0.02275 [     9]: 11022
      0.01270 [    25]: 21012
      0.00794 [    14]: 11220
      0.00672 [    30]: 21201
      0.00649 [    33]: 22101
      0.00554 [    19]: 12120
      0.00507 [     5]: 02211
      0.00474 [    29]: 21120
      0.00474 [     8]: 10221
      0.00450 [    20]: 12201
      0.00437 [    18]: 12111
      0.00375 [    17]: 12102
      0.00350 [    34]: 22110
      0.00324 [    23]: 20121
      0.00300 [    22]: 20112
      0.00288 [    21]: 12210
ROOT   5:  E=   -3200.1804007616 Eh  1.089 eV   8786.1 cm**-1
      0.22272 [     1]: 01212
      0.14949 [     2]: 01221
      0.12637 [    10]: 11112
      0.09838 [    11]: 11121
      0.08996 [    27]: 21102
      0.06085 [     0]: 01122
      0.04511 [    12]: 11202
      0.03974 [    28]: 21111
      0.02669 [    30]: 21201
      0.02144 [    29]: 21120
      0.01879 [    14]: 11220
      0.01857 [     5]: 02211
      0.01392 [    31]: 21210
      0.01319 [    13]: 11211
      0.01038 [    20]: 12201
      0.00994 [    34]: 22110
      0.00941 [    33]: 22101
      0.00345 [    17]: 12102
      0.00327 [    19]: 12120
      0.00292 [    32]: 22011
ROOT   6:  E=   -3200.1764510959 Eh  1.197 eV   9652.9 cm**-1
      0.31240 [    13]: 11211
      0.15091 [     1]: 01212
      0.08220 [    28]: 21111
      0.07598 [    25]: 21012
      0.07354 [    10]: 11112
      0.05208 [    30]: 21201
      0.04744 [    12]: 11202
      0.04077 [    11]: 11121
      0.03386 [    18]: 12111
      0.03315 [    27]: 21102
      0.01590 [     0]: 01122
      0.01220 [     4]: 02121
      0.01132 [     9]: 11022
      0.01101 [    15]: 12012
      0.00766 [    26]: 21021
      0.00534 [     2]: 01221
      0.00459 [    32]: 22011
      0.00412 [    16]: 12021
      0.00370 [     3]: 02112
      0.00348 [    34]: 22110
      0.00336 [    22]: 20112
      0.00330 [    33]: 22101
      0.00330 [    14]: 11220
      0.00265 [    21]: 12210
ROOT   7:  E=   -3200.1668927049 Eh  1.457 eV  11750.8 cm**-1
      0.15531 [     5]: 02211
      0.12546 [    18]: 12111
      0.09288 [    10]: 11112
      0.08922 [     3]: 02112
      0.08143 [    13]: 11211
      0.07189 [    28]: 21111
      0.05628 [    14]: 11220
      0.05214 [    12]: 11202
      0.04300 [    27]: 21102
      0.03930 [    15]: 12012
      0.03870 [    20]: 12201
      0.02943 [    11]: 11121
      0.02660 [    33]: 22101
      0.01958 [    29]: 21120
      0.01652 [    32]: 22011
      0.01048 [    30]: 21201
      0.00959 [     2]: 01221
      0.00867 [    21]: 12210
      0.00464 [     0]: 01122
      0.00455 [    17]: 12102
      0.00410 [    25]: 21012
      0.00404 [    22]: 20112
      0.00375 [    19]: 12120
      0.00299 [     4]: 02121
      0.00295 [     7]: 10212
ROOT   8:  E=   -3200.1636105521 Eh  1.546 eV  12471.1 cm**-1
      0.26098 [    12]: 11202
      0.19324 [    13]: 11211
      0.07885 [    11]: 11121
      0.07112 [    28]: 21111
      0.05511 [    26]: 21021
      0.04601 [    10]: 11112
      0.04213 [     1]: 01212
      0.04034 [    29]: 21120
      0.03983 [     9]: 11022
      0.03602 [    18]: 12111
      0.03530 [    25]: 21012
      0.01933 [     2]: 01221
      0.01353 [    17]: 12102
      0.01097 [    19]: 12120
      0.00949 [    16]: 12021
      0.00855 [    14]: 11220
      0.00789 [    20]: 12201
      0.00563 [    34]: 22110
      0.00418 [    30]: 21201
      0.00326 [     3]: 02112
      0.00283 [    31]: 21210
ROOT   9:  E=   -3200.1622227352 Eh  1.584 eV  12775.7 cm**-1
      0.24581 [    28]: 21111
      0.10624 [    25]: 21012
      0.09787 [     1]: 01212
      0.07922 [    18]: 12111
      0.07161 [    13]: 11211
      0.06412 [    34]: 22110
      0.04949 [    11]: 11121
      0.04610 [    12]: 11202
      0.03246 [    29]: 21120
      0.02701 [    24]: 20211
      0.02673 [    31]: 21210
      0.02595 [    21]: 12210
      0.02563 [    32]: 22011
      0.01991 [    19]: 12120
      0.01495 [     9]: 11022
      0.01466 [    16]: 12021
      0.01377 [    26]: 21021
      0.01217 [    15]: 12012
      0.01061 [     5]: 02211
      0.00547 [     2]: 01221
      0.00423 [    23]: 20121
ROOT  10:  E=   -3200.1609898076 Eh  1.618 eV  13046.3 cm**-1
      0.28127 [    27]: 21102
      0.14921 [    33]: 22101
      0.12935 [    30]: 21201
      0.12342 [    11]: 11121
      0.06255 [    18]: 12111
      0.03780 [    23]: 20121
      0.03417 [     2]: 01221
      0.02287 [    14]: 11220
      0.02204 [    20]: 12201
      0.01979 [    10]: 11112
      0.01809 [    12]: 11202
      0.01274 [     0]: 01122
      0.00959 [     5]: 02211
      0.00855 [    29]: 21120
      0.00780 [    13]: 11211
      0.00691 [    17]: 12102
      0.00680 [    28]: 21111
      0.00613 [    34]: 22110
      0.00608 [     8]: 10221
      0.00467 [    22]: 20112
      0.00421 [     6]: 10122
      0.00388 [    25]: 21012
      0.00312 [    31]: 21210
      0.00294 [    15]: 12012
      0.00284 [    19]: 12120
      0.00265 [     3]: 02112
      0.00255 [    32]: 22011
ROOT  11:  E=   -3200.1543616158 Eh  1.798 eV  14501.0 cm**-1
      0.19279 [    18]: 12111
      0.14406 [    10]: 11112
      0.11886 [     5]: 02211
      0.08285 [    13]: 11211
      0.05609 [     3]: 02112
      0.05184 [    17]: 12102
      0.04408 [    11]: 11121
      0.04401 [     1]: 01212
      0.03520 [    27]: 21102
      0.03355 [    14]: 11220
      0.02935 [    28]: 21111
      0.02874 [    32]: 22011
      0.02197 [    19]: 12120
      0.02004 [    12]: 11202
      0.01963 [    20]: 12201
      0.01659 [    29]: 21120
      0.00947 [    15]: 12012
      0.00832 [    25]: 21012
      0.00787 [    30]: 21201
      0.00595 [     9]: 11022
      0.00554 [    31]: 21210
      0.00488 [    26]: 21021
      0.00333 [    16]: 12021
      0.00294 [    22]: 20112
ROOT  12:  E=   -3200.1468236585 Eh  2.003 eV  16155.4 cm**-1
      0.16930 [    28]: 21111
      0.16222 [    12]: 11202
      0.15556 [    26]: 21021
      0.12550 [    29]: 21120
      0.11330 [    13]: 11211
      0.04507 [    25]: 21012
      0.03351 [     1]: 01212
      0.02891 [    19]: 12120
      0.01864 [    30]: 21201
      0.01686 [    11]: 11121
      0.01647 [    23]: 20121
      0.01580 [    31]: 21210
      0.01454 [    17]: 12102
      0.01428 [    10]: 11112
      0.01143 [    16]: 12021
      0.00932 [    20]: 12201
      0.00917 [    27]: 21102
      0.00685 [     2]: 01221
      0.00608 [     6]: 10122
      0.00443 [     9]: 11022
      0.00322 [     0]: 01122
      0.00304 [    34]: 22110
      0.00288 [    33]: 22101
ROOT  13:  E=   -3200.1338544676 Eh  2.356 eV  19001.8 cm**-1
      0.14488 [    31]: 21210
      0.11748 [    13]: 11211
      0.09582 [    30]: 21201
      0.07141 [    22]: 20112
      0.06762 [     7]: 10212
      0.06543 [    27]: 21102
      0.06061 [    11]: 11121
      0.04954 [    10]: 11112
      0.04830 [     2]: 01221
      0.03649 [    28]: 21111
      0.03223 [    18]: 12111
      0.02827 [    29]: 21120
      0.02632 [    14]: 11220
      0.02572 [     8]: 10221
      0.02321 [    21]: 12210
      0.01555 [    23]: 20121
      0.01255 [     1]: 01212
      0.01138 [     6]: 10122
      0.01127 [    25]: 21012
      0.01094 [     0]: 01122
      0.00749 [     3]: 02112
      0.00592 [    17]: 12102
      0.00558 [     5]: 02211
      0.00525 [    34]: 22110
      0.00505 [    24]: 20211
      0.00450 [    19]: 12120
      0.00318 [     9]: 11022
ROOT  14:  E=   -3200.1331859665 Eh  2.374 eV  19148.5 cm**-1
      0.19216 [    28]: 21111
      0.15350 [    13]: 11211
      0.08585 [     2]: 01221
      0.07633 [    11]: 11121
      0.06627 [    22]: 20112
      0.05299 [    14]: 11220
      0.05235 [    31]: 21210
      0.04798 [    29]: 21120
      0.04350 [    27]: 21102
      0.04102 [    30]: 21201
      0.04066 [    12]: 11202
      0.02220 [    25]: 21012
      0.02120 [     7]: 10212
      0.02045 [    24]: 20211
      0.01278 [    21]: 12210
      0.01162 [    10]: 11112
      0.00899 [     1]: 01212
      0.00828 [    23]: 20121
      0.00580 [     6]: 10122
      0.00519 [    34]: 22110
      0.00483 [     5]: 02211
      0.00479 [    18]: 12111
      0.00475 [    26]: 21021
      0.00313 [    32]: 22011
      0.00306 [    20]: 12201
ROOT  15:  E=   -3200.1317412456 Eh  2.413 eV  19465.6 cm**-1
      0.14994 [    11]: 11121
      0.14686 [    13]: 11211
      0.11611 [    28]: 21111
      0.09799 [     2]: 01221
      0.08694 [    14]: 11220
      0.05970 [    10]: 11112
      0.05819 [    26]: 21021
      0.05741 [    12]: 11202
      0.03424 [     8]: 10221
      0.02393 [     9]: 11022
      0.02378 [    30]: 21201
      0.02352 [    31]: 21210
      0.01545 [     6]: 10122
      0.01340 [    20]: 12201
      0.01225 [    24]: 20211
      0.01221 [    18]: 12111
      0.01213 [     1]: 01212
      0.01204 [     4]: 02121
      0.01184 [    16]: 12021
      0.00690 [     7]: 10212
      0.00294 [    32]: 22011
      0.00282 [    15]: 12012
ROOT  16:  E=   -3200.1245733518 Eh  2.608 eV  21038.8 cm**-1
      0.16091 [    14]: 11220
      0.10838 [    11]: 11121
      0.10368 [    17]: 12102
      0.08298 [     9]: 11022
      0.06628 [     6]: 10122
      0.05989 [    23]: 20121
      0.05724 [    26]: 21021
      0.05613 [    20]: 12201
      0.05184 [    28]: 21111
      0.04387 [     2]: 01221
      0.03845 [    29]: 21120
      0.02914 [    22]: 20112
      0.02134 [    33]: 22101
      0.01466 [    10]: 11112
      0.01298 [     0]: 01122
      0.01229 [    18]: 12111
      0.01155 [     5]: 02211
      0.01029 [    19]: 12120
      0.00954 [    25]: 21012
      0.00954 [    13]: 11211
      0.00898 [    21]: 12210
      0.00824 [     3]: 02112
      0.00468 [    12]: 11202
      0.00427 [    31]: 21210
      0.00391 [    34]: 22110
ROOT  17:  E=   -3200.1240944067 Eh  2.622 eV  21143.9 cm**-1
      0.18220 [    28]: 21111
      0.15744 [    25]: 21012
      0.12070 [    10]: 11112
      0.09676 [    13]: 11211
      0.06904 [     1]: 01212
      0.06068 [    31]: 21210
      0.03833 [    34]: 22110
      0.03009 [    29]: 21120
      0.02965 [     7]: 10212
      0.02933 [    22]: 20112
      0.02032 [     3]: 02112
      0.02031 [    32]: 22011
      0.02017 [    26]: 21021
      0.01807 [    11]: 11121
      0.01753 [    18]: 12111
      0.01715 [    14]: 11220
      0.01698 [     0]: 01122
      0.01023 [     4]: 02121
      0.01004 [     2]: 01221
      0.00902 [    30]: 21201
      0.00885 [    21]: 12210
      0.00764 [     9]: 11022
      0.00308 [     8]: 10221
ROOT  18:  E=   -3200.1188570681 Eh  2.764 eV  22293.4 cm**-1
      0.29394 [    10]: 11112
      0.09672 [    28]: 21111
      0.08502 [     0]: 01122
      0.08415 [    18]: 12111
      0.06346 [    34]: 22110
      0.04954 [    32]: 22011
      0.04443 [    21]: 12210
      0.03990 [    11]: 11121
      0.03802 [    15]: 12012
      0.02991 [    13]: 11211
      0.02662 [    29]: 21120
      0.02212 [    20]: 12201
      0.01818 [     5]: 02211
      0.01695 [    27]: 21102
      0.01531 [     7]: 10212
      0.01527 [    33]: 22101
      0.00839 [    14]: 11220
      0.00800 [    22]: 20112
      0.00795 [    30]: 21201
      0.00677 [     2]: 01221
      0.00458 [     8]: 10221
      0.00401 [    25]: 21012
      0.00363 [     3]: 02112
      0.00323 [    19]: 12120
ROOT  19:  E=   -3200.1159326060 Eh  2.844 eV  22935.2 cm**-1
      0.25185 [    11]: 11121
      0.16978 [    20]: 12201
      0.06419 [    17]: 12102
      0.04190 [    26]: 21021
      0.03951 [    23]: 20121
      0.03938 [    27]: 21102
      0.03714 [    18]: 12111
      0.03336 [    28]: 21111
      0.03238 [     5]: 02211
      0.03179 [     8]: 10221
      0.03084 [    21]: 12210
      0.03002 [    10]: 11112
      0.02846 [    33]: 22101
      0.02662 [     2]: 01221
      0.01898 [    12]: 11202
      0.01841 [     1]: 01212
      0.01779 [    22]: 20112
      0.01240 [     6]: 10122
      0.01152 [     0]: 01122
      0.00901 [     9]: 11022
      0.00715 [     3]: 02112
      0.00641 [    24]: 20211
      0.00583 [    19]: 12120
      0.00558 [    13]: 11211
      0.00531 [    30]: 21201
      0.00504 [     4]: 02121
      0.00409 [    14]: 11220
      0.00405 [    25]: 21012
      0.00365 [    31]: 21210
      0.00279 [     7]: 10212
ROOT  20:  E=   -3200.1118254265 Eh  2.955 eV  23836.6 cm**-1
      0.20700 [    18]: 12111
      0.14878 [    10]: 11112
      0.09721 [    32]: 22011
      0.07876 [    13]: 11211
      0.06545 [     7]: 10212
      0.05190 [    34]: 22110
      0.05166 [    21]: 12210
      0.04674 [    17]: 12102
      0.03867 [    11]: 11121
      0.03813 [    28]: 21111
      0.03014 [    20]: 12201
      0.02094 [    15]: 12012
      0.01806 [     0]: 01122
      0.01800 [     8]: 10221
      0.01623 [    14]: 11220
      0.01123 [     5]: 02211
      0.00935 [    27]: 21102
      0.00894 [    24]: 20211
      0.00698 [    30]: 21201
      0.00678 [    33]: 22101
      0.00656 [    16]: 12021
      0.00566 [    19]: 12120
      0.00506 [     1]: 01212
      0.00306 [    12]: 11202
ROOT  21:  E=   -3200.1090862497 Eh  3.030 eV  24437.8 cm**-1
      0.20447 [     0]: 01122
      0.18408 [    10]: 11112
      0.09420 [    30]: 21201
      0.06755 [    13]: 11211
      0.06689 [    29]: 21120
      0.06618 [    11]: 11121
      0.05101 [    27]: 21102
      0.04576 [    18]: 12111
      0.03818 [     9]: 11022
      0.03227 [    14]: 11220
      0.02619 [     2]: 01221
      0.02600 [     6]: 10122
      0.01466 [     4]: 02121
      0.01368 [    19]: 12120
      0.01207 [     8]: 10221
      0.00876 [    22]: 20112
      0.00837 [     3]: 02112
      0.00744 [    34]: 22110
      0.00656 [    28]: 21111
      0.00514 [    23]: 20121
      0.00466 [    25]: 21012
      0.00379 [    20]: 12201
      0.00374 [     1]: 01212
      0.00348 [    31]: 21210
ROOT  22:  E=   -3200.1058198811 Eh  3.119 eV  25154.7 cm**-1
      0.27950 [    11]: 11121
      0.11150 [    17]: 12102
      0.07869 [    20]: 12201
      0.06227 [     8]: 10221
      0.04670 [    30]: 21201
      0.04627 [    28]: 21111
      0.04343 [    10]: 11112
      0.04272 [    33]: 22101
      0.03471 [     9]: 11022
      0.03419 [    18]: 12111
      0.03351 [    27]: 21102
      0.03282 [    29]: 21120
      0.01707 [    12]: 11202
      0.01323 [     5]: 02211
      0.01283 [     3]: 02112
      0.01243 [    13]: 11211
      0.01210 [    16]: 12021
      0.01175 [    21]: 12210
      0.01123 [     0]: 01122
      0.01045 [     7]: 10212
      0.00964 [    24]: 20211
      0.00846 [    14]: 11220
      0.00500 [    31]: 21210
      0.00479 [    26]: 21021
      0.00479 [     6]: 10122
      0.00426 [    23]: 20121
      0.00418 [     4]: 02121
      0.00413 [    34]: 22110
ROOT  23:  E=   -3200.0914996598 Eh  3.508 eV  28297.6 cm**-1
      0.28101 [    18]: 12111
      0.16841 [     4]: 02121
      0.16068 [    33]: 22101
      0.06520 [    15]: 12012
      0.04834 [    32]: 22011
      0.03480 [     5]: 02211
      0.03240 [    16]: 12021
      0.02856 [     3]: 02112
      0.02578 [    34]: 22110
      0.02306 [    13]: 11211
      0.02246 [    28]: 21111
      0.01701 [    21]: 12210
      0.01600 [    19]: 12120
      0.01474 [    17]: 12102
      0.01211 [    20]: 12201
      0.01030 [    11]: 11121
      0.00885 [    27]: 21102
      0.00815 [    10]: 11112
      0.00501 [    30]: 21201
      0.00500 [    29]: 21120
      0.00395 [     2]: 01221
ROOT  24:  E=   -3200.0851835809 Eh  3.680 eV  29683.8 cm**-1
      0.25507 [     4]: 02121
      0.17242 [    16]: 12021
      0.06725 [    18]: 12111
      0.06322 [    23]: 20121
      0.05389 [    17]: 12102
      0.04948 [    14]: 11220
      0.04869 [    20]: 12201
      0.04376 [    29]: 21120
      0.03494 [    15]: 12012
      0.03017 [    32]: 22011
      0.02733 [    30]: 21201
      0.02057 [    13]: 11211
      0.01750 [     3]: 02112
      0.01743 [     0]: 01122
      0.01673 [    11]: 11121
      0.01518 [    27]: 21102
      0.01151 [     9]: 11022
      0.00910 [     6]: 10122
      0.00858 [    21]: 12210
      0.00649 [     8]: 10221
      0.00601 [     2]: 01221
      0.00479 [    10]: 11112
      0.00456 [     5]: 02211
      0.00374 [    22]: 20112
      0.00257 [    25]: 21012
ROOT  25:  E=   -3200.0828331109 Eh  3.744 eV  30199.7 cm**-1
      0.18702 [    18]: 12111
      0.08523 [    19]: 12120
      0.07086 [     0]: 01122
      0.06152 [    23]: 20121
      0.05934 [     9]: 11022
      0.05408 [    34]: 22110
      0.04979 [     3]: 02112
      0.04758 [     8]: 10221
      0.04523 [    17]: 12102
      0.03822 [     4]: 02121
      0.03809 [    21]: 12210
      0.02891 [    30]: 21201
      0.02662 [    20]: 12201
      0.02567 [     2]: 01221
      0.02500 [    15]: 12012
      0.02372 [    28]: 21111
      0.02093 [    27]: 21102
      0.01769 [    12]: 11202
      0.01381 [     1]: 01212
      0.01265 [    26]: 21021
      0.01196 [    13]: 11211
      0.01062 [    10]: 11112
      0.00659 [    14]: 11220
      0.00629 [    31]: 21210
      0.00610 [    25]: 21012
      0.00577 [     7]: 10212
      0.00535 [    29]: 21120
      0.00519 [    16]: 12021
      0.00302 [    24]: 20211
ROOT  26:  E=   -3200.0825995741 Eh  3.751 eV  30251.0 cm**-1
      0.16696 [    18]: 12111
      0.14916 [     5]: 02211
      0.11718 [    13]: 11211
      0.10883 [    15]: 12012
      0.10482 [    21]: 12210
      0.09935 [    10]: 11112
      0.07357 [    32]: 22011
      0.05132 [    28]: 21111
      0.02978 [    22]: 20112
      0.02582 [    34]: 22110
      0.01946 [    24]: 20211
      0.01174 [    31]: 21210
      0.00868 [     9]: 11022
      0.00776 [    17]: 12102
      0.00647 [     6]: 10122
      0.00380 [    30]: 21201
      0.00343 [     7]: 10212
ROOT  27:  E=   -3200.0798569179 Eh  3.825 eV  30852.9 cm**-1
      0.15972 [     3]: 02112
      0.10775 [    21]: 12210
      0.09428 [    10]: 11112
      0.09010 [    17]: 12102
      0.05843 [     5]: 02211
      0.05751 [    20]: 12201
      0.04667 [    18]: 12111
      0.04558 [    19]: 12120
      0.04537 [    28]: 21111
      0.04440 [    22]: 20112
      0.04360 [    24]: 20211
      0.03418 [     4]: 02121
      0.02421 [    34]: 22110
      0.02323 [     7]: 10212
      0.02179 [     8]: 10221
      0.02169 [    31]: 21210
      0.01581 [    13]: 11211
      0.01379 [    15]: 12012
      0.00968 [    23]: 20121
      0.00750 [     2]: 01221
      0.00619 [    29]: 21120
      0.00577 [     6]: 10122
      0.00560 [    33]: 22101
      0.00504 [     0]: 01122
      0.00451 [    11]: 11121
      0.00314 [    12]: 11202
      0.00289 [    16]: 12021
ROOT  28:  E=   -3200.0723516478 Eh  4.030 eV  32500.1 cm**-1
      0.32184 [    18]: 12111
      0.14814 [     3]: 02112
      0.10508 [    15]: 12012
      0.09665 [    19]: 12120
      0.04396 [    21]: 12210
      0.03985 [    17]: 12102
      0.03341 [    16]: 12021
      0.03298 [    33]: 22101
      0.02298 [    34]: 22110
      0.01999 [    24]: 20211
      0.01545 [    10]: 11112
      0.01517 [    28]: 21111
      0.01516 [     5]: 02211
      0.01432 [    13]: 11211
      0.01397 [    14]: 11220
      0.00854 [     4]: 02121
      0.00718 [     8]: 10221
      0.00694 [    20]: 12201
      0.00643 [    27]: 21102
      0.00576 [    11]: 11121
      0.00531 [    31]: 21210
      0.00393 [    12]: 11202
      0.00385 [    22]: 20112
ROOT  29:  E=   -3200.0635067894 Eh  4.270 eV  34441.3 cm**-1
      0.14751 [     6]: 10122
      0.11031 [    14]: 11220
      0.09739 [     8]: 10221
      0.09031 [    12]: 11202
      0.08531 [     9]: 11022
      0.06538 [    19]: 12120
      0.05156 [    31]: 21210
      0.03258 [    30]: 21201
      0.02815 [    22]: 20112
      0.02802 [    27]: 21102
      0.02290 [    29]: 21120
      0.02142 [    18]: 12111
      0.02132 [     1]: 01212
      0.02062 [    17]: 12102
      0.02010 [    25]: 21012
      0.01997 [     4]: 02121
      0.01900 [    33]: 22101
      0.01878 [    24]: 20211
      0.01357 [    10]: 11112
      0.01298 [    13]: 11211
      0.01274 [     7]: 10212
      0.01190 [    16]: 12021
      0.01127 [    20]: 12201
      0.01060 [    11]: 11121
      0.00655 [     2]: 01221
      0.00487 [    26]: 21021
      0.00483 [    34]: 22110
      0.00329 [    15]: 12012
ROOT  30:  E=   -3200.0529877345 Eh  4.556 eV  36750.0 cm**-1
      0.23752 [    30]: 21201
      0.14048 [    18]: 12111
      0.09660 [    23]: 20121
      0.05951 [    33]: 22101
      0.05797 [     2]: 01221
      0.05197 [     6]: 10122
      0.05179 [    26]: 21021
      0.04210 [     9]: 11022
      0.04005 [    17]: 12102
      0.03479 [    13]: 11211
      0.03112 [    31]: 21210
      0.02521 [    34]: 22110
      0.02185 [     3]: 02112
      0.02140 [    14]: 11220
      0.01692 [    20]: 12201
      0.01477 [    11]: 11121
      0.01284 [    12]: 11202
      0.00618 [    28]: 21111
      0.00546 [     8]: 10221
      0.00536 [    10]: 11112
      0.00308 [     5]: 02211
      0.00304 [     0]: 01122
      0.00280 [    21]: 12210
ROOT  31:  E=   -3200.0422368822 Eh  4.849 eV  39109.5 cm**-1
      0.15865 [    31]: 21210
      0.13717 [    18]: 12111
      0.10385 [    32]: 22011
      0.09191 [    28]: 21111
      0.07878 [    34]: 22110
      0.07199 [    25]: 21012
      0.05508 [    13]: 11211
      0.04589 [    22]: 20112
      0.04372 [    19]: 12120
      0.03978 [    30]: 21201
      0.01970 [    14]: 11220
      0.01873 [    16]: 12021
      0.01744 [    21]: 12210
      0.01580 [    26]: 21021
      0.01387 [    17]: 12102
      0.01216 [    10]: 11112
      0.01199 [    11]: 11121
      0.00880 [    23]: 20121
      0.00805 [     7]: 10212
      0.00661 [     3]: 02112
      0.00657 [     1]: 01212
      0.00648 [     9]: 11022
      0.00548 [     6]: 10122
      0.00479 [    33]: 22101
      0.00474 [    24]: 20211
      0.00403 [     8]: 10221
      0.00327 [    29]: 21120
ROOT  32:  E=   -3200.0395621965 Eh  4.922 eV  39696.6 cm**-1
      0.14096 [    27]: 21102
      0.13576 [     0]: 01122
      0.13156 [    29]: 21120
      0.12428 [    33]: 22101
      0.07346 [     9]: 11022
      0.05910 [    18]: 12111
      0.05763 [    19]: 12120
      0.05113 [    26]: 21021
      0.04153 [    16]: 12021
      0.03768 [    20]: 12201
      0.02169 [    12]: 11202
      0.02035 [    23]: 20121
      0.01630 [    14]: 11220
      0.01100 [    11]: 11121
      0.00934 [    32]: 22011
      0.00909 [     8]: 10221
      0.00868 [    15]: 12012
      0.00843 [     4]: 02121
      0.00705 [    21]: 12210
      0.00693 [     5]: 02211
      0.00658 [    10]: 11112
      0.00362 [    13]: 11211
      0.00356 [     2]: 01221
      0.00284 [    17]: 12102
ROOT  33:  E=   -3200.0263087185 Eh  5.282 eV  42605.4 cm**-1
      0.17107 [    24]: 20211
      0.08942 [     5]: 02211
      0.08489 [    22]: 20112
      0.08157 [    28]: 21111
      0.07590 [     3]: 02112
      0.06913 [    13]: 11211
      0.06907 [    34]: 22110
      0.06104 [    10]: 11112
      0.06068 [    31]: 21210
      0.03533 [     6]: 10122
      0.03341 [    32]: 22011
      0.02732 [    11]: 11121
      0.02091 [    19]: 12120
      0.01696 [    17]: 12102
      0.01439 [    25]: 21012
      0.01090 [    23]: 20121
      0.00985 [    33]: 22101
      0.00774 [    30]: 21201
      0.00728 [     4]: 02121
      0.00686 [     8]: 10221
      0.00666 [     7]: 10212
      0.00643 [    27]: 21102
      0.00597 [    26]: 21021
      0.00562 [     9]: 11022
      0.00537 [    29]: 21120
      0.00392 [    18]: 12111
      0.00291 [     1]: 01212
      0.00266 [    20]: 12201
      0.00251 [    21]: 12210
ROOT  34:  E=   -3200.0250919370 Eh  5.316 eV  42872.4 cm**-1
      0.13829 [     6]: 10122
      0.11090 [    33]: 22101
      0.10047 [    11]: 11121
      0.08462 [    23]: 20121
      0.06880 [    20]: 12201
      0.06214 [    16]: 12021
      0.05615 [     8]: 10221
      0.05439 [    19]: 12120
      0.04992 [     0]: 01122
      0.04743 [     4]: 02121
      0.03529 [    10]: 11112
      0.02275 [    13]: 11211
      0.01799 [     7]: 10212
      0.01728 [    17]: 12102
      0.01633 [    14]: 11220
      0.01593 [    21]: 12210
      0.01339 [     2]: 01221
      0.01318 [    28]: 21111
      0.01160 [    15]: 12012
      0.00849 [    30]: 21201
      0.00721 [    22]: 20112
      0.00699 [    32]: 22011
      0.00688 [    29]: 21120
      0.00579 [     9]: 11022
      0.00571 [    25]: 21012
      0.00493 [     5]: 02211
      0.00420 [    18]: 12111
      0.00419 [     1]: 01212
ROOT  35:  E=   -3200.0072132784 Eh  5.802 eV  46796.3 cm**-1
      0.12584 [    17]: 12102
      0.12229 [    20]: 12201
      0.10344 [    11]: 11121
      0.10009 [     6]: 10122
      0.08809 [    23]: 20121
      0.08618 [    16]: 12021
      0.06752 [    19]: 12120
      0.06123 [     8]: 10221
      0.04288 [     4]: 02121
      0.02178 [    26]: 21021
      0.02013 [    33]: 22101
      0.01653 [    28]: 21111
      0.01640 [     5]: 02211
      0.01617 [    10]: 11112
      0.01575 [    21]: 12210
      0.01196 [    32]: 22011
      0.01077 [     2]: 01221
      0.01016 [    15]: 12012
      0.00814 [    14]: 11220
      0.00724 [    13]: 11211
      0.00682 [     7]: 10212
      0.00632 [    24]: 20211
      0.00491 [    31]: 21210
      0.00475 [     0]: 01122
      0.00429 [    29]: 21120
      0.00384 [    30]: 21201
      0.00337 [     9]: 11022
      0.00328 [     3]: 02112
      0.00257 [    12]: 11202
      0.00252 [    18]: 12111
ROOT  36:  E=   -3200.0010881546 Eh  5.969 eV  48140.6 cm**-1
      0.16664 [    11]: 11121
      0.11375 [    33]: 22101
      0.09750 [    19]: 12120
      0.08786 [     4]: 02121
      0.08017 [    34]: 22110
      0.06520 [    17]: 12102
      0.06195 [    23]: 20121
      0.05068 [     3]: 02112
      0.04754 [    28]: 21111
      0.03882 [    20]: 12201
      0.02932 [    22]: 20112
      0.02629 [    10]: 11112
      0.02440 [    29]: 21120
      0.02347 [     6]: 10122
      0.01593 [     9]: 11022
      0.01003 [     5]: 02211
      0.00860 [    30]: 21201
      0.00619 [    27]: 21102
      0.00600 [    16]: 12021
      0.00549 [    21]: 12210
      0.00511 [     2]: 01221
      0.00462 [    18]: 12111
      0.00377 [    25]: 21012
      0.00377 [    14]: 11220
      0.00353 [    12]: 11202
      0.00295 [    32]: 22011
      0.00280 [    31]: 21210
      0.00261 [     1]: 01212
ROOT  37:  E=   -3199.9992698371 Eh  6.018 eV  48539.7 cm**-1
      0.18416 [    21]: 12210
      0.18377 [    10]: 11112
      0.12700 [    13]: 11211
      0.10073 [    15]: 12012
      0.08343 [     7]: 10212
      0.04778 [    20]: 12201
      0.04725 [    11]: 11121
      0.03430 [    16]: 12021
      0.03203 [     8]: 10221
      0.02260 [    24]: 20211
      0.02175 [    18]: 12111
      0.01577 [    34]: 22110
      0.01440 [    28]: 21111
      0.01419 [    32]: 22011
      0.01226 [     1]: 01212
      0.00997 [     3]: 02112
      0.00936 [     5]: 02211
      0.00904 [    33]: 22101
      0.00777 [    25]: 21012
      0.00534 [    17]: 12102
      0.00377 [    14]: 11220
      0.00337 [    27]: 21102
ROOT  38:  E=   -3199.9702467009 Eh  6.808 eV  54909.6 cm**-1
      0.29283 [    28]: 21111
      0.11079 [    34]: 22110
      0.09710 [    24]: 20211
      0.07938 [    13]: 11211
      0.07634 [    31]: 21210
      0.07185 [    22]: 20112
      0.06235 [    11]: 11121
      0.02370 [    21]: 12210
      0.02159 [    10]: 11112
      0.01907 [    25]: 21012
      0.01683 [    32]: 22011
      0.01353 [    19]: 12120
      0.01344 [     8]: 10221
      0.01339 [     3]: 02112
      0.01182 [     6]: 10122
      0.00922 [    23]: 20121
      0.00844 [    14]: 11220
      0.00831 [     4]: 02121
      0.00809 [    18]: 12111
      0.00751 [    33]: 22101
      0.00584 [     5]: 02211
      0.00578 [     2]: 01221
      0.00409 [    29]: 21120
      0.00328 [     9]: 11022
      0.00318 [    17]: 12102
      0.00259 [    26]: 21021
      0.00251 [     0]: 01122
ROOT  39:  E=   -3199.8141017261 Eh 11.057 eV  89179.4 cm**-1
      0.13172 [    25]: 21012
      0.12230 [    32]: 22011
      0.10792 [    10]: 11112
      0.10674 [    28]: 21111
      0.09993 [    18]: 12111
      0.05850 [    34]: 22110
      0.05712 [    22]: 20112
      0.04003 [    13]: 11211
      0.03884 [    11]: 11121
      0.02531 [    26]: 21021
      0.02511 [    16]: 12021
      0.02334 [     1]: 01212
      0.02204 [     5]: 02211
      0.02060 [    21]: 12210
      0.02027 [     7]: 10212
      0.01891 [     9]: 11022
      0.01215 [    29]: 21120
      0.01172 [    19]: 12120
      0.01145 [     4]: 02121
      0.01061 [    23]: 20121
      0.00861 [     0]: 01122
      0.00819 [     6]: 10122
      0.00520 [    14]: 11220
      0.00478 [     2]: 01221
      0.00310 [    15]: 12012
      0.00274 [     8]: 10221
ROOT  40:  E=   -3199.7962734902 Eh 11.542 eV  93092.3 cm**-1
      0.28422 [    26]: 21021
      0.20750 [    11]: 11121
      0.14110 [    29]: 21120
      0.10796 [    23]: 20121
      0.03308 [     2]: 01221
      0.03250 [    14]: 11220
      0.03230 [    25]: 21012
      0.03068 [    28]: 21111
      0.02606 [    10]: 11112
      0.02533 [     8]: 10221
      0.01328 [    22]: 20112
      0.01207 [    13]: 11211
      0.00941 [     9]: 11022
      0.00726 [    31]: 21210
      0.00566 [     0]: 01122
      0.00544 [     1]: 01212
      0.00523 [    24]: 20211
      0.00441 [    16]: 12021
      0.00398 [     7]: 10212
      0.00264 [     6]: 10122
ROOT  41:  E=   -3199.7893749147 Eh 11.730 eV  94606.3 cm**-1
      0.15679 [    28]: 21111
      0.08824 [    32]: 22011
      0.08329 [    10]: 11112
      0.08046 [    13]: 11211
      0.06938 [    11]: 11121
      0.06419 [    18]: 12111
      0.05352 [    31]: 21210
      0.04755 [    34]: 22110
      0.04714 [    24]: 20211
      0.03682 [    16]: 12021
      0.03577 [    25]: 21012
      0.02796 [     1]: 01212
      0.02547 [    15]: 12012
      0.02473 [    14]: 11220
      0.02409 [     7]: 10212
      0.02390 [     2]: 01221
      0.02202 [     8]: 10221
      0.01877 [    19]: 12120
      0.01842 [     4]: 02121
      0.01401 [     3]: 02112
      0.00955 [    22]: 20112
      0.00589 [    21]: 12210
      0.00538 [    26]: 21021
      0.00470 [     5]: 02211
      0.00445 [     9]: 11022
      0.00261 [    29]: 21120
ROOT  42:  E=   -3199.7166898374 Eh 13.708 eV 110558.9 cm**-1
      0.22652 [    11]: 11121
      0.18109 [     9]: 11022
      0.08513 [     0]: 01122
      0.07696 [     6]: 10122
      0.05571 [    14]: 11220
      0.05391 [     2]: 01221
      0.05366 [     8]: 10221
      0.04004 [    16]: 12021
      0.02708 [    28]: 21111
      0.02488 [    10]: 11112
      0.02135 [    19]: 12120
      0.01959 [    26]: 21021
      0.01939 [     4]: 02121
      0.01562 [    13]: 11211
      0.01318 [    25]: 21012
      0.00950 [    29]: 21120
      0.00877 [    23]: 20121
      0.00867 [    31]: 21210
      0.00827 [    24]: 20211
      0.00793 [    15]: 12012
      0.00755 [    18]: 12111
      0.00724 [     1]: 01212
      0.00718 [     7]: 10212
      0.00713 [    32]: 22011
      0.00546 [    22]: 20112
      0.00411 [     3]: 02112
      0.00379 [    34]: 22110
ROOT  43:  E=   -3199.7106029919 Eh 13.873 eV 111894.8 cm**-1
      0.19320 [    16]: 12021
      0.14976 [    11]: 11121
      0.11897 [     9]: 11022
      0.09380 [     4]: 02121
      0.09089 [    19]: 12120
      0.05725 [     0]: 01122
      0.05620 [     6]: 10122
      0.03627 [    15]: 12012
      0.03424 [    18]: 12111
      0.03334 [    32]: 22011
      0.02893 [    10]: 11112
      0.02543 [    28]: 21111
      0.01941 [    25]: 21012
      0.01740 [     3]: 02112
      0.01608 [    34]: 22110
      0.01030 [    22]: 20112
      0.00421 [     8]: 10221
      0.00333 [     2]: 01221
      0.00302 [    14]: 11220
ROOT  44:  E=   -3199.6979805329 Eh 14.217 eV 114665.1 cm**-1
      0.19170 [    18]: 12111
      0.17536 [    15]: 12012
      0.12438 [    10]: 11112
      0.07993 [     3]: 02112
      0.07530 [    13]: 11211
      0.05267 [    21]: 12210
      0.04945 [     5]: 02211
      0.04162 [    28]: 21111
      0.02949 [    16]: 12021
      0.02792 [    25]: 21012
      0.01934 [    11]: 11121
      0.01912 [     7]: 10212
      0.01496 [     1]: 01212
      0.01372 [    19]: 12120
      0.01349 [     4]: 02121
      0.01311 [    22]: 20112
      0.01275 [    31]: 21210
      0.01274 [    24]: 20211
      0.00637 [    26]: 21021
      0.00620 [     9]: 11022
      0.00491 [    32]: 22011
      0.00303 [    29]: 21120
      0.00302 [    23]: 20121
      0.00301 [     6]: 10122
      0.00288 [     0]: 01122
      0.00257 [    34]: 22110

                 <<<<<<<<<<<<<<<<<<INITIAL CI STATE CHECK>>>>>>>>>>>>>>>>>>

   E(CAS)= -3200.125864802 Eh DE=    0.000000e+00
   --- Energy gap subspaces: Ext-Act = 0.080   Act-Int = 0.074
   N(occ)=  1.20000 1.20000 1.20000 1.20000 1.20000
   ||g|| =     8.527201e-04 Max(G)=   -1.254735e-04 Rot=204,161
                     ---- THE CAS-SCF GRADIENT HAS CONVERGED ----
                            --- FINALIZING ORBITALS ---
                    ---- DOING ONE FINAL ITERATION FOR PRINTING ----
   --- Forming Natural Orbitals
   --- Canonicalize Internal Space
   --- Canonicalize External Space

MACRO-ITERATION   2: 
   --- Inactive Energy E0 = -3191.78735287 Eh
   --- All densities will be recomputed
CI-ITERATION   0: 
 -3200.236269126   0.000000000000 (    0.00)
 -3200.204576611   0.000000000000
 -3200.180564392   0.000000000000
 -3200.178551472   0.000000000000
 -3200.151177264   0.000000000000
   CI-PROBLEM SOLVED
   DENSITIES MADE
CI-ITERATION   0: 
 -3200.220433086   0.000000000000 (    0.00)
 -3200.203175955   0.000000000000
 -3200.200298097   0.000000000000
 -3200.195571235   0.000000000000
 -3200.180520182   0.000000000000
 -3200.180400760   0.000000000000
 -3200.176451095   0.000000000000
 -3200.166892704   0.000000000000
 -3200.163610551   0.000000000000
 -3200.162222735   0.000000000000
 -3200.160989807   0.000000000000
 -3200.154361615   0.000000000000
 -3200.146823658   0.000000000000
 -3200.133854467   0.000000000000
 -3200.133185966   0.000000000000
 -3200.131741245   0.000000000000
 -3200.124573351   0.000000000000
 -3200.124094406   0.000000000000
 -3200.118857067   0.000000000000
 -3200.115932605   0.000000000000
 -3200.111825426   0.000000000000
 -3200.109086249   0.000000000000
 -3200.105819880   0.000000000000
 -3200.091499658   0.000000000000
 -3200.085183579   0.000000000000
 -3200.082833110   0.000000000000
 -3200.082599573   0.000000000000
 -3200.079856917   0.000000000000
 -3200.072351646   0.000000000000
 -3200.063506789   0.000000000000
 -3200.052987734   0.000000000000
 -3200.042236882   0.000000000000
 -3200.039562196   0.000000000000
 -3200.026308718   0.000000000000
 -3200.025091936   0.000000000000
 -3200.007213277   0.000000000000
 -3200.001088154   0.000000000000
 -3199.999269836   0.000000000000
 -3199.970246701   0.000000000000
 -3199.814101726   0.000000000000
 -3199.796273490   0.000000000000
 -3199.789374914   0.000000000000
 -3199.716689836   0.000000000000
 -3199.710602990   0.000000000000
 -3199.697980532   0.000000000000
   CI-PROBLEM SOLVED
   DENSITIES MADE
   E(CAS)= -3200.125864801 Eh DE=    7.944436e-10
   --- Energy gap subspaces: Ext-Act = 0.082   Act-Int = 0.068
   N(occ)=  1.20000 1.20000 1.20000 1.20000 1.20000
   ||g|| =     8.527202e-04 Max(G)=   -1.349384e-04 Rot=204,163
--------------
CASSCF RESULTS
--------------

Final CASSCF energy       : -3200.125864801 Eh  -87079.8518 eV

----------------
ORBITAL ENERGIES
----------------

  NO   OCC          E(Eh)            E(eV) 
   0   2.0000    -220.523739     -6000.7560 
   1   2.0000     -26.364674      -717.4192 
   2   2.0000     -22.297862      -606.7557 
   3   2.0000     -22.297102      -606.7350 
   4   2.0000     -22.285946      -606.4314 
   5   2.0000      -4.727075      -128.6303 
   6   2.0000      -4.717329      -128.3650 
   7   2.0000      -4.713916      -128.2722 
   8   2.0000      -4.713857      -128.2706 
   9   2.0000      -4.713795      -128.2689 
  10   2.0000      -4.713406      -128.2583 
  11   2.0000      -4.713026      -128.2480 
  12   2.0000      -4.713004      -128.2474 
  13   2.0000      -4.712387      -128.2306 
  14   2.0000      -4.712294      -128.2280 
  15   2.0000      -4.711131      -128.1964 
  16   2.0000      -4.708651      -128.1289 
  17   2.0000      -4.708634      -128.1284 
  18   2.0000      -4.707488      -128.0973 
  19   2.0000      -4.707426      -128.0956 
  20   2.0000      -4.704320      -128.0111 
  21   2.0000      -3.418155       -93.0127 
  22   2.0000      -2.766552       -75.2817 
  23   2.0000      -2.764447       -75.2244 
  24   2.0000      -2.764129       -75.2158 
  25   2.0000      -2.758895       -75.0733 
  26   2.0000      -2.755715       -74.9868 
  27   2.0000      -2.754357       -74.9499 
  28   2.0000      -2.753752       -74.9334 
  29   2.0000      -2.753108       -74.9159 
  30   2.0000      -2.752697       -74.9047 
  31   2.0000      -2.752011       -74.8860 
  32   2.0000      -2.751458       -74.8710 
  33   2.0000      -2.751138       -74.8623 
  34   2.0000      -2.750992       -74.8583 
  35   2.0000      -2.750381       -74.8417 
  36   2.0000      -2.750239       -74.8378 
  37   2.0000      -2.750132       -74.8349 
  38   2.0000      -2.749843       -74.8270 
  39   2.0000      -2.749728       -74.8239 
  40   2.0000      -2.749585       -74.8200 
  41   2.0000      -2.748998       -74.8040 
  42   2.0000      -2.748940       -74.8024 
  43   2.0000      -2.747995       -74.7767 
  44   2.0000      -2.747958       -74.7757 
  45   2.0000      -2.747776       -74.7708 
  46   2.0000      -2.747759       -74.7703 
  47   2.0000      -2.747184       -74.7547 
  48   2.0000      -2.747115       -74.7528 
  49   2.0000      -2.746744       -74.7427 
  50   2.0000      -2.746462       -74.7350 
  51   2.0000      -2.746264       -74.7296 
  52   2.0000      -2.745901       -74.7198 
  53   2.0000      -2.745485       -74.7084 
  54   2.0000      -2.745426       -74.7068 
  55   2.0000      -2.744784       -74.6894 
  56   2.0000      -2.744264       -74.6752 
  57   2.0000      -2.744237       -74.6745 
  58   2.0000      -2.744146       -74.6720 
  59   2.0000      -2.743710       -74.6601 
  60   2.0000      -2.743635       -74.6581 
[...]
 3 117   79857.3    125.2   0.000000000   0.00001   0.00306   0.00066   0.00024
 3 118   79858.3    125.2   0.000000000   0.00004   0.00105   0.00465   0.00443
 3 119   79889.9    125.2   0.000000000   0.00016   0.00264   0.00843   0.00903
 3 120   79904.9    125.1   0.000000000   0.00005   0.00647   0.00252   0.00146
 3 121   79912.7    125.1   0.000000000   0.00000   0.00032   0.00170   0.00136
 3 122   80330.9    124.5   0.000000000   0.00015   0.00234   0.00793   0.00900
 3 123   80334.4    124.5   0.000000000   0.00001   0.00264   0.00048   0.00278
 3 124   80344.6    124.5   0.000000000   0.00001   0.00093   0.00183   0.00241
 3 125   80358.8    124.4   0.000000000   0.00002   0.00126   0.00169   0.00446
 3 126   80359.8    124.4   0.000000000   0.00010   0.00002   0.00800   0.00558
 3 127   80804.8    123.8   0.000000001   0.00681   0.01187   0.05895   0.05652
 3 128   80815.1    123.7   0.000000000   0.00116   0.00264   0.03086   0.01434
 3 129   80820.2    123.7   0.000000000   0.00083   0.00539   0.01807   0.02180
 3 130   81067.9    123.4   0.000000000   0.00007   0.00225   0.00473   0.00648
 3 131   81074.4    123.3   0.000000002   0.00942   0.06123   0.05790   0.04814
 3 132   81079.9    123.3   0.000000000   0.00067   0.00471   0.02455   0.00660
 3 133   81164.8    123.2   0.000000000   0.00018   0.00004   0.01107   0.00727
 3 134   81171.1    123.2   0.000000000   0.00093   0.01966   0.01390   0.01873
 3 135   81174.8    123.2   0.000000000   0.00021   0.00069   0.01240   0.00719
 3 136   81778.2    122.3   0.000000000   0.00058   0.01983   0.01214   0.00656
 3 137   81782.1    122.3   0.000000005   0.02465   0.12825   0.07466   0.05125
 3 138   81784.7    122.3   0.000000001   0.00343   0.04921   0.02605   0.01804
 3 139   83223.9    120.2   0.000000000   0.00003   0.00180   0.00316   0.00429
 3 140   83223.9    120.2   0.000000000   0.00000   0.00046   0.00036   0.00020
 3 141   83224.0    120.2   0.000000000   0.00000   0.00047   0.00027   0.00073
 3 142   84637.7    118.2   0.000000000   0.00000   0.00027   0.00044   0.00034
 3 143   84638.6    118.1   0.000000000   0.00000   0.00109   0.00075   0.00137
 3 144   84640.3    118.1   0.000000000   0.00033   0.00425   0.01100   0.01389
 3 145   85505.4    117.0   0.000000000   0.00000   0.00032   0.00215   0.00011
 3 146   85506.0    117.0   0.000000000   0.00002   0.00290   0.00345   0.00006
 3 147   85507.5    116.9   0.000000000   0.00020   0.00316   0.01370   0.00251
 3 148   87639.9    114.1   0.000000000   0.00001   0.00161   0.00255   0.00007
 3 149   87640.8    114.1   0.000000000   0.00008   0.00162   0.00627   0.00626
 3 150   87641.3    114.1   0.000000000   0.00050   0.00362   0.01611   0.01494
 3 151  287219.8     34.8   0.000000000   0.00000   0.00049   0.00048   0.00041
 3 152  287220.0     34.8   0.000000069   0.10481   0.23666   0.17923   0.12915
 3 153  287220.0     34.8   0.000000020   0.03038   0.12740   0.09653   0.06948
 3 154  358116.6     27.9   0.000000000   0.00004   0.00277   0.00277   0.00513
 3 155  358116.6     27.9   0.000000001   0.00156   0.01655   0.01863   0.03070
 3 156  358116.8     27.9   0.000000000   0.00006   0.00339   0.00371   0.00624
 3 157  502511.6     19.9   0.000000009   0.00793   0.06126   0.05142   0.03912
 3 158  502511.7     19.9   0.000000000   0.00005   0.00469   0.00399   0.00295
 3 159  502511.8     19.9   0.000000179   0.15564   0.27211   0.22748   0.17276
 4  5       0.3   39901488.4   0.000000000   0.00000   0.00000   0.00000   0.00000
 4  6    6781.3   1474.7   0.000000000   0.00000   0.00014   0.00110   0.00086
 4  7    6782.3   1474.4   0.000000000   0.00004   0.00086   0.00447   0.00388
 4  8    6782.3   1474.4   0.000000000   0.00000   0.00053   0.00086   0.00003
 4  9   27234.6    367.2   0.000000000   0.00006   0.00034   0.00597   0.00534
 4 10   27235.0    367.2   0.000000000   0.00094   0.00075   0.02176   0.02160
 4 11   27235.4    367.2   0.000000001   0.02391   0.00600   0.10948   0.10903
 4 12   44711.5    223.7   0.000000000   0.00000   0.00014   0.00018   0.00026
 4 13   44711.6    223.7   0.000000000   0.00000   0.00045   0.00008   0.00018
 4 14   44712.6    223.7   0.000000000   0.00000   0.00001   0.00002   0.00006
 4 15   44713.3    223.6   0.000000000   0.00000   0.00010   0.00001   0.00001
 4 16   44713.5    223.6   0.000000000   0.00000   0.00001   0.00005   0.00010
 4 17   58591.0    170.7   0.000000000   0.00010   0.00934   0.00259   0.00224
 4 18   58591.3    170.7   0.000000001   0.00660   0.07217   0.02769   0.02499
 4 19   58594.0    170.7   0.000000003   0.02067   0.12816   0.04814   0.04386
 4 20   60948.0    164.1   0.000000000   0.00000   0.00056   0.00022   0.00103
 4 21   60949.6    164.1   0.000000000   0.00000   0.00197   0.00021   0.00006
 4 22   60950.9    164.1   0.000000000   0.00000   0.00079   0.00089   0.00067
 4 23   62456.8    160.1   0.000000000   0.00030   0.01007   0.01082   0.00901
 4 24   62457.4    160.1   0.000000004   0.02995   0.10594   0.10594   0.08661
 4 25   62458.1    160.1   0.000000000   0.00000   0.00025   0.00030   0.00013
 4 26   63124.3    158.4   0.000000000   0.00000   0.00061   0.00108   0.00133
 4 27   63125.3    158.4   0.000000000   0.00021   0.00941   0.00873   0.00701
 4 28   63125.4    158.4   0.000000000   0.00000   0.00133   0.00119   0.00107
 4 29   63128.3    158.4   0.000000000   0.00000   0.00044   0.00056   0.00045
 4 30   63128.3    158.4   0.000000000   0.00000   0.00066   0.00057   0.00057
 4 31   64153.6    155.9   0.000000000   0.00015   0.00091   0.00924   0.00772
 4 32   64154.0    155.9   0.000000000   0.00005   0.00015   0.00531   0.00503
 4 33   64159.1    155.9   0.000000000   0.00058   0.00319   0.01626   0.01746
 4 34   64997.3    153.9   0.000000000   0.00083   0.02382   0.01520   0.00576
 4 35   65003.2    153.8   0.000000000   0.00083   0.02758   0.00447   0.00706
 4 36   65008.5    153.8   0.000000000   0.00005   0.00737   0.00052   0.00050
 4 37   65082.8    153.7   0.000000000   0.00003   0.00209   0.00389   0.00237
 4 38   65083.0    153.6   0.000000005   0.03382   0.15935   0.07910   0.04661
 4 39   65086.4    153.6   0.000000001   0.00973   0.08558   0.04199   0.02535
 4 40   65759.6    152.1   0.000000000   0.00012   0.00257   0.00180   0.01035
 4 41   65760.9    152.1   0.000000000   0.00008   0.00738   0.00193   0.00469
 4 42   65771.5    152.0   0.000000000   0.00043   0.00802   0.00753   0.01772
 4 43   66276.2    150.9   0.000000000   0.00011   0.01008   0.00009   0.00206
 4 44   66276.3    150.9   0.000000000   0.00007   0.00768   0.00023   0.00245
 4 45   66279.4    150.9   0.000000000   0.00009   0.00783   0.00206   0.00481
 4 46   66899.4    149.5   0.000000001   0.00945   0.09432   0.02357   0.00140
 4 47   66909.3    149.5   0.000000000   0.00188   0.04260   0.00388   0.00681
 4 48   66912.6    149.4   0.000000000   0.00005   0.00680   0.00125   0.00071
 4 49   68332.3    146.3   0.000000000   0.00271   0.03940   0.02732   0.02027
 4 50   68336.7    146.3   0.000000001   0.00455   0.03159   0.04546   0.03849
 4 51   68409.4    146.2   0.000000000   0.00006   0.00398   0.00542   0.00373
 4 52   68422.0    146.2   0.000000000   0.00002   0.00353   0.00305   0.00077
 4 53   68496.9    146.0   0.000000000   0.00042   0.01565   0.00802   0.01074
 4 54   68499.4    146.0   0.000000001   0.00692   0.05063   0.05128   0.04149
 4 55   69606.8    143.7   0.000000000   0.00024   0.00525   0.01412   0.00358
 4 56   69614.1    143.6   0.000000005   0.03263   0.08127   0.11982   0.10802
 4 57   69622.6    143.6   0.000000015   0.09261   0.13960   0.20131   0.18055
 4 58   69834.1    143.2   0.000000000   0.00005   0.00163   0.00289   0.00628
 4 59   69835.2    143.2   0.000000000   0.00001   0.00205   0.00155   0.00267
 4 60   69845.8    143.2   0.000000000   0.00001   0.00258   0.00195   0.00182
 4 61   69997.6    142.9   0.000000000   0.00168   0.00413   0.03052   0.02704
 4 62   70002.7    142.9   0.000000000   0.00056   0.01204   0.01630   0.01236
 4 63   70008.8    142.8   0.000000000   0.00013   0.00090   0.00936   0.00678
 4 64   70113.5    142.6   0.000000000   0.00009   0.00377   0.00633   0.00587
 4 65   70113.6    142.6   0.000000000   0.00000   0.00025   0.00077   0.00131
 4 66   70141.8    142.6   0.000000000   0.00014   0.00163   0.00848   0.00823
 4 67   70145.5    142.6   0.000000000   0.00077   0.01270   0.01946   0.01524
 4 68   70151.6    142.5   0.000000000   0.00022   0.00202   0.01070   0.01019
 4 69   72452.0    138.0   0.000000000   0.00027   0.00252   0.00577   0.01533
 4 70   72453.7    138.0   0.000000000   0.00025   0.00899   0.01269   0.00209
 4 71   72458.8    138.0   0.000000000   0.00120   0.01151   0.01503   0.02897
 4 72   72471.2    138.0   0.000000001   0.00649   0.04789   0.05053   0.04055
 4 73   72487.1    138.0   0.000000000   0.00276   0.02041   0.03623   0.03206
 4 74   72495.3    137.9   0.000000000   0.00042   0.00179   0.01668   0.01176
 4 75   72797.1    137.4   0.000000000   0.00020   0.01345   0.00383   0.00278
 4 76   72853.4    137.3   0.000000000   0.00006   0.00436   0.00585   0.00219
 4 77   72859.7    137.3   0.000000000   0.00159   0.03760   0.01235   0.00455
 4 78   72951.8    137.1   0.000000000   0.00002   0.00406   0.00206   0.00152
 4 79   72984.2    137.0   0.000000001   0.00433   0.05043   0.03302   0.02647
 4 80   73002.7    137.0   0.000000000   0.00001   0.00079   0.00185   0.00105
 4 81   73075.0    136.8   0.000000001   0.00667   0.06510   0.03965   0.02934
 4 82   73099.9    136.8   0.000000000   0.00006   0.00536   0.00509   0.00106
 4 83   73109.3    136.8   0.000000002   0.01092   0.07846   0.05389   0.04318
 4 84   73160.5    136.7   0.000000000   0.00038   0.01522   0.00534   0.01094
 4 85   73178.3    136.7   0.000000014   0.08105   0.22579   0.12562   0.11955
 4 86   73180.0    136.6   0.000000004   0.02583   0.12441   0.07221   0.07169
 4 87   73445.8    136.2   0.000000000   0.00206   0.02275   0.02844   0.02704
 4 88   73448.1    136.2   0.000000000   0.00168   0.02625   0.01872   0.02523
 4 89   73474.5    136.1   0.000000000   0.00005   0.00155   0.00673   0.00194
 4 90   73583.2    135.9   0.000000000   0.00031   0.00069   0.01526   0.00870
 4 91   73635.1    135.8   0.000000000   0.00030   0.01362   0.00181   0.01040
 4 92   73667.3    135.7   0.000000000   0.00103   0.01818   0.02615   0.00340
 4 93   73733.8    135.6   0.000000008   0.04940   0.00076   0.17722   0.13413
 4 94   73745.1    135.6   0.000000000   0.00106   0.00498   0.02747   0.01683
 4 95   73749.4    135.6   0.000000000   0.00009   0.00069   0.00801   0.00537
 4 96   73761.7    135.6   0.000000000   0.00203   0.01047   0.03760   0.02253
 4 97   73793.3    135.5   0.000000000   0.00088   0.00240   0.02408   0.01730
 4 98   73796.5    135.5   0.000000000   0.00039   0.01879   0.00628   0.00098
 4 99   75838.6    131.9   0.000000001   0.00607   0.03333   0.06446   0.02844
 4 100   75839.6    131.9   0.000000000   0.00050   0.00944   0.01865   0.00769
 4 101   75841.5    131.9   0.000000000   0.00002   0.00337   0.00349   0.00041
 4 102   76538.7    130.7   0.000000000   0.00009   0.00528   0.00696   0.00425
 4 103   76542.4    130.6   0.000000000   0.00054   0.01475   0.00581   0.01691
 4 104   76554.4    130.6   0.000000000   0.00003   0.00327   0.00045   0.00440
 4 105   76949.0    130.0   0.000000000   0.00006   0.00215   0.00296   0.00704
 4 106   76960.6    129.9   0.000000000   0.00037   0.00460   0.01028   0.01556
 4 107   76963.7    129.9   0.000000000   0.00005   0.00295   0.00384   0.00480
 4 108   77491.6    129.0   0.000000000   0.00006   0.00658   0.00131   0.00323
 4 109   77497.8    129.0   0.000000000   0.00062   0.00331   0.01895   0.01569
 4 110   77501.0    129.0   0.000000000   0.00036   0.00327   0.01319   0.01333
 4 111   78196.0    127.9   0.000000005   0.02766   0.15289   0.06016   0.02585
 4 112   78203.4    127.9   0.000000000   0.00186   0.03976   0.01535   0.00628
 4 113   78205.2    127.9   0.000000000   0.00011   0.00973   0.00274   0.00235
 4 114   79646.5    125.6   0.000000000   0.00003   0.00339   0.00145   0.00456
 4 115   79649.9    125.5   0.000000000   0.00055   0.01667   0.01391   0.00908
 4 116   79655.5    125.5   0.000000000   0.00085   0.02335   0.01504   0.00908
 4 117   79856.9    125.2   0.000000000   0.00001   0.00305   0.00066   0.00113
 4 118   79857.9    125.2   0.000000000   0.00010   0.00251   0.00676   0.00723
 4 119   79889.4    125.2   0.000000000   0.00005   0.00062   0.00514   0.00437
 4 120   79904.4    125.1   0.000000000   0.00001   0.00127   0.00155   0.00115
 4 121   79912.2    125.1   0.000000000   0.00004   0.00568   0.00234   0.00211
 4 122   80330.4    124.5   0.000000000   0.00005   0.00325   0.00210   0.00559
 4 123   80333.9    124.5   0.000000000   0.00021   0.00224   0.00993   0.01022
 4 124   80344.1    124.5   0.000000000   0.00002   0.00081   0.00315   0.00242
 4 125   80358.3    124.4   0.000000000   0.00001   0.00155   0.00304   0.00176
 4 126   80359.3    124.4   0.000000000   0.00009   0.00119   0.00651   0.00686
 4 127   80804.4    123.8   0.000000000   0.00187   0.00163   0.03471   0.02564
 4 128   80814.7    123.7   0.000000001   0.00324   0.01074   0.03831   0.04070
 4 129   80819.7    123.7   0.000000001   0.00387   0.00604   0.04697   0.04040
 4 130   81067.4    123.4   0.000000001   0.00740   0.05252   0.05576   0.03913
 4 131   81073.9    123.3   0.000000000   0.00007   0.00008   0.00774   0.00241
 4 132   81079.4    123.3   0.000000001   0.00327   0.03747   0.02934   0.03168
 4 133   81164.3    123.2   0.000000000   0.00032   0.00148   0.01369   0.01160
 4 134   81170.7    123.2   0.000000000   0.00002   0.00049   0.00416   0.00147
 4 135   81174.3    123.2   0.000000000   0.00017   0.00292   0.00801   0.00995
 4 136   81777.7    122.3   0.000000000   0.00076   0.02274   0.01194   0.00976
 4 137   81781.6    122.3   0.000000001   0.00302   0.04623   0.02454   0.01680
 4 138   81784.3    122.3   0.000000005   0.02487   0.12883   0.07521   0.05111
 4 139   83223.4    120.2   0.000000000   0.00000   0.00050   0.00024   0.00074
 4 140   83223.5    120.2   0.000000000   0.00000   0.00013   0.00026   0.00031
 4 141   83223.5    120.2   0.000000000   0.00003   0.00178   0.00316   0.00427
 4 142   84637.2    118.2   0.000000000   0.00034   0.00426   0.01109   0.01394
 4 143   84638.1    118.2   0.000000000   0.00000   0.00118   0.00036   0.00086
 4 144   84639.8    118.1   0.000000000   0.00000   0.00015   0.00043   0.00024
 4 145   85505.0    117.0   0.000000000   0.00022   0.00369   0.01409   0.00240
 4 146   85505.6    117.0   0.000000000   0.00000   0.00077   0.00021   0.00058
 4 147   85507.0    116.9   0.000000000   0.00001   0.00036   0.00228   0.00018
 4 148   87639.5    114.1   0.000000000   0.00001   0.00192   0.00142   0.00094
 4 149   87640.4    114.1   0.000000000   0.00050   0.00348   0.01626   0.01489
 4 150   87640.9    114.1   0.000000000   0.00008   0.00170   0.00623   0.00631
 4 151  287219.3     34.8   0.000000088   0.13423   0.26782   0.20285   0.14613
 4 152  287219.5     34.8   0.000000000   0.00020   0.01030   0.00770   0.00550
 4 153  287219.5     34.8   0.000000001   0.00076   0.02017   0.01531   0.01109
 4 154  358116.1     27.9   0.000000000   0.00002   0.00201   0.00170   0.00334
 4 155  358116.1     27.9   0.000000000   0.00005   0.00309   0.00349   0.00575
 4 156  358116.3     27.9   0.000000001   0.00160   0.01672   0.01879   0.03104
 4 157  502511.2     19.9   0.000000179   0.15569   0.27216   0.22752   0.17279
 4 158  502511.2     19.9   0.000000000   0.00000   0.00118   0.00099   0.00076
 4 159  502511.3     19.9   0.000000009   0.00792   0.06125   0.05141   0.03912

------------------------------------------------------------------------------
                           SOC CORRECTED DIPOLE MOMENTS
------------------------------------------------------------------------------
      TX        TY        TZ           |T|
   (Debye)   (Debye)   (Debye)      (Debye)
------------------------------------------------------------------------------
 -69.49283 -41.35351 -26.88189     85.21738

--------------
CASSCF TIMINGS
--------------

Total time                       ...     7442.3 sec
Sum of individual times          ...     7449.8 sec (100.1%)

Calculation of AO operators
   F(Core) operator              ...       43.4 sec (  0.6%)
   G(Act) operator               ...       41.7 sec (  0.6%)
   J(AO) operators               ...        0.0 sec (  0.0%)
Calculation of MO transformed quantities
   J(MO) operators               ...        5.6 sec (  0.1%)
   (pq|rs) integrals             ...        0.0 sec (  0.0%)
   AO->MO one electron integrals ...        0.2 sec (  0.0%)
Configuration interaction steps
   CI-setup phase                ...        0.0 sec (  0.0%)
   CI-solution phase             ...        0.1 sec (  0.0%)
   Generation of densities       ...        0.0 sec (  0.0%)
Orbital improvement steps
   Orbital gradient              ...        0.0 sec (  0.0%)
PT2 
   NEVPT2 time                   ...     7323.1 sec ( 98.4%)
Properties                       ...       18.6 sec (  0.2%)
   SOC integral calculation      ...       17.1 sec (  0.2%)
   SSC RMEs (incl. integrals)    ...        0.0 sec (  0.0%)
   SOC RMEs                      ...        0.1 sec (  0.0%)

Maximum memory used throughout the entire CASSCF-calculation: 2350.8 MB

-------------------------   --------------------
FINAL SINGLE POINT ENERGY     -3208.207983381527
-------------------------   --------------------


                            ***************************************
                            *     ORCA property calculations      *
                            ***************************************

                                    ---------------------
                                    Active property flags
                                    ---------------------
   (+) Dipole Moment


------------------------------------------------------------------------------
                       ORCA ELECTRIC PROPERTIES CALCULATION
------------------------------------------------------------------------------

Dipole Moment Calculation                       ... on
Quadrupole Moment Calculation                   ... off
Polarizability Calculation                      ... off
GBWName                                         ... nevpt2.gbw
Electron density                                ... nevpt2.scfp
The origin for moment calculation is the CENTER OF MASS  = (14.170086, 15.008923 13.930952)

-------------
DIPOLE MOMENT
-------------
                                X             Y             Z
Electronic contribution:     27.01961      16.19070      10.57158
Nuclear contribution   :    -27.34003     -16.26939     -10.57593
                        -----------------------------------------
Total Dipole Moment    :     -0.32042      -0.07869      -0.00436
                        -----------------------------------------
Magnitude (a.u.)       :      0.32997
Magnitude (Debye)      :      0.83870



--------------------
Rotational spectrum 
--------------------
 
Rotational constants in cm-1:     0.001106     0.000719     0.000694 
Rotational constants in MHz :    33.147803    21.553682    20.807187 

 Dipole components along the rotational axes: 
x,y,z [a.u.] :     0.298946    -0.001774    -0.139662 
x,y,z [Debye]:     0.759860    -0.004509    -0.354991 

 

Timings for individual modules:

Sum of individual times         ...     7464.054 sec (= 124.401 min)
GTO integral calculation        ...       13.167 sec (=   0.219 min)   0.2 %
SCF iterations                  ...        5.563 sec (=   0.093 min)   0.1 %
CASSCF iterations               ...     7445.325 sec (= 124.089 min)  99.7 %
                             ****ORCA TERMINATED NORMALLY****
TOTAL RUN TIME: 0 days 2 hours 4 minutes 24 seconds 924 msec
