
                                 *****************
                                 * O   R   C   A *
                                 *****************

                                            #,                                       
                                            ###                                      
                                            ####                                     
                                            #####                                    
                                            ######                                   
                                           ########,                                 
                                     ,,################,,,,,                         
                               ,,#################################,,                 
                          ,,##########################################,,             
                       ,#########################################, ''#####,          
                    ,#############################################,,   '####,        
                  ,##################################################,,,,####,       
                ,###########''''           ''''###############################       
              ,#####''   ,,,,##########,,,,          '''####'''          '####       
            ,##' ,,,,###########################,,,                        '##       
           ' ,,###''''                  '''############,,,                           
         ,,##''                                '''############,,,,        ,,,,,,###''
      ,#''                                            '''#######################'''  
     '                                                          ''''####''''         
             ,#######,   #######,   ,#######,      ##                                
            ,#'     '#,  ##    ##  ,#'     '#,    #''#        ######   ,####,        
            ##       ##  ##   ,#'  ##            #'  '#       #        #'  '#        
            ##       ##  #######   ##           ,######,      #####,   #    #        
            '#,     ,#'  ##    ##  '#,     ,#' ,#      #,         ##   #,  ,#        
             '#######'   ##     ##  '#######'  #'      '#     #####' # '####'        



                  #######################################################
                  #                        -***-                        #
                  #          Department of theory and spectroscopy      #
                  #    Directorship and core code : Frank Neese         #
                  #        Max Planck Institute fuer Kohlenforschung    #
                  #                Kaiser Wilhelm Platz 1               #
                  #                 D-45470 Muelheim/Ruhr               #
                  #                      Germany                        #
                  #                                                     #
                  #                  All rights reserved                #
                  #                        -***-                        #
                  #######################################################


                         Program Version 5.0.3 -  RELEASE  -


 With contributions from (in alphabetic order):
   Daniel Aravena         : Magnetic Suceptibility
   Michael Atanasov       : Ab Initio Ligand Field Theory (pilot matlab implementation)
   Alexander A. Auer      : GIAO ZORA, VPT2 properties, NMR spectrum
   Ute Becker             : Parallelization
   Giovanni Bistoni       : ED, misc. LED, open-shell LED, HFLD
   Martin Brehm           : Molecular dynamics
   Dmytro Bykov           : SCF Hessian
   Vijay G. Chilkuri      : MRCI spin determinant printing, contributions to CSF-ICE
   Dipayan Datta          : RHF DLPNO-CCSD density
   Achintya Kumar Dutta   : EOM-CC, STEOM-CC
   Dmitry Ganyushin       : Spin-Orbit,Spin-Spin,Magnetic field MRCI
   Miquel Garcia          : C-PCM and meta-GGA Hessian, CC/C-PCM, Gaussian charge scheme
   Yang Guo               : DLPNO-NEVPT2, F12-NEVPT2, CIM, IAO-localization
   Andreas Hansen         : Spin unrestricted coupled pair/coupled cluster methods
   Benjamin Helmich-Paris : MC-RPA, TRAH-SCF, COSX integrals
   Lee Huntington         : MR-EOM, pCC
   Robert Izsak           : Overlap fitted RIJCOSX, COSX-SCS-MP3, EOM
   Marcus Kettner         : VPT2
   Christian Kollmar      : KDIIS, OOCD, Brueckner-CCSD(T), CCSD density, CASPT2, CASPT2-K
   Simone Kossmann        : Meta GGA functionals, TD-DFT gradient, OOMP2, MP2 Hessian
   Martin Krupicka        : Initial AUTO-CI
   Lucas Lang             : DCDCAS
   Marvin Lechner         : AUTO-CI (C++ implementation), FIC-MRCC
   Dagmar Lenk            : GEPOL surface, SMD
   Dimitrios Liakos       : Extrapolation schemes; Compound Job, initial MDCI parallelization
   Dimitrios Manganas     : Further ROCIS development; embedding schemes
   Dimitrios Pantazis     : SARC Basis sets
   Anastasios Papadopoulos: AUTO-CI, single reference methods and gradients
   Taras Petrenko         : DFT Hessian,TD-DFT gradient, ASA, ECA, R-Raman, ABS, FL, XAS/XES, NRVS
   Peter Pinski           : DLPNO-MP2, DLPNO-MP2 Gradient
   Christoph Reimann      : Effective Core Potentials
   Marius Retegan         : Local ZFS, SOC
   Christoph Riplinger    : Optimizer, TS searches, QM/MM, DLPNO-CCSD(T), (RO)-DLPNO pert. Triples
   Tobias Risthaus        : Range-separated hybrids, TD-DFT gradient, RPA, STAB
   Michael Roemelt        : Original ROCIS implementation
   Masaaki Saitow         : Open-shell DLPNO-CCSD energy and density
   Barbara Sandhoefer     : DKH picture change effects
   Avijit Sen             : IP-ROCIS
   Kantharuban Sivalingam : CASSCF convergence, NEVPT2, FIC-MRCI
   Bernardo de Souza      : ESD, SOC TD-DFT
   Georgi Stoychev        : AutoAux, RI-MP2 NMR, DLPNO-MP2 response
   Willem Van den Heuvel  : Paramagnetic NMR
   Boris Wezisla          : Elementary symmetry handling
   Frank Wennmohs         : Technical directorship


 We gratefully acknowledge several colleagues who have allowed us to
 interface, adapt or use parts of their codes:
   Stefan Grimme, W. Hujo, H. Kruse, P. Pracht,  : VdW corrections, initial TS optimization,
                  C. Bannwarth, S. Ehlert          DFT functionals, gCP, sTDA/sTD-DF
   Ed Valeev, F. Pavosevic, A. Kumar             : LibInt (2-el integral package), F12 methods
   Garnet Chan, S. Sharma, J. Yang, R. Olivares  : DMRG
   Ulf Ekstrom                                   : XCFun DFT Library
   Mihaly Kallay                                 : mrcc  (arbitrary order and MRCC methods)
   Jiri Pittner, Ondrej Demel                    : Mk-CCSD
   Frank Weinhold                                : gennbo (NPA and NBO analysis)
   Christopher J. Cramer and Donald G. Truhlar   : smd solvation model
   Lars Goerigk                                  : TD-DFT with DH, B97 family of functionals
   V. Asgeirsson, H. Jonsson                     : NEB implementation
   FAccTs GmbH                                   : IRC, NEB, NEB-TS, DLPNO-Multilevel, CI-OPT
                                                   MM, QMMM, 2- and 3-layer-ONIOM, Crystal-QMMM,
                                                   LR-CPCM, SF, NACMEs, symmetry and pop. for TD-DFT,
                                                   nearIR, NL-DFT gradient (VV10), updates on ESD,
                                                   ML-optimized integration grids
   S Lehtola, MJT Oliveira, MAL Marques          : LibXC Library
   Liviu Ungur et al                             : ANISO software


 Your calculation uses the libint2 library for the computation of 2-el integrals
 For citations please refer to: http://libint.valeyev.net

 Your ORCA version has been built with support for libXC version: 5.1.0
 For citations please refer to: https://tddft.org/programs/libxc/

 This ORCA versions uses:
   CBLAS   interface :  Fast vector & matrix operations
   LAPACKE interface :  Fast linear algebra routines
   SCALAPACK package :  Parallel linear algebra routines
   Shared memory     :  Shared parallel matrices
   BLAS/LAPACK       :  OpenBLAS 0.3.15  USE64BITINT DYNAMIC_ARCH NO_AFFINITY Haswell SINGLE_THREADED
        Core in use  :  Haswell
   Copyright (c) 2011-2014, The OpenBLAS Project




***************************************
The coordinates will be read from file: 8.xyz
***************************************


================================================================================

cite the ECPs for Au [Def2-ECP] as follows:
Ce-Yb(ecp-28): M. Dolg, H. Stoll, H.Preuss, J. Chem. Phys., 1989, 90, 1730-1734.
Y-Cd(ecp-28), Hf-Hg(ecp-46): D. Andrae,U. Haeussermann, M. Dolg, H. Stoll, H. Preuss, Theor. Chim. Acta, 1990, 77, 123-141.
In-Sb(ecp-28), Tl-Bi(ecp-46): B. Metz, H. Stoll, M. Dolg, J. Chem. Phys., 2000, 113, 2563-2569.
Te-Xe(ecp-28), Po-Rn(ecp-46): K. A. Peterson, D. Figgen, E. Goll, H. Stoll, M. Dolg, J. Chem. Phys., 2003, 119, 11113-11123.
Rb(ecp-28), Cs(ecp-46): T. Leininger, A. Nicklass, W. Kuechle, H. Stoll, M. Dolg, A. Bergner, Chem. Phys. Lett., 1996, 255, 274-280.
Sr(ecp-28), Ba(ecp-46): M. Kaupp, P. V. Schleyer, H. Stoll and H. Preuss, J. Chem. Phys., 1991, 94, 1360-1366.
La(ecp-46): M. Dolg, H. Stoll, A. Savin, H. Preuss, Theor. Chim. Acta, 1989, 75, 173-194.
Lu(ecp-28): X. Cao, M. Dolg, J. Chem. Phys., 2001, 115, 7348-7355.

ECP parameters for Au [Def2-ECP] have been obtained from:
TURBOMOLE (7.0.2)

----- Orbital basis set information -----
Your calculation utilizes the basis: def2-TZVP
   F. Weigend and R. Ahlrichs, Phys. Chem. Chem. Phys. 7, 3297 (2005).

----- AuxJ basis set information -----
Your calculation utilizes the auxiliary basis: def2/J
   F. Weigend, Phys. Chem. Chem. Phys. 8, 1057 (2006).

================================================================================
                                        WARNINGS
                       Please study these warnings very carefully!
================================================================================


WARNING: your system is open-shell and RHF/RKS was chosen
  ===> : WILL SWITCH to UHF/UKS


WARNING: Geometry Optimization
  ===> : Switching off AutoStart
         For restart on a previous wavefunction, please use MOREAD

INFO   : the flag for use of the SHARK integral package has been found!

================================================================================
                                       INPUT FILE
================================================================================
NAME = pbe.inp
|  1> %pal nprocs 1 end 
|  2> 
|  3> !PBE def2-TZVP OPT UNO
|  4> !SLOWCONV
|  5> 
|  6> *xyzfile 0 4 8.xyz                           ****END OF INPUT****
================================================================================

                       *****************************
                       * Geometry Optimization Run *
                       *****************************

Geometry optimization settings:
Update method            Update   .... BFGS
Choice of coordinates    CoordSys .... Z-matrix Internals
Initial Hessian          InHess   .... Almoef's Model

Convergence Tolerances:
Energy Change            TolE     ....  5.0000e-06 Eh
Max. Gradient            TolMAXG  ....  3.0000e-04 Eh/bohr
RMS Gradient             TolRMSG  ....  1.0000e-04 Eh/bohr
Max. Displacement        TolMAXD  ....  4.0000e-03 bohr
RMS Displacement         TolRMSD  ....  2.0000e-03 bohr
Strict Convergence                ....  False
------------------------------------------------------------------------------
                        ORCA OPTIMIZATION COORDINATE SETUP
------------------------------------------------------------------------------

The optimization will be done in new redundant internal coordinates
Making redundant internal coordinates   ...  (new redundants) done
Evaluating the initial hessian          ...  (Almloef) done
Evaluating the coordinates              ...  done
Calculating the B-matrix                .... done
Calculating the G-matrix                .... done
Diagonalizing the G-matrix              .... done
The first mode is                       ....  716
The number of degrees of freedom        ....   42

    -----------------------------------------------------------------
                    Redundant Internal Coordinates


    -----------------------------------------------------------------
         Definition                    Initial Value    Approx d2E/dq
    -----------------------------------------------------------------
      1. B(Au  3,Au  2)                  2.8184         0.006369   
      2. B(Au  3,Au  1)                  2.8378         0.005930   
      3. B(Au  3,Au  0)                  2.8022         0.006758   
      4. B(Au  5,Au  4)                  2.8180         0.006378   
      5. B(Au  5,Au  1)                  2.8370         0.005948   
      6. B(Au  5,Au  0)                  2.8020         0.006763   
      7. B(Au  7,Au  0)                  2.9572         0.003825   
      8. B(Au  8,Au  7)                  2.8412         0.005857   
      9. B(Au  9,Au  7)                  2.8408         0.005865   
     10. B(Au  9,Au  8)                  2.8346         0.006001   
     11. B(Au 10,Au  3)                  2.8981         0.004751   
     12. B(Au 10,Au  8)                  2.8091         0.006589   
     13. B(Au 11,Au  9)                  2.8090         0.006591   
     14. B(Au 11,Au  5)                  2.8980         0.004753   
     15. B(Au 12,Au  9)                  2.8407         0.005866   
     16. B(Au 12,Au  8)                  2.8405         0.005871   
     17. B(Au 13,Au  5)                  2.7767         0.007423   
     18. B(Au 13,Au  0)                  2.8225         0.006272   
     19. B(Au 13,Au  7)                  2.8031         0.006737   
     20. B(Au 13,Au  9)                  2.8550         0.005567   
     21. B(Au 13,Au 11)                  2.9720         0.003622   
     22. B(Au 14,Au  7)                  2.8033         0.006732   
     23. B(Au 14,Au 10)                  2.9719         0.003623   
     24. B(Au 14,Au  3)                  2.7759         0.007444   
     25. B(Au 14,Au  0)                  2.8229         0.006263   
     26. B(Au 14,Au  8)                  2.8551         0.005565   
     27. B(Fe 15,Au 11)                  2.6813         0.076611   
     28. B(Fe 15,Au  5)                  3.0654         0.018683   
     29. B(Fe 15,Au 10)                  2.6797         0.077066   
     30. B(Fe 15,Au  2)                  2.5930         0.105961   
     31. B(Fe 15,Au  3)                  3.0667         0.018597   
     32. B(Fe 15,Au  6)                  2.5649         0.117476   
     33. B(Fe 15,Au 12)                  2.7083         0.069360   
     34. B(Fe 15,Au  4)                  2.5918         0.106446   
     35. B(Fe 15,Au  1)                  2.5674         0.116410   
     36. B(Fe 15,Au  0)                  2.8411         0.042595   
     37. A(Au 13,Au  0,Fe 15)           89.4456         0.170896   
     38. A(Au  5,Au  0,Fe 15)           65.8016         0.172304   
     39. A(Au 13,Au  0,Au 14)          114.1651         0.136317   
     40. A(Au 14,Au  0,Fe 15)           89.4316         0.170868   
     41. A(Au  3,Au  0,Au  5)          113.9740         0.137966   
     42. A(Au  5,Au  0,Au 13)           59.1629         0.137147   
     43. A(Au  3,Au  0,Au  7)          115.7044         0.132039   
     44. A(Au  3,Au  0,Au 14)           59.1382         0.137122   
     45. A(Au  7,Au  0,Au 13)           57.9673         0.131319   
     46. A(Au  3,Au  0,Au 13)          153.5332         0.137138   
     47. A(Au  7,Au  0,Au 14)           57.9672         0.131305   
     48. A(Au  7,Au  0,Fe 15)          101.5373         0.162221   
     49. A(Au  5,Au  0,Au 14)          153.4989         0.137131   
     50. A(Au  3,Au  0,Fe 15)           65.8291         0.172289   
     51. A(Au  5,Au  0,Au  7)          115.7199         0.132047   
     52. A(Au  5,Au  1,Fe 15)           68.9043         0.190594   
     53. A(Au  3,Au  1,Fe 15)           68.9231         0.190523   
     54. A(Au  3,Au  1,Au  5)          111.8125         0.135176   
     55. A(Au  3,Au  2,Fe 15)           68.8973         0.190004   
     56. A(Au  0,Au  3,Au 14)           60.8025         0.139040   
     57. A(Au  0,Au  3,Fe 15)           57.6948         0.158044   
     58. A(Au  1,Au  3,Au  2)           62.1419         0.135896   
     59. A(Au  1,Au  3,Au 14)          124.3345         0.137581   
     60. A(Au  0,Au  3,Au  1)           65.9835         0.136530   
     61. A(Au 10,Au  3,Fe 15)           53.2998         0.152752   
     62. A(Au  0,Au  3,Au  2)          108.5406         0.137304   
     63. A(Au 10,Au  3,Au 14)           63.1275         0.135205   
     64. A(Au  2,Au  3,Au 10)           59.4557         0.133602   
     65. A(Au  1,Au  3,Au 10)          102.2937         0.132887   
     66. A(Au 14,Au  3,Fe 15)           85.8615         0.159571   
     67. A(Au  0,Au  3,Au 10)           89.3560         0.134205   
     68. A(Au  1,Au  3,Fe 15)           51.3692         0.156031   
     69. A(Au  2,Au  3,Au 14)          121.6814         0.138373   
     70. A(Au  2,Au  3,Fe 15)           52.0770         0.157123   
     71. A(Au  5,Au  4,Fe 15)           68.8877         0.190142   
     72. A(Au 11,Au  5,Au 13)           63.1235         0.135181   
     73. A(Au 13,Au  5,Fe 15)           85.8784         0.159601   
     74. A(Au  4,Au  5,Au 13)          121.6803         0.138358   
     75. A(Au  1,Au  5,Au 13)          124.3438         0.137585   
     76. A(Au  0,Au  5,Au 13)           60.7866         0.139018   
     77. A(Au  0,Au  5,Au  4)          108.5548         0.137329   
     78. A(Au 11,Au  5,Fe 15)           53.3491         0.152825   
     79. A(Au  4,Au  5,Fe 15)           52.0671         0.157217   
     80. A(Au  1,Au  5,Fe 15)           51.3895         0.156148   
     81. A(Au  0,Au  5,Fe 15)           57.7123         0.158128   
     82. A(Au  1,Au  5,Au  4)           62.1764         0.135945   
     83. A(Au  0,Au  5,Au 11)           89.3842         0.134218   
     84. A(Au  1,Au  5,Au 11)          102.3676         0.132922   
     85. A(Au  4,Au  5,Au 11)           59.4656         0.133621   
     86. A(Au  0,Au  5,Au  1)           65.9977         0.136572   
     87. A(Au 13,Au  7,Au 14)          115.4102         0.137880   
     88. A(Au  0,Au  7,Au 14)           58.6155         0.132002   
     89. A(Au  0,Au  7,Au 13)           58.6080         0.132009   
     90. A(Au  9,Au  7,Au 14)          110.8033         0.136371   
     91. A(Au  8,Au  7,Au  9)           59.8509         0.134902   
     92. A(Au  8,Au  7,Au 13)          110.7951         0.136364   
     93. A(Au  9,Au  7,Au 13)           60.7727         0.136378   
     94. A(Au  0,Au  7,Au  9)           93.9973         0.130681   
     95. A(Au  8,Au  7,Au 14)           60.7683         0.136357   
     96. A(Au  0,Au  7,Au  8)           93.9905         0.130669   
     97. A(Au 10,Au  8,Au 12)           60.5470         0.136152   
     98. A(Au  7,Au  8,Au  9)           60.0683         0.135140   
     99. A(Au  7,Au  8,Au 12)          107.3860         0.134912   
    100. A(Au  9,Au  8,Au 12)           60.0742         0.135165   
    101. A(Au  9,Au  8,Au 10)          109.9271         0.136386   
    102. A(Au  7,Au  8,Au 14)           58.9598         0.134359   
    103. A(Au  7,Au  8,Au 10)          109.1095         0.136128   
    104. A(Au 10,Au  8,Au 14)           63.2871         0.135584   
    105. A(Au  9,Au  8,Au 14)          109.4836         0.134608   
    106. A(Au 12,Au  8,Au 14)          110.8595         0.134383   
    107. A(Au 11,Au  9,Au 12)           60.5349         0.136147   
    108. A(Au  7,Au  9,Au 12)          107.3900         0.134918   
    109. A(Au  7,Au  9,Au 11)          109.1262         0.136144   
    110. A(Au 12,Au  9,Au 13)          110.8427         0.134378   
    111. A(Au  8,Au  9,Au 13)          109.4832         0.134611   
    112. A(Au  8,Au  9,Au 12)           60.0668         0.135156   
    113. A(Au  8,Au  9,Au 11)          109.9222         0.136389   
    114. A(Au  7,Au  9,Au  8)           60.0808         0.135154   
    115. A(Au 11,Au  9,Au 13)           63.2921         0.135590   
    116. A(Au  7,Au  9,Au 13)           58.9607         0.134376   
    117. A(Au  3,Au 10,Au 14)           56.4282         0.128257   
    118. A(Au 14,Au 10,Fe 15)           89.5277         0.171719   
    119. A(Au  8,Au 10,Au 14)           59.1115         0.131273   
    120. A(Au  3,Au 10,Au  8)          111.7226         0.133947   
    121. A(Au  8,Au 10,Fe 15)           93.4493         0.183708   
    122. A(Au  3,Au 10,Fe 15)           66.5726         0.176951   
    123. A(Au  5,Au 11,Au  9)          111.7243         0.133954   
    124. A(Au  9,Au 11,Au 13)           59.1086         0.131271   
    125. A(Au  9,Au 11,Fe 15)           93.4346         0.183586   
    126. A(Au  5,Au 11,Au 13)           56.4446         0.128257   
    127. A(Au 13,Au 11,Fe 15)           89.5001         0.171599   
    128. A(Au  5,Au 11,Fe 15)           66.5238         0.176842   
    129. A(Au  9,Au 12,Fe 15)           92.1509         0.179076   
    130. A(Au  8,Au 12,Au  9)           59.8590         0.134929   
    131. A(Au  8,Au 12,Fe 15)           92.1372         0.179092   
    132. A(Au  5,Au 13,Au  9)          114.0227         0.136861   
    133. A(Au  0,Au 13,Au  9)           96.6575         0.135071   
    134. A(Au  5,Au 13,Au 11)           60.4319         0.132425   
    135. A(Au  0,Au 13,Au 11)           87.5255         0.130800   
    136. A(Au  0,Au 13,Au  5)           60.0505         0.138172   
    137. A(Au  7,Au 13,Au 11)          105.6689         0.131481   
    138. A(Au  5,Au 13,Au  7)          121.8778         0.138973   
    139. A(Au  0,Au 13,Au  7)           63.4247         0.137104   
    140. A(Au  9,Au 13,Au 11)           57.5993         0.129686   
    141. A(Au  7,Au 13,Au  9)           60.2667         0.135821   
    142. A(Au  7,Au 14,Au 10)          105.6634         0.131479   
    143. A(Au  3,Au 14,Au  7)          121.8890         0.138997   
    144. A(Au  0,Au 14,Au  7)           63.4173         0.137081   
    145. A(Au  3,Au 14,Au 10)           60.4443         0.132456   
    146. A(Au  0,Au 14,Au 10)           87.4998         0.130790   
    147. A(Au  0,Au 14,Au  3)           60.0593         0.138186   
    148. A(Au  0,Au 14,Au  8)           96.6470         0.135052   
    149. A(Au  7,Au 14,Au  8)           60.2719         0.135811   
    150. A(Au  8,Au 14,Au 10)           57.6015         0.129687   
    151. A(Au  3,Au 14,Au  8)          114.0476         0.136888   
    152. A(Au  0,Fe 15,Au 11)           93.0631         0.250831   
    153. A(Au  6,Fe 15,Au 10)           86.0025         0.292876   
    154. A(Au  1,Fe 15,Au  6)          112.8938         0.312825   
    155. A(Au 11,Fe 15,Au 12)           63.7909         0.269712   
    156. A(Au  4,Fe 15,Au 10)          151.3941         0.288376   
    157. A(Au 10,Fe 15,Au 12)           63.8230         0.269955   
    158. A(Au  6,Fe 15,Au 12)           63.5632         0.288072   
    159. A(Au  2,Fe 15,Au 10)           65.0413         0.288170   
    160. A(Au  2,Fe 15,Au  4)           94.4098         0.303275   
    161. A(Au  1,Fe 15,Au  2)           68.8987         0.307659   
    162. A(Au  4,Fe 15,Au 12)          108.8365         0.283678   
    163. A(Au  5,Fe 15,Au 12)          121.8619         0.220304   
    164. A(Au  2,Fe 15,Au 12)          108.8984         0.283477   
    165. A(Au  1,Fe 15,Au 10)          116.7001         0.292455   
    166. A(Au  5,Fe 15,Au 11)           60.1271         0.223292   
    167. A(Au  5,Fe 15,Au 10)          149.2982         0.223472   
    168. A(Au  0,Fe 15,Au 12)          114.5543         0.247230   
    169. A(Au  3,Fe 15,Au  5)          100.0569         0.186473   
    170. A(Au  5,Fe 15,Au  6)          124.2957         0.236935   
    171. A(Au  3,Fe 15,Au 12)          121.8846         0.220167   
    172. A(Au  3,Fe 15,Au 11)          149.2748         0.223152   
    173. A(Au  4,Fe 15,Au  5)           59.0451         0.233670   
    174. A(Au 10,Fe 15,Au 11)          124.7190         0.274073   
    175. A(Au  0,Fe 15,Au 10)           93.0747         0.251048   
    176. A(Au  1,Fe 15,Au  4)           68.9397         0.307885   
    177. A(Au  3,Fe 15,Au 10)           60.1276         0.223332   
    178. A(Au  3,Fe 15,Au  6)          124.1894         0.236781   
    179. A(Au  2,Fe 15,Au  5)          127.5827         0.233521   
    180. A(Au  3,Fe 15,Au  4)          127.6236         0.233519   
    181. A(Au  2,Fe 15,Au  3)           59.0257         0.233370   
    182. A(Au  1,Fe 15,Au  5)           59.7062         0.236630   
    183. A(Au  6,Fe 15,Au 11)           86.1251         0.292602   
    184. A(Au  1,Fe 15,Au  3)           59.7077         0.236476   
    185. A(Au  0,Fe 15,Au  3)           56.4761         0.206462   
    186. A(Au  0,Fe 15,Au  5)           56.4861         0.206584   
    187. A(Au  4,Fe 15,Au 11)           65.0389         0.288109   
    188. A(Au  4,Fe 15,Au  6)           67.0133         0.308337   
    189. A(Au  2,Fe 15,Au 11)          151.4352         0.287903   
    190. A(Au  1,Fe 15,Au 11)          116.7076         0.292183   
    191. A(Au  2,Fe 15,Au  6)           66.9501         0.308111   
    192. A(Au  0,Fe 15,Au  4)          114.1642         0.263337   
    193. A(Au  0,Fe 15,Au  2)          114.1281         0.263157   
    194. A(Au  0,Fe 15,Au  1)           68.9887         0.266904   
    195. D(Au 10,Au  3,Au  0,Au  5)    -91.8402         0.001502   
    196. D(Fe 15,Au  3,Au  0,Au 14)    104.8052         0.001502   
    197. D(Fe 15,Au  3,Au  1,Au  5)     55.2687         0.001501   
    198. D(Au  0,Au  3,Au  1,Fe 15)    -66.8664         0.001501   
    199. D(Au  1,Au  3,Au  0,Au 14)    163.0091         0.001502   
    200. D(Au  2,Au  3,Au  0,Au  5)    -34.5121         0.001502   
    201. D(Au 10,Au  3,Au  1,Fe 15)     16.8359         0.001501   
    202. D(Au  1,Au  3,Au  0,Fe 15)     58.2039         0.001502   
    203. D(Au  2,Au  3,Au  0,Au 13)     34.0466         0.001502   
    204. D(Au 14,Au  3,Au  1,Fe 15)    -48.8724         0.001501   
    205. D(Au  1,Au  3,Au  0,Au 13)     80.4945         0.001502   
    206. D(Au  2,Au  3,Au  0,Fe 15)     11.7560         0.001502   
    207. D(Fe 15,Au  3,Au  0,Au 13)     22.2906         0.001502   
    208. D(Au  2,Au  3,Au  0,Au 14)    116.5611         0.001502   
    209. D(Au 10,Au  3,Au  1,Au  5)     72.1046         0.001501   
    210. D(Au  0,Au  3,Au  2,Fe 15)    -12.6095         0.001501   
    211. D(Au 14,Au  3,Au  2,Fe 15)     53.9598         0.001501   
    212. D(Fe 15,Au  3,Au  0,Au  7)     91.5623         0.001502   
    213. D(Au 10,Au  3,Au  0,Au 13)    -23.2815         0.001502   
    214. D(Au  2,Au  3,Au  1,Fe 15)     62.1281         0.001501   
    215. D(Au  1,Au  3,Au  2,Fe 15)    -61.0947         0.001501   
    216. D(Au 14,Au  3,Au  0,Au  7)    -13.2429         0.001502   
    217. D(Au 10,Au  3,Au  0,Au  7)     45.9902         0.001502   
    218. D(Au 14,Au  3,Au  0,Au  5)   -151.0732         0.001502   
    219. D(Au  1,Au  3,Au  0,Au  7)    149.7662         0.001502   
    220. D(Au 14,Au  3,Au  0,Fe 15)   -104.8052         0.001502   
    221. D(Au  2,Au  3,Au  0,Au  7)    103.3182         0.001502   
    222. D(Au  2,Au  3,Au  1,Au  5)    117.3969         0.001501   
    223. D(Au  0,Au  3,Au  1,Au  5)    -11.5977         0.001501   
    224. D(Au 10,Au  3,Au  0,Au 14)     59.2331         0.001502   
    225. D(Au 10,Au  3,Au  0,Fe 15)    -45.5721         0.001502   
    226. D(Au  1,Au  3,Au  0,Au  5)     11.9359         0.001502   
    227. D(Fe 15,Au  3,Au  0,Au  5)    -46.2681         0.001502   
    228. D(Au 14,Au  3,Au  1,Au  5)      6.3963         0.001501   
    229. D(Au 14,Au  3,Au  0,Au 13)    -82.5145         0.001502   
    230. D(Au 10,Au  3,Au  2,Fe 15)     65.1703         0.001501   
    231. D(Au  4,Au  5,Au  1,Au  3)   -117.3695         0.001501   
    232. D(Au 11,Au  5,Au  0,Au  7)    -45.9190         0.001502   
    233. D(Fe 15,Au  5,Au  0,Au  3)     46.2810         0.001502   
    234. D(Au  4,Au  5,Au  0,Au  7)   -103.2659         0.001502   
    235. D(Au 13,Au  5,Au  1,Fe 15)     48.9243         0.001501   
    236. D(Fe 15,Au  5,Au  0,Au  7)    -91.5426         0.001502   
    237. D(Au 11,Au  5,Au  0,Au  3)     91.9045         0.001502   
    238. D(Fe 15,Au  5,Au  0,Au 13)   -104.8286         0.001502   
    239. D(Fe 15,Au  5,Au  0,Au 14)    -22.2323         0.001502   
    240. D(Au 13,Au  5,Au  0,Fe 15)    104.8286         0.001502   
    241. D(Au 11,Au  5,Au  0,Au 14)     23.3913         0.001502   
    242. D(Au 11,Au  5,Au  0,Au 13)    -59.2050         0.001502   
    243. D(Au 11,Au  5,Au  0,Fe 15)     45.6236         0.001502   
    244. D(Au 13,Au  5,Au  0,Au 14)     82.5963         0.001502   
    245. D(Au  0,Au  5,Au  1,Au  3)     11.5973         0.001501   
    246. D(Au  1,Au  5,Au  0,Fe 15)    -58.2191         0.001502   
    247. D(Au  0,Au  5,Au  4,Fe 15)     12.5786         0.001501   
    248. D(Fe 15,Au  5,Au  1,Au  3)    -55.2792         0.001501   
    249. D(Au  4,Au  5,Au  0,Au 14)    -33.9556         0.001502   
    250. D(Au 13,Au  5,Au  0,Au  3)    151.1095         0.001502   
    251. D(Au 13,Au  5,Au  0,Au  7)     13.2860         0.001502   
    252. D(Au  1,Au  5,Au  0,Au  7)   -149.7617         0.001502   
    253. D(Au  0,Au  5,Au  1,Fe 15)     66.8765         0.001501   
    254. D(Au  4,Au  5,Au  0,Au  3)     34.5577         0.001502   
    255. D(Au  1,Au  5,Au  0,Au 14)    -80.4514         0.001502   
    256. D(Au 11,Au  5,Au  4,Fe 15)    -65.2316         0.001501   
    257. D(Au 11,Au  5,Au  1,Au  3)    -72.1057         0.001501   
    258. D(Au  4,Au  5,Au  0,Au 13)   -116.5519         0.001502   
    259. D(Au  4,Au  5,Au  1,Fe 15)    -62.0903         0.001501   
    260. D(Au 13,Au  5,Au  1,Au  3)     -6.3548         0.001501   
    261. D(Au 11,Au  5,Au  1,Fe 15)    -16.8266         0.001501   
    262. D(Au  1,Au  5,Au  4,Fe 15)     61.1017         0.001501   
    263. D(Au  4,Au  5,Au  0,Fe 15)    -11.7233         0.001502   
    264. D(Au  1,Au  5,Au  0,Au 13)   -163.0477         0.001502   
    265. D(Au  1,Au  5,Au  0,Au  3)    -11.9381         0.001502   
    266. D(Au 13,Au  5,Au  4,Fe 15)    -53.9793         0.001501   
    267. D(Au  8,Au  7,Au  0,Au 13)    111.9840         0.001501   
    268. D(Au  8,Au  7,Au  0,Au 14)    -51.9767         0.001501   
    269. D(Au  8,Au  7,Au  0,Au  3)    -38.5641         0.001501   
    270. D(Au  9,Au  7,Au  0,Au 14)   -111.9882         0.001501   
    271. D(Au 13,Au  7,Au  0,Fe 15)    -81.9889         0.001501   
    272. D(Au 13,Au  7,Au  0,Au  5)    -13.4597         0.001501   
    273. D(Au  9,Au  7,Au  0,Au  5)     38.5128         0.001501   
    274. D(Au  9,Au  7,Au  0,Au  3)    -98.5756         0.001501   
    275. D(Au 14,Au  7,Au  0,Au 13)    163.9607         0.001501   
    276. D(Au 13,Au  7,Au  0,Au  3)   -150.5481         0.001501   
    277. D(Au 14,Au  7,Au  0,Au  5)    150.5009         0.001501   
    278. D(Au  8,Au  7,Au  0,Au  5)     98.5243         0.001501   
    279. D(Au 14,Au  7,Au  0,Au  3)     13.4125         0.001501   
    280. D(Au  9,Au  7,Au  0,Fe 15)    -30.0164         0.001501   
    281. D(Au 14,Au  7,Au  0,Fe 15)     81.9718         0.001501   
    282. D(Au 13,Au  7,Au  0,Au 14)   -163.9607         0.001501   
    283. D(Au  8,Au  7,Au  0,Fe 15)     29.9951         0.001501   
    284. D(Au  9,Au  7,Au  0,Au 13)     51.9725         0.001501   
    285. D(Au  9,Au  8,Au  7,Au 14)   -142.7210         0.001501   
    286. D(Au 12,Au  8,Au  7,Au  0)    -53.8911         0.001501   
    287. D(Au 12,Au  8,Au  7,Au 13)      3.9649         0.001501   
    288. D(Au 14,Au  8,Au  7,Au  0)     50.4118         0.001501   
    289. D(Au 14,Au  8,Au  7,Au 13)    108.2678         0.001501   
    290. D(Au 12,Au  8,Au  7,Au  9)     38.4181         0.001501   
    291. D(Au 14,Au  8,Au  7,Au  9)    142.7210         0.001501   
    292. D(Au 12,Au  8,Au  7,Au 14)   -104.3028         0.001501   
    293. D(Au 10,Au  8,Au  7,Au  9)    102.5173         0.001501   
    294. D(Au 10,Au  8,Au  7,Au 14)    -40.2037         0.001501   
    295. D(Au  9,Au  8,Au  7,Au  0)    -92.3092         0.001501   
    296. D(Au 10,Au  8,Au  7,Au  0)     10.2081         0.001501   
    297. D(Au 10,Au  8,Au  7,Au 13)     68.0641         0.001501   
    298. D(Au  9,Au  8,Au  7,Au 13)    -34.4532         0.001501   
    299. D(Au  8,Au  9,Au  7,Au 13)    142.6968         0.001501   
    300. D(Au 12,Au  9,Au  8,Au  7)    136.8246         0.001501   
    301. D(Au 11,Au  9,Au  8,Au  7)    101.1584         0.001501   
    302. D(Au  7,Au  9,Au  8,Au 14)    -33.4004         0.001501   
    303. D(Au 11,Au  9,Au  8,Au 12)    -35.6662         0.001501   
    304. D(Au  7,Au  9,Au  8,Au 12)   -136.8246         0.001501   
    305. D(Au  8,Au  9,Au  7,Au  0)     92.2974         0.001501   
    306. D(Au 13,Au  9,Au  7,Au  0)    -50.3994         0.001501   
    307. D(Au 12,Au  9,Au  7,Au  8)    -38.4157         0.001501   
    308. D(Au 12,Au  9,Au  7,Au 13)    104.2810         0.001501   
    309. D(Au 11,Au  9,Au  7,Au 13)     40.1910         0.001501   
    310. D(Au 11,Au  9,Au  7,Au  0)    -10.2084         0.001501   
    311. D(Au 11,Au  9,Au  7,Au 14)    -68.0739         0.001501   
    312. D(Au 12,Au  9,Au  7,Au  0)     53.8817         0.001501   
    313. D(Au 13,Au  9,Au  7,Au  8)   -142.6968         0.001501   
    314. D(Au 11,Au  9,Au  7,Au  8)   -102.5058         0.001501   
    315. D(Au 13,Au  9,Au  7,Au 14)   -108.2649         0.001501   
    316. D(Au 11,Au  9,Au  8,Au 10)      0.0254         0.001501   
    317. D(Au  8,Au  9,Au  7,Au 14)     34.4318         0.001501   
    318. D(Au 12,Au  9,Au  7,Au 14)     -3.9839         0.001501   
    319. D(Au  7,Au  9,Au  8,Au 10)   -101.1330         0.001501   
    320. D(Au 11,Au  9,Au  8,Au 14)     67.7580         0.001501   
    321. D(Au 13,Au  9,Au  8,Au  7)     33.4217         0.001501   
    322. D(Au 13,Au  9,Au  8,Au 10)    -67.7113         0.001501   
    323. D(Au 13,Au  9,Au  8,Au 12)   -103.4030         0.001501   
    324. D(Au 13,Au  9,Au  8,Au 14)      0.0212         0.001501   
    325. D(Au 12,Au  9,Au  8,Au 10)     35.6916         0.001501   
    326. D(Au 12,Au  9,Au  8,Au 14)    103.4242         0.001501   
    327. D(Au  8,Au 10,Au  3,Au  2)   -147.3851         0.001501   
    328. D(Au 14,Au 10,Au  8,Au 12)    137.8985         0.001502   
    329. D(Au 14,Au 10,Au  8,Au  7)     38.2546         0.001502   
    330. D(Au  3,Au 10,Au  8,Au 14)    -21.2567         0.001502   
    331. D(Au  3,Au 10,Au  8,Au 12)    116.6418         0.001502   
    332. D(Au  3,Au 10,Au  8,Au  7)     16.9979         0.001502   
    333. D(Fe 15,Au 10,Au  8,Au 14)    -87.3818         0.001502   
    334. D(Fe 15,Au 10,Au  8,Au 12)     50.5167         0.001502   
    335. D(Fe 15,Au 10,Au  8,Au  9)     15.0180         0.001502   
    336. D(Fe 15,Au 10,Au  8,Au  7)    -49.1272         0.001502   
    337. D(Au  8,Au 10,Au  3,Au 14)     21.9263         0.001501   
    338. D(Au  8,Au 10,Au  3,Fe 15)    -84.1429         0.001501   
    339. D(Au  8,Au 10,Au  3,Au  1)   -100.5341         0.001501   
    340. D(Au 14,Au 10,Au  3,Au  2)   -169.3114         0.001501   
    341. D(Au 14,Au 10,Au  3,Fe 15)   -106.0692         0.001501   
    342. D(Au 14,Au 10,Au  3,Au  0)    -57.2337         0.001501   
    343. D(Fe 15,Au 10,Au  3,Au  0)     48.8356         0.001501   
    344. D(Au  3,Au 10,Au  8,Au  9)     81.1431         0.001502   
    345. D(Fe 15,Au 10,Au  3,Au 14)    106.0692         0.001501   
    346. D(Au 14,Au 10,Au  3,Au  1)   -122.4604         0.001501   
    347. D(Au 14,Au 10,Au  8,Au  9)    102.3998         0.001502   
    348. D(Fe 15,Au 10,Au  3,Au  2)    -63.2422         0.001501   
    349. D(Au  8,Au 10,Au  3,Au  0)    -35.3073         0.001501   
    350. D(Fe 15,Au 10,Au  3,Au  1)    -16.3912         0.001501   
    351. D(Au 13,Au 11,Au  9,Au  8)   -102.4028         0.001502   
    352. D(Au 13,Au 11,Au  9,Au 12)   -137.8781         0.001502   
    353. D(Au 13,Au 11,Au  9,Au  7)    -38.2412         0.001502   
    354. D(Au  5,Au 11,Au  9,Au  8)    -81.1106         0.001502   
    355. D(Au  5,Au 11,Au  9,Au 13)     21.2921         0.001502   
    356. D(Au  5,Au 11,Au  9,Au  7)    -16.9490         0.001502   
    357. D(Fe 15,Au 11,Au  9,Au 13)     87.3581         0.001502   
    358. D(Au  9,Au 11,Au  5,Fe 15)     84.1030         0.001501   
    359. D(Au 13,Au 11,Au  5,Fe 15)    106.0609         0.001501   
    360. D(Au 13,Au 11,Au  5,Au  0)     57.1970         0.001501   
    361. D(Fe 15,Au 11,Au  5,Au 13)   -106.0609         0.001501   
    362. D(Fe 15,Au 11,Au  5,Au  4)     63.2102         0.001501   
    363. D(Au 13,Au 11,Au  5,Au  1)    122.4370         0.001501   
    364. D(Fe 15,Au 11,Au  5,Au  1)     16.3761         0.001501   
    365. D(Au  9,Au 11,Au  5,Au  0)     35.2391         0.001501   
    366. D(Au 13,Au 11,Au  5,Au  4)    169.2711         0.001501   
    367. D(Au  9,Au 11,Au  5,Au  1)    100.4791         0.001501   
    368. D(Au  5,Au 11,Au  9,Au 12)   -116.5859         0.001502   
    369. D(Fe 15,Au 11,Au  5,Au  0)    -48.8639         0.001501   
    370. D(Au  9,Au 11,Au  5,Au 13)    -21.9579         0.001501   
    371. D(Fe 15,Au 11,Au  9,Au  7)     49.1170         0.001502   
    372. D(Fe 15,Au 11,Au  9,Au 12)    -50.5199         0.001502   
    373. D(Au  9,Au 11,Au  5,Au  4)    147.3132         0.001501   
    374. D(Fe 15,Au 11,Au  9,Au  8)    -15.0447         0.001502   
    375. D(Au  9,Au 12,Au  1,Au  5)    -31.9855         0.001500   
    376. D(Au  9,Au 12,Au  8,Au 14)   -101.0986         0.001501   
    377. D(Au  8,Au 12,Au  9,Au 11)    140.9790         0.001501   
    378. D(Au  8,Au 12,Au  9,Au 13)    101.1047         0.001501   
    379. D(Au  8,Au 12,Au  9,Au  7)     38.4221         0.001501   
    380. D(Fe 15,Au 12,Au  9,Au  8)    -91.2231         0.001501   
    381. D(Fe 15,Au 12,Au  9,Au 13)      9.8815         0.001501   
    382. D(Fe 15,Au 12,Au  9,Au 11)     49.7558         0.001501   
    383. D(Fe 15,Au 12,Au  9,Au  7)    -52.8010         0.001501   
    384. D(Au  9,Au 12,Au  8,Au 10)   -140.9572         0.001501   
    385. D(Au  9,Au 12,Au  8,Au  7)    -38.4155         0.001501   
    386. D(Fe 15,Au 12,Au  8,Au 14)     -9.8516         0.001501   
    387. D(Fe 15,Au 12,Au  8,Au 10)    -49.7103         0.001501   
    388. D(Fe 15,Au 12,Au  8,Au  9)     91.2469         0.001501   
    389. D(Fe 15,Au 12,Au  8,Au  7)     52.8315         0.001501   
    390. D(Au  8,Au 12,Au  1,Au  3)     31.9425         0.001500   
    391. D(Au  8,Au 12,Au  1,Au  5)    -91.9777         0.001500   
    392. D(Au  9,Au 12,Au  1,Au  3)     91.9347         0.001500   
    393. D(Au  0,Au 13,Au  9,Au  8)     20.3106         0.001501   
    394. D(Au  9,Au 13,Au  7,Au  8)     34.0950         0.001502   
    395. D(Au 11,Au 13,Au  7,Au  9)    -36.7640         0.001502   
    396. D(Au  5,Au 13,Au  7,Au  8)    -67.2596         0.001502   
    397. D(Au  5,Au 13,Au  7,Au  9)   -101.3546         0.001502   
    398. D(Au  0,Au 13,Au  7,Au  9)   -115.7849         0.001502   
    399. D(Au  9,Au 13,Au  5,Au  4)     11.1131         0.001502   
    400. D(Au  7,Au 13,Au  5,Au 11)     90.7353         0.001502   
    401. D(Au  7,Au 13,Au  5,Au  0)    -14.9051         0.001502   
    402. D(Au 11,Au 13,Au  5,Fe 15)    -50.6215         0.001502   
    403. D(Au 11,Au 13,Au  5,Au  4)    -10.8607         0.001502   
    404. D(Au  0,Au 13,Au  5,Fe 15)     55.0189         0.001502   
    405. D(Au  0,Au 13,Au  5,Au  4)     94.7797         0.001502   
    406. D(Au  9,Au 13,Au  0,Au  7)    -51.9240         0.001502   
    407. D(Au  9,Au 13,Au  0,Fe 15)     52.0801         0.001502   
    408. D(Au  7,Au 13,Au  0,Au 14)     14.8759         0.001502   
    409. D(Au  7,Au 13,Au  0,Au  3)     83.7572         0.001502   
    410. D(Au  9,Au 13,Au  0,Au  3)     31.8332         0.001502   
    411. D(Au  7,Au 13,Au  0,Au  5)    165.8638         0.001502   
    412. D(Au  7,Au 13,Au  0,Fe 15)    104.0041         0.001502   
    413. D(Au  9,Au 13,Au  0,Au  5)    113.9398         0.001502   
    414. D(Au 11,Au 13,Au  0,Au  7)   -108.8979         0.001502   
    415. D(Au 11,Au 13,Au  0,Au 14)    -94.0220         0.001502   
    416. D(Au  0,Au 13,Au  5,Au  1)     18.8204         0.001502   
    417. D(Au 11,Au 13,Au  0,Au  3)    -25.1407         0.001502   
    418. D(Au 11,Au 13,Au  0,Au  5)     56.9659         0.001502   
    419. D(Au  0,Au 13,Au  5,Au 11)    105.6404         0.001502   
    420. D(Au 11,Au 13,Au  0,Fe 15)     -4.8937         0.001502   
    421. D(Au  5,Au 13,Au  0,Au  7)   -165.8638         0.001502   
    422. D(Au 11,Au 13,Au  5,Au  1)    -86.8200         0.001502   
    423. D(Au  5,Au 13,Au  0,Au 14)   -150.9879         0.001502   
    424. D(Au  5,Au 13,Au  0,Au  3)    -82.1066         0.001502   
    425. D(Au 11,Au 13,Au  5,Au  0)   -105.6404         0.001502   
    426. D(Au  5,Au 13,Au  0,Fe 15)    -61.8596         0.001502   
    427. D(Au  7,Au 13,Au  5,Au  4)     79.8746         0.001502   
    428. D(Au  9,Au 13,Au  5,Au  0)    -83.6666         0.001502   
    429. D(Au  7,Au 13,Au  5,Fe 15)     40.1138         0.001502   
    430. D(Au  7,Au 13,Au  5,Au  1)      3.9153         0.001502   
    431. D(Au  9,Au 13,Au  5,Au 11)     21.9739         0.001502   
    432. D(Au  9,Au 13,Au  5,Au  1)    -64.8461         0.001502   
    433. D(Au  9,Au 13,Au  0,Au 14)    -37.0481         0.001502   
    434. D(Au  5,Au 13,Au  7,Au  0)     14.4302         0.001502   
    435. D(Au  0,Au 13,Au  7,Au  8)    -81.6898         0.001502   
    436. D(Au  5,Au 13,Au  7,Au 14)     -0.7072         0.001502   
    437. D(Au 11,Au 13,Au  7,Au  0)     79.0208         0.001502   
    438. D(Au 11,Au 13,Au  7,Au 14)     63.8834         0.001502   
    439. D(Au  0,Au 13,Au  7,Au 14)    -15.1374         0.001502   
    440. D(Au  9,Au 13,Au  7,Au 14)    100.6474         0.001502   
    441. D(Au  0,Au 13,Au  9,Au 11)    -82.7870         0.001501   
    442. D(Au  0,Au 13,Au  9,Au  7)     54.1710         0.001501   
    443. D(Au  9,Au 13,Au  7,Au  0)    115.7849         0.001502   
    444. D(Au  5,Au 13,Au  9,Au  7)    114.2856         0.001501   
    445. D(Au  0,Au 13,Au  9,Au 12)    -44.1160         0.001501   
    446. D(Au  5,Au 13,Au  9,Au 11)    -22.6724         0.001501   
    447. D(Au 11,Au 13,Au  7,Au  8)     -2.6690         0.001502   
    448. D(Au  9,Au 13,Au  5,Fe 15)    -28.6477         0.001502   
    449. D(Au  5,Au 13,Au  9,Au 12)     15.9986         0.001501   
    450. D(Au  9,Au 13,Au 11,Au  5)   -156.1220         0.001501   
    451. D(Au  9,Au 13,Au 11,Fe 15)    -94.3033         0.001501   
    452. D(Au  7,Au 13,Au 11,Fe 15)    -56.3115         0.001501   
    453. D(Au  7,Au 13,Au 11,Au  9)     37.9918         0.001501   
    454. D(Au  5,Au 13,Au 11,Au  9)    156.1220         0.001501   
    455. D(Au  5,Au 13,Au 11,Fe 15)     61.8187         0.001501   
    456. D(Au  0,Au 13,Au 11,Au  9)     99.4894         0.001501   
    457. D(Au  0,Au 13,Au 11,Au  5)    -56.6326         0.001501   
    458. D(Au  0,Au 13,Au 11,Fe 15)      5.1861         0.001501   
    459. D(Au  7,Au 13,Au  9,Au  8)    -33.8604         0.001501   
    460. D(Au  7,Au 13,Au  9,Au 12)    -98.2870         0.001501   
    461. D(Au  7,Au 13,Au  9,Au 11)   -136.9580         0.001501   
    462. D(Au  7,Au 13,Au 11,Au  5)   -118.1302         0.001501   
    463. D(Au 11,Au 13,Au  9,Au  8)    103.0976         0.001501   
    464. D(Au 11,Au 13,Au  9,Au 12)     38.6710         0.001501   
    465. D(Au 11,Au 13,Au  9,Au  7)    136.9580         0.001501   
    466. D(Au  5,Au 13,Au  9,Au  8)     80.4252         0.001501   
    467. D(Au  8,Au 14,Au 10,Au  3)    156.1571         0.001501   
    468. D(Au  8,Au 14,Au 10,Fe 15)     94.3037         0.001501   
    469. D(Au  7,Au 14,Au 10,Au  8)    -38.0112         0.001501   
    470. D(Au  7,Au 14,Au 10,Fe 15)     56.2925         0.001501   
    471. D(Au  3,Au 14,Au 10,Au  8)   -156.1571         0.001501   
    472. D(Au  3,Au 14,Au 10,Fe 15)    -61.8534         0.001501   
    473. D(Au  0,Au 14,Au 10,Au  8)    -99.4932         0.001501   
    474. D(Au  0,Au 14,Au 10,Au  3)     56.6639         0.001501   
    475. D(Au  0,Au 14,Au 10,Fe 15)     -5.1895         0.001501   
    476. D(Au  7,Au 14,Au  8,Au 12)     98.2727         0.001501   
    477. D(Au  7,Au 14,Au  8,Au  9)     33.8343         0.001501   
    478. D(Au 10,Au 14,Au  8,Au 12)    -38.6635         0.001501   
    479. D(Au 10,Au 14,Au  8,Au  9)   -103.1018         0.001501   
    480. D(Au  3,Au 14,Au  8,Au 12)    -16.0167         0.001501   
    481. D(Au  3,Au 14,Au  8,Au 10)     22.6468         0.001501   
    482. D(Au  3,Au 14,Au  8,Au  9)    -80.4550         0.001501   
    483. D(Au  0,Au 14,Au  8,Au 12)     44.0999         0.001501   
    484. D(Au  0,Au 14,Au  8,Au 10)     82.7634         0.001501   
    485. D(Au  0,Au 14,Au  8,Au  9)    -20.3384         0.001501   
    486. D(Au  0,Au 14,Au  8,Au  7)    -54.1727         0.001501   
    487. D(Au  8,Au 14,Au  7,Au  9)    -34.0756         0.001502   
    488. D(Au  8,Au 14,Au  7,Au 13)   -100.6359         0.001502   
    489. D(Au  8,Au 14,Au  7,Au  0)   -115.7720         0.001502   
    490. D(Au 10,Au 14,Au  7,Au  9)      2.7057         0.001502   
    491. D(Au 10,Au 14,Au  7,Au 13)    -63.8545         0.001502   
    492. D(Au 10,Au 14,Au  7,Au  0)    -78.9907         0.001502   
    493. D(Au  3,Au 14,Au  7,Au  9)     67.3081         0.001502   
    494. D(Au  3,Au 14,Au  7,Au 13)      0.7479         0.001502   
    495. D(Au  3,Au 14,Au  7,Au  0)    -14.3883         0.001502   
    496. D(Au  0,Au 14,Au  7,Au  9)     81.6964         0.001502   
    497. D(Au  0,Au 14,Au  7,Au 13)     15.1362         0.001502   
    498. D(Au  8,Au 14,Au  3,Fe 15)     28.6285         0.001502   
    499. D(Au  8,Au 14,Au  3,Au 10)    -21.9469         0.001502   
    500. D(Au  8,Au 14,Au  3,Au  2)    -11.1279         0.001502   
    501. D(Au  8,Au 14,Au  3,Au  1)     64.7829         0.001502   
    502. D(Au  8,Au 14,Au  3,Au  0)     83.6422         0.001502   
    503. D(Au  7,Au 14,Au  3,Fe 15)    -40.1542         0.001502   
    504. D(Au  0,Au 14,Au  7,Au  8)    115.7720         0.001502   
    505. D(Au  7,Au 14,Au  3,Au 10)    -90.7296         0.001502   
    506. D(Au  7,Au 14,Au  3,Au  2)    -79.9107         0.001502   
    507. D(Au  7,Au 14,Au  3,Au  1)     -3.9998         0.001502   
    508. D(Au  3,Au 14,Au  7,Au  8)    101.3838         0.001502   
    509. D(Au  7,Au 14,Au  3,Au  0)     14.8594         0.001502   
    510. D(Au 10,Au 14,Au  3,Fe 15)     50.5753         0.001502   
    511. D(Au 10,Au 14,Au  3,Au  2)     10.8189         0.001502   
    512. D(Au 10,Au 14,Au  7,Au  8)     36.7814         0.001502   
    513. D(Au 10,Au 14,Au  3,Au  1)     86.7298         0.001502   
    514. D(Au 10,Au 14,Au  3,Au  0)    105.5890         0.001502   
    515. D(Au  0,Au 14,Au  3,Fe 15)    -55.0137         0.001502   
    516. D(Au  0,Au 14,Au  3,Au 10)   -105.5890         0.001502   
    517. D(Au  0,Au 14,Au  3,Au  2)    -94.7701         0.001502   
    518. D(Au  0,Au 14,Au  3,Au  1)    -18.8593         0.001502   
    519. D(Au  8,Au 14,Au  0,Au  7)     51.9342         0.001502   
    520. D(Au  3,Au 14,Au  8,Au  7)   -114.2893         0.001501   
    521. D(Au  8,Au 14,Au  0,Au  3)   -113.9736         0.001502   
    522. D(Au  8,Au 14,Au  0,Au 13)     37.0583         0.001502   
    523. D(Au  8,Au 14,Au  0,Au  5)    -31.8891         0.001502   
    524. D(Au 10,Au 14,Au  8,Au  7)   -136.9361         0.001501   
    525. D(Au  8,Au 14,Au  0,Fe 15)    -52.0790         0.001502   
    526. D(Au  7,Au 14,Au  0,Au  3)   -165.9078         0.001502   
    527. D(Au  7,Au 14,Au  0,Au 13)    -14.8759         0.001502   
    528. D(Au  7,Au 14,Au  8,Au 10)    136.9361         0.001501   
    529. D(Au  7,Au 14,Au  0,Au  5)    -83.8233         0.001502   
    530. D(Au  7,Au 14,Au  0,Fe 15)   -104.0132         0.001502   
    531. D(Au 10,Au 14,Au  0,Au  3)    -57.0006         0.001502   
    532. D(Au  3,Au 14,Au  0,Au  7)    165.9078         0.001502   
    533. D(Au  3,Au 14,Au  0,Fe 15)     61.8946         0.001502   
    534. D(Au  3,Au 14,Au  0,Au  5)     82.0845         0.001502   
    535. D(Au  3,Au 14,Au  0,Au 13)    151.0319         0.001502   
    536. D(Au  7,Au 14,Au 10,Au  3)    118.1459         0.001501   
    537. D(Au 10,Au 14,Au  0,Au  5)     25.0840         0.001502   
    538. D(Au 10,Au 14,Au  0,Au 13)     94.0313         0.001502   
    539. D(Au 10,Au 14,Au  0,Fe 15)      4.8940         0.001502   
    540. D(Au 10,Au 14,Au  0,Au  7)    108.9073         0.001502   
    541. D(Au  6,Fe 15,Au 10,Au 14)   -173.1961         0.001530   
    542. D(Au  6,Fe 15,Au 10,Au  3)    133.6102         0.001530   
    543. D(Au  4,Fe 15,Au 10,Au  8)   -133.1350         0.001530   
    544. D(Au  4,Fe 15,Au 10,Au  3)    114.6564         0.001530   
    545. D(Au  2,Fe 15,Au 10,Au  8)    179.4215         0.001530   
    546. D(Au  2,Fe 15,Au 10,Au 14)    120.4066         0.001530   
    547. D(Au  1,Fe 15,Au 10,Au  8)    132.1549         0.001530   
    548. D(Au  1,Fe 15,Au 10,Au 14)     73.1400         0.001530   
    549. D(Au  1,Fe 15,Au 10,Au  3)     19.9463         0.001530   
    550. D(Au  0,Fe 15,Au 10,Au  8)     64.1737         0.001530   
    551. D(Au  0,Fe 15,Au 10,Au 14)      5.1588         0.001530   
    552. D(Au  0,Fe 15,Au 10,Au  3)    -48.0349         0.001530   
    553. D(Au  3,Fe 15,Au  5,Au 13)    -95.5678         0.001502   
    554. D(Au  3,Fe 15,Au  5,Au  4)    128.0679         0.001502   
    555. D(Au  3,Fe 15,Au  5,Au  1)     45.8207         0.001502   
    556. D(Au  3,Fe 15,Au  5,Au  0)    -37.7963         0.001502   
    557. D(Au 12,Fe 15,Au  5,Au 11)    -16.9266         0.001502   
    558. D(Au 12,Fe 15,Au  5,Au  4)    -94.0428         0.001502   
    559. D(Au 12,Fe 15,Au  5,Au  1)   -176.2900         0.001502   
    560. D(Au 11,Fe 15,Au  5,Au 13)     59.2481         0.001502   
    561. D(Au 11,Fe 15,Au  5,Au  4)    -77.1162         0.001502   
    562. D(Au 11,Fe 15,Au  5,Au  1)   -159.3634         0.001502   
    563. D(Au 11,Fe 15,Au  5,Au  0)    117.0196         0.001502   
    564. D(Au 10,Fe 15,Au  5,Au 13)    -49.3619         0.001502   
    565. D(Au 10,Fe 15,Au  5,Au 11)   -108.6100         0.001502   
    566. D(Au 10,Fe 15,Au  5,Au  4)    174.2738         0.001502   
    567. D(Au 10,Fe 15,Au  5,Au  0)      8.4095         0.001502   
    568. D(Au  6,Fe 15,Au  5,Au 13)    120.1638         0.001502   
    569. D(Au  6,Fe 15,Au  5,Au 11)     60.9157         0.001502   
    570. D(Au  6,Fe 15,Au  5,Au  1)    -98.4478         0.001502   
    571. D(Au  6,Fe 15,Au  5,Au  0)    177.9352         0.001502   
    572. D(Au  4,Fe 15,Au  5,Au 13)    136.3643         0.001502   
    573. D(Au  4,Fe 15,Au  5,Au  1)    -82.2472         0.001502   
    574. D(Au  4,Fe 15,Au  5,Au  0)   -165.8642         0.001502   
    575. D(Au  2,Fe 15,Au  5,Au 13)   -154.0296         0.001502   
    576. D(Au  2,Fe 15,Au  5,Au 11)    146.7223         0.001502   
    577. D(Au  2,Fe 15,Au  5,Au  4)     69.6061         0.001502   
    578. D(Au  2,Fe 15,Au  5,Au  1)    -12.6411         0.001502   
    579. D(Au  2,Fe 15,Au  5,Au  0)    -96.2581         0.001502   
    580. D(Au  1,Fe 15,Au  5,Au 11)    159.3634         0.001502   
    581. D(Au  1,Fe 15,Au  5,Au  4)     82.2472         0.001502   
    582. D(Au  1,Fe 15,Au  5,Au  0)    -83.6170         0.001502   
    583. D(Au  0,Fe 15,Au  5,Au 11)   -117.0196         0.001502   
    584. D(Au  0,Fe 15,Au  5,Au  4)    165.8642         0.001502   
    585. D(Au  0,Fe 15,Au  5,Au  1)     83.6170         0.001502   
    586. D(Au 12,Fe 15,Au  4,Au  5)    116.4722         0.001550   
    587. D(Au 11,Fe 15,Au  4,Au  5)     68.8109         0.001550   
    588. D(Au 10,Fe 15,Au  4,Au  5)   -173.8922         0.001550   
    589. D(Au  6,Fe 15,Au  4,Au  5)    165.5003         0.001550   
    590. D(Au  2,Fe 15,Au  4,Au  5)   -131.8403         0.001550   
    591. D(Au  1,Fe 15,Au  4,Au  5)    -66.4623         0.001550   
    592. D(Au  0,Fe 15,Au  4,Au  5)    -12.8956         0.001550   
    593. D(Au  5,Fe 15,Au  3,Au 10)    154.8484         0.001502   
    594. D(Au  5,Fe 15,Au  3,Au  2)   -128.0239         0.001502   
    595. D(Au  5,Fe 15,Au  3,Au  1)    -45.8198         0.001502   
    596. D(Au 12,Fe 15,Au  3,Au 14)    -42.2777         0.001502   
    597. D(Au 12,Fe 15,Au  3,Au 10)     16.9719         0.001502   
    598. D(Au 12,Fe 15,Au  3,Au  2)     94.0996         0.001502   
    599. D(Au 12,Fe 15,Au  3,Au  0)   -100.0751         0.001502   
    600. D(Au 11,Fe 15,Au  3,Au 14)     49.3621         0.001502   
    601. D(Au 11,Fe 15,Au  3,Au 10)    108.6117         0.001502   
    602. D(Au 11,Fe 15,Au  3,Au  2)   -174.2606         0.001502   
    603. D(Au 11,Fe 15,Au  3,Au  1)    -92.0565         0.001502   
    604. D(Au 11,Fe 15,Au  3,Au  0)     -8.4352         0.001502   
    605. D(Au 10,Fe 15,Au  3,Au 14)    -59.2496         0.001502   
    606. D(Au 10,Fe 15,Au  3,Au  1)    159.3318         0.001502   
    607. D(Au 10,Fe 15,Au  3,Au  0)   -117.0469         0.001502   
    608. D(Au  6,Fe 15,Au  3,Au 14)   -120.0807         0.001502   
    609. D(Au  6,Fe 15,Au  3,Au  2)     16.2966         0.001502   
    610. D(Au  6,Fe 15,Au  3,Au  1)     98.5007         0.001502   
    611. D(Au  6,Fe 15,Au  3,Au  0)   -177.8781         0.001502   
    612. D(Au  4,Fe 15,Au  3,Au 14)    154.0748         0.001502   
    613. D(Au  4,Fe 15,Au  3,Au 10)   -146.6756         0.001502   
    614. D(Au  4,Fe 15,Au  3,Au  2)    -69.5479         0.001502   
    615. D(Au  4,Fe 15,Au  3,Au  1)     12.6562         0.001502   
    616. D(Au  4,Fe 15,Au  3,Au  0)     96.2775         0.001502   
    617. D(Au  2,Fe 15,Au  3,Au 14)   -136.3773         0.001502   
    618. D(Au  2,Fe 15,Au  3,Au 10)    -77.1277         0.001502   
    619. D(Au  2,Fe 15,Au  3,Au  1)     82.2041         0.001502   
    620. D(Au  6,Fe 15,Au  3,Au 10)    -60.8312         0.001502   
    621. D(Au  2,Fe 15,Au  3,Au  0)    165.8254         0.001502   
    622. D(Au  1,Fe 15,Au  3,Au 14)    141.4186         0.001502   
    623. D(Au  1,Fe 15,Au  3,Au 10)   -159.3318         0.001502   
    624. D(Au 10,Fe 15,Au  3,Au  2)     77.1277         0.001502   
    625. D(Au  1,Fe 15,Au  3,Au  2)    -82.2041         0.001502   
    626. D(Au  1,Fe 15,Au  3,Au  0)     83.6212         0.001502   
    627. D(Au  0,Fe 15,Au  3,Au 14)     57.7973         0.001502   
    628. D(Au  0,Fe 15,Au  3,Au 10)    117.0469         0.001502   
    629. D(Au  0,Fe 15,Au  3,Au  2)   -165.8254         0.001502   
    630. D(Au  0,Fe 15,Au  3,Au  1)    -83.6212         0.001502   
    631. D(Au  5,Fe 15,Au  2,Au  3)     78.1728         0.001550   
    632. D(Au 12,Fe 15,Au  3,Au  1)    176.3037         0.001502   
    633. D(Au 12,Fe 15,Au  2,Au  3)   -116.4662         0.001550   
    634. D(Au 11,Fe 15,Au  2,Au  3)    173.8658         0.001550   
    635. D(Au 10,Fe 15,Au  2,Au  3)    -68.8155         0.001550   
    636. D(Au  5,Fe 15,Au  3,Au  0)     37.8015         0.001502   
    637. D(Au  6,Fe 15,Au  2,Au  3)   -165.3890         0.001550   
    638. D(Au  4,Fe 15,Au  2,Au  3)    131.8997         0.001550   
    639. D(Au  1,Fe 15,Au  2,Au  3)     66.4871         0.001550   
    640. D(Au  5,Fe 15,Au  3,Au 14)     95.5988         0.001502   
    641. D(Au  0,Fe 15,Au  2,Au  3)     12.9257         0.001550   
    642. D(Au  3,Fe 15,Au  1,Au  5)   -125.1346         0.001563   
    643. D(Au  5,Fe 15,Au  1,Au  3)    125.1346         0.001563   
    644. D(Au 11,Fe 15,Au  1,Au  3)    145.1401         0.001563   
    645. D(Au 11,Fe 15,Au  1,Au  5)     20.0055         0.001563   
    646. D(Au 10,Fe 15,Au  1,Au  3)    -20.0348         0.001563   
    647. D(Au 10,Fe 15,Au  1,Au  5)   -145.1694         0.001563   
    648. D(Au  3,Fe 15,Au  4,Au  5)    -78.1588         0.001550   
    649. D(Au  6,Fe 15,Au  1,Au  3)   -117.3706         0.001563   
    650. D(Au  6,Fe 15,Au  1,Au  5)    117.4948         0.001563   
    651. D(Au  4,Fe 15,Au  1,Au  3)   -169.2830         0.001563   
    652. D(Au  0,Fe 15,Au  5,Au 13)    -57.7715         0.001502   
    653. D(Au  4,Fe 15,Au  1,Au  5)     65.5824         0.001563   
    654. D(Au  2,Fe 15,Au  1,Au  3)    -65.5786         0.001563   
    655. D(Au  2,Fe 15,Au  1,Au  5)    169.2868         0.001563   
    656. D(Au  1,Fe 15,Au  5,Au 13)   -141.3885         0.001502   
    657. D(Au  0,Fe 15,Au  1,Au  3)     62.5614         0.001563   
    658. D(Au  0,Fe 15,Au  1,Au  5)    -62.5732         0.001563   
    659. D(Au  3,Fe 15,Au  0,Au  7)   -113.1785         0.001511   
    660. D(Au  3,Fe 15,Au  0,Au 14)    -56.0935         0.001511   
    661. D(Au  3,Fe 15,Au  0,Au 13)   -170.2671         0.001511   
    662. D(Au  3,Fe 15,Au  0,Au  5)    133.6269         0.001511   
    663. D(Au  5,Fe 15,Au  0,Au  7)    113.1947         0.001511   
    664. D(Au  4,Fe 15,Au  5,Au 11)     77.1162         0.001502   
    665. D(Au  5,Fe 15,Au  0,Au 14)    170.2797         0.001511   
    666. D(Au  5,Fe 15,Au  0,Au  3)   -133.6269         0.001511   
    667. D(Au  5,Fe 15,Au  0,Au 13)     56.1061         0.001511   
    668. D(Au  6,Fe 15,Au  5,Au  4)    -16.2005         0.001502   
    669. D(Au 12,Fe 15,Au  0,Au  7)      0.0208         0.001511   
    670. D(Au 12,Fe 15,Au  0,Au 14)     57.1058         0.001511   
    671. D(Au 12,Fe 15,Au  0,Au  3)    113.1993         0.001511   
    672. D(Au 10,Fe 15,Au  5,Au  1)     92.0266         0.001502   
    673. D(Au 12,Fe 15,Au  0,Au 13)    -57.0677         0.001511   
    674. D(Au 12,Fe 15,Au  0,Au  5)   -113.1738         0.001511   
    675. D(Au 11,Fe 15,Au  0,Au  7)     62.5172         0.001511   
    676. D(Au 11,Fe 15,Au  0,Au 14)    119.6022         0.001511   
    677. D(Au 11,Fe 15,Au  0,Au  3)    175.6956         0.001511   
    678. D(Au 11,Fe 15,Au  0,Au 13)      5.4286         0.001511   
    679. D(Au 11,Fe 15,Au  0,Au  5)    -50.6775         0.001511   
    680. D(Au 12,Fe 15,Au  5,Au  0)    100.0930         0.001502   
    681. D(Au 10,Fe 15,Au  0,Au  7)    -62.5169         0.001511   
    682. D(Au 10,Fe 15,Au  0,Au 14)     -5.4319         0.001511   
    683. D(Au 10,Fe 15,Au  0,Au  3)     50.6616         0.001511   
    684. D(Au 12,Fe 15,Au  5,Au 13)     42.3215         0.001502   
    685. D(Au 10,Fe 15,Au  0,Au 13)   -119.6055         0.001511   
    686. D(Au 10,Fe 15,Au  0,Au  5)   -175.7116         0.001511   
    687. D(Au  4,Fe 15,Au  0,Au  7)    126.4653         0.001511   
    688. D(Au  3,Fe 15,Au  5,Au 11)   -154.8159         0.001502   
    689. D(Au  4,Fe 15,Au  0,Au 14)   -176.4497         0.001511   
    690. D(Au  4,Fe 15,Au  0,Au  3)   -120.3562         0.001511   
    691. D(Au  4,Fe 15,Au  0,Au 13)     69.3767         0.001511   
    692. D(Au  4,Fe 15,Au  0,Au  5)     13.2706         0.001511   
    693. D(Au  2,Fe 15,Au  0,Au  7)   -126.4789         0.001511   
    694. D(Au  2,Fe 15,Au  0,Au 14)    -69.3939         0.001511   
    695. D(Au  2,Fe 15,Au  0,Au  3)    -13.3004         0.001511   
    696. D(Au  2,Fe 15,Au 10,Au  3)     67.2129         0.001530   
    697. D(Au  2,Fe 15,Au  0,Au 13)    176.4325         0.001511   
    698. D(Au  2,Fe 15,Au  0,Au  5)    120.3264         0.001511   
    699. D(Au  1,Fe 15,Au  0,Au  7)   -179.9935         0.001511   
    700. D(Au  4,Fe 15,Au 10,Au 14)    167.8501         0.001530   
    701. D(Au  1,Fe 15,Au  0,Au 14)   -122.9085         0.001511   
    702. D(Au  1,Fe 15,Au  0,Au  3)    -66.8150         0.001511   
    703. D(Au  1,Fe 15,Au  0,Au 13)    122.9179         0.001511   
    704. D(Au  6,Fe 15,Au 10,Au  8)   -114.1812         0.001530   
    705. D(Au  1,Fe 15,Au  0,Au  5)     66.8119         0.001511   
    706. D(Au  3,Fe 15,Au 12,Au  8)     34.5005         0.001524   
    707. D(Au  3,Fe 15,Au 12,Au  9)     94.4058         0.001524   
    708. D(Au  5,Fe 15,Au 12,Au  8)    -94.4591         0.001524   
    709. D(Au  5,Fe 15,Au 12,Au  9)    -34.5539         0.001524   
    710. D(Au 11,Fe 15,Au 12,Au  8)   -110.8025         0.001524   
    711. D(Au 10,Fe 15,Au 12,Au  8)     50.8829         0.001524   
    712. D(Au 10,Fe 15,Au 12,Au  9)    110.7882         0.001524   
    713. D(Au  6,Fe 15,Au 12,Au  8)    149.9538         0.001524   
    714. D(Au  4,Fe 15,Au 12,Au  8)   -159.1273         0.001524   
    715. D(Au  4,Fe 15,Au 12,Au  9)    -99.2221         0.001524   
    716. D(Au  2,Fe 15,Au 12,Au  8)     99.1803         0.001524   
    717. D(Au  0,Fe 15,Au 12,Au  8)    -29.9757         0.001524   
    718. D(Au  0,Fe 15,Au 12,Au  9)     29.9296         0.001524   
    719. D(Au  3,Fe 15,Au 11,Au  9)    -57.1309         0.001530   
    720. D(Au  3,Fe 15,Au 11,Au 13)      1.8797         0.001530   
    721. D(Au  3,Fe 15,Au 11,Au  5)     55.0915         0.001530   
    722. D(Au  5,Fe 15,Au 11,Au  9)   -112.2224         0.001530   
    723. D(Au  5,Fe 15,Au 11,Au 13)    -53.2118         0.001530   
    724. D(Au 12,Fe 15,Au 11,Au 13)    110.7896         0.001530   
    725. D(Au 12,Fe 15,Au 11,Au  5)    164.0014         0.001530   
    726. D(Au 10,Fe 15,Au 11,Au  9)     31.7137         0.001530   
    727. D(Au 10,Fe 15,Au 11,Au 13)     90.7243         0.001530   
    728. D(Au 10,Fe 15,Au 11,Au  5)    143.9362         0.001530   
    729. D(Au  6,Fe 15,Au 11,Au  9)    114.1320         0.001530   
    730. D(Au  6,Fe 15,Au 11,Au 13)    173.1426         0.001530   
    731. D(Au  6,Fe 15,Au 11,Au  5)   -133.6456         0.001530   
    732. D(Au  4,Fe 15,Au 11,Au  9)   -179.4594         0.001530   
    733. D(Au  4,Fe 15,Au 11,Au 13)   -120.4488         0.001530   
    734. D(Au  4,Fe 15,Au 11,Au  5)    -67.2370         0.001530   
    735. D(Au  2,Fe 15,Au 11,Au  9)    133.1994         0.001530   
    736. D(Au 12,Fe 15,Au 11,Au  9)     51.7790         0.001530   
    737. D(Au  2,Fe 15,Au 11,Au 13)   -167.7900         0.001530   
    738. D(Au  2,Fe 15,Au 11,Au  5)   -114.5782         0.001530   
    739. D(Au  1,Fe 15,Au 11,Au  9)   -132.1394         0.001530   
    740. D(Au  1,Fe 15,Au 11,Au 13)    -73.1288         0.001530   
    741. D(Au  1,Fe 15,Au 11,Au  5)    -19.9170         0.001530   
    742. D(Au  0,Fe 15,Au 11,Au  9)    -64.1653         0.001530   
    743. D(Au  0,Fe 15,Au 11,Au 13)     -5.1547         0.001530   
    744. D(Au  2,Fe 15,Au 12,Au  9)    159.0856         0.001524   
    745. D(Au  0,Fe 15,Au 11,Au  5)     48.0571         0.001530   
    746. D(Au  3,Fe 15,Au 10,Au  8)    112.2086         0.001530   
    747. D(Au  3,Fe 15,Au 10,Au 14)     53.1937         0.001530   
    748. D(Au  6,Fe 15,Au 12,Au  9)   -150.1410         0.001524   
    749. D(Au  5,Fe 15,Au 10,Au  8)     57.1597         0.001530   
    750. D(Au  5,Fe 15,Au 10,Au 14)     -1.8551         0.001530   
    751. D(Au  5,Fe 15,Au 10,Au  3)    -55.0488         0.001530   
    752. D(Au 11,Fe 15,Au 12,Au  9)    -50.8972         0.001524   
    753. D(Au 12,Fe 15,Au 10,Au  8)    -51.7588         0.001530   
    754. D(Au 12,Fe 15,Au 10,Au 14)   -110.7737         0.001530   
    755. D(Au 12,Fe 15,Au 10,Au  3)   -163.9674         0.001530   
    756. D(Au 11,Fe 15,Au 10,Au  8)    -31.6993         0.001530   
    757. D(Au 11,Fe 15,Au 10,Au 14)    -90.7142         0.001530   
    758. D(Au 11,Fe 15,Au 10,Au  3)   -143.9079         0.001530   
    -----------------------------------------------------------------

Number of atoms                         .... 16
Number of degrees of freedom            .... 758

         *************************************************************
         *                GEOMETRY OPTIMIZATION CYCLE   1            *
         *************************************************************
---------------------------------
CARTESIAN COORDINATES (ANGSTROEM)
---------------------------------
  Au     5.868922    7.748682    6.803496
  Au     8.704644    7.925247    5.637287
  Au     9.673839   10.247102    7.117606
  Au     7.050804   10.186764    6.088415
  Au    10.162729    6.526752    7.745518
  Au     7.655740    5.591121    6.862040
  Au    10.473705    8.798855    9.432168
  Au     3.928407    7.868717    9.031682
  Au     5.441812    9.765160   10.509938
  Au     5.805155    6.992902   10.976130
  Au     7.519911   10.744611    8.893391
  Au     8.129315    6.100108    9.675413
  Au     8.061897    8.710428   10.811965
  Au     5.438908    5.560544    8.533732
  Au     4.830453   10.195345    7.754441
  Fe     8.311627    8.295720    8.147231

----------------------------
CARTESIAN COORDINATES (A.U.)
----------------------------
  NO LB      ZA    FRAG     MASS         X           Y           Z
   0 Au   19.0000*   0   196.966   11.090655   14.642887   12.856745
   1 Au   19.0000*   0   196.966   16.449393   14.976546   10.652929
   2 Au   19.0000*   0   196.966   18.280906   19.364217   13.450327
   3 Au   19.0000*   0   196.966   13.324089   19.250194   11.505436
   4 Au   19.0000*   0   196.966   19.204775   12.333774   14.636908
   5 Au   19.0000*   0   196.966   14.467251   10.565688   12.967377
   6 Au   19.0000*   0   196.966   19.792435   16.627427   17.824213
   7 Au   19.0000*   0   196.966    7.423614   14.869719   17.067405
   8 Au   19.0000*   0   196.966   10.283534   18.453478   19.860905
   9 Au   19.0000*   0   196.966   10.970153   13.214670   20.741879
  10 Au   19.0000*   0   196.966   14.210573   20.304372   16.806073
  11 Au   19.0000*   0   196.966   15.362179   11.527533   18.283881
  12 Au   19.0000*   0   196.966   15.234777   16.460323   20.431653
  13 Au   19.0000*   0   196.966   10.278047   10.507905   16.126416
  14 Au   19.0000*   0   196.966    9.128233   19.266409   14.653769
  15 Fe   26.0000    0    55.850   15.706699   15.676638   15.396035
* core charge reduced due to ECP

--------------------------------
INTERNAL COORDINATES (ANGSTROEM)
--------------------------------
 Au     0   0   0     0.000000000000     0.00000000     0.00000000
 Au     1   0   0     3.071243942080     0.00000000     0.00000000
 Au     2   1   0     2.919194562443    99.19054746     0.00000000
 Au     1   2   3     2.802219265007    57.56514876    42.22369459
 Au     2   1   3     2.920006825581    99.16982635    82.59972188
 Au     1   2   3     2.802001829026    57.54819843   235.16453894
 Au     3   2   1     2.845065966610    95.79717153    84.46492758
 Au     1   2   3     2.957163259674   152.83128933   318.69513562
 Au     8   1   2     2.841150382358    93.99048956    29.98400101
 Au     9   8   1     2.834566340332    60.06832010   267.69080038
 Au     9   8   1     2.809100949446   109.10952996    10.20805858
 Au    10   9   8     2.809032695492   109.92224144   101.15843043
 Au     7   3   2     2.780014494420   100.14072086   274.65214118
 Au     6   1   2     2.776657859432    60.78659461   163.04766434
 Au     4   1   2     2.775909709311    60.80252884   196.99092275
 Fe     7   3   2     2.564915078654    56.99671760   319.54889080

---------------------------
INTERNAL COORDINATES (A.U.)
---------------------------
 Au     0   0   0     0.000000000000     0.00000000     0.00000000
 Au     1   0   0     5.803809940995     0.00000000     0.00000000
 Au     2   1   0     5.516478254649    99.19054746     0.00000000
 Au     1   2   3     5.295426978062    57.56514876    42.22369459
 Au     2   1   3     5.518013209529    99.16982635    82.59972188
 Au     1   2   3     5.295016083605    57.54819843   235.16453894
 Au     3   2   1     5.376395509833    95.79717153    84.46492758
 Au     1   2   3     5.588228694077   152.83128933   318.69513562
 Au     8   1   2     5.368996127943    93.99048956    29.98400101
 Au     9   8   1     5.356554091659    60.06832010   267.69080038
 Au     9   8   1     5.308431476990   109.10952996    10.20805858
 Au    10   9   8     5.308302495710   109.92224144   101.15843043
 Au     7   3   2     5.253466042785   100.14072086   274.65214118
 Au     6   1   2     5.247122921926    60.78659461   163.04766434
 Au     4   1   2     5.245709123091    60.80252884   196.99092275
 Fe     7   3   2     4.846987055422    56.99671760   319.54889080

---------------------
BASIS SET INFORMATION
---------------------
There are 2 groups of distinct atoms

 Group   1 Type Au  : 8s7p6d1f contracted to 6s4p3d1f pattern {311111/4111/411/1}
 Group   2 Type Fe  : 17s11p7d1f contracted to 6s4p4d1f pattern {842111/6311/4111/1}

Atom   0Au   basis set group =>   1
Atom   1Au   basis set group =>   1
Atom   2Au   basis set group =>   1
Atom   3Au   basis set group =>   1
Atom   4Au   basis set group =>   1
Atom   5Au   basis set group =>   1
Atom   6Au   basis set group =>   1
Atom   7Au   basis set group =>   1
Atom   8Au   basis set group =>   1
Atom   9Au   basis set group =>   1
Atom  10Au   basis set group =>   1
Atom  11Au   basis set group =>   1
Atom  12Au   basis set group =>   1
Atom  13Au   basis set group =>   1
Atom  14Au   basis set group =>   1
Atom  15Fe   basis set group =>   2
---------------------------------
AUXILIARY/J BASIS SET INFORMATION
---------------------------------
There are 2 groups of distinct atoms

 Group   1 Type Au  : 11s5p5d3f3g contracted to 8s5p5d2f3g pattern {41111111/11111/11111/21/111}
 Group   2 Type Fe  : 19s5p5d3f3g contracted to 8s5p5d2f3g pattern {121111111/11111/11111/21/111}

Atom   0Au   basis set group =>   1
Atom   1Au   basis set group =>   1
Atom   2Au   basis set group =>   1
Atom   3Au   basis set group =>   1
Atom   4Au   basis set group =>   1
Atom   5Au   basis set group =>   1
Atom   6Au   basis set group =>   1
Atom   7Au   basis set group =>   1
Atom   8Au   basis set group =>   1
Atom   9Au   basis set group =>   1
Atom  10Au   basis set group =>   1
Atom  11Au   basis set group =>   1
Atom  12Au   basis set group =>   1
Atom  13Au   basis set group =>   1
Atom  14Au   basis set group =>   1
Atom  15Fe   basis set group =>   2
-------------------------
ECP PARAMETER INFORMATION
-------------------------

 Group 1, Type Au ECP Def2-ECP (replacing 60 core electrons, lmax=3)

Atom   0Au   ECP group =>   1
Atom   1Au   ECP group =>   1
Atom   2Au   ECP group =>   1
Atom   3Au   ECP group =>   1
Atom   4Au   ECP group =>   1
Atom   5Au   ECP group =>   1
Atom   6Au   ECP group =>   1
Atom   7Au   ECP group =>   1
Atom   8Au   ECP group =>   1
Atom   9Au   ECP group =>   1
Atom  10Au   ECP group =>   1
Atom  11Au   ECP group =>   1
Atom  12Au   ECP group =>   1
Atom  13Au   ECP group =>   1
Atom  14Au   ECP group =>   1

------------------------------------------------------------------------------
                           ORCA GTO INTEGRAL CALCULATION
                           -- RI-GTO INTEGRALS CHOSEN --
------------------------------------------------------------------------------
------------------------------------------------------------------------------
                   ___                                                        
                  /   \      - P O W E R E D   B Y -                         
                 /     \                                                     
                 |  |  |   _    _      __       _____    __    __             
                 |  |  |  | |  | |    /  \     |  _  \  |  |  /  |          
                  \  \/   | |  | |   /    \    | | | |  |  | /  /          
                 / \  \   | |__| |  /  /\  \   | |_| |  |  |/  /          
                |  |  |   |  __  | /  /__\  \  |    /   |      \           
                |  |  |   | |  | | |   __   |  |    \   |  |\   \          
                \     /   | |  | | |  |  |  |  | |\  \  |  | \   \       
                 \___/    |_|  |_| |__|  |__|  |_| \__\ |__|  \__/        
                                                                              
                      - O R C A' S   B I G   F R I E N D -                    
                                      &                                       
                       - I N T E G R A L  F E E D E R -                       
                                                                              
 v1 FN, 2020, v2 2021                                                         
------------------------------------------------------------------------------


Reading SHARK input file pbe.SHARKINP.tmp ... ok
----------------------
SHARK INTEGRAL PACKAGE
----------------------

Number of atoms                             ...     16
Number of basis functions                   ...    645
Number of shells                            ...    225
Maximum angular momentum                    ...      3
Integral batch strategy                     ... SHARK/LIBINT Hybrid
RI-J (if used) integral strategy            ... SPLIT-RIJ (Revised 2003 algorithm where possible)
Printlevel                                  ...      1
Contraction scheme used                     ... SEGMENTED contraction
Coulomb Range Separation                    ... NOT USED
Exchange Range Separation                   ... NOT USED
Finite Nucleus Model                        ... NOT USED
Auxiliary Coulomb fitting basis             ... AVAILABLE
   # of basis functions in Aux-J            ...   1424
   # of shells in Aux-J                     ...    368
   Maximum angular momentum in Aux-J        ...      4
Auxiliary J/K fitting basis                 ... NOT available
Auxiliary Correlation fitting basis         ... NOT available
Auxiliary 'external' fitting basis          ... NOT available
Integral threshold                          ...     2.500000e-11
Primitive cut-off                           ...     2.500000e-12
Primitive pair pre-selection threshold      ...     2.500000e-12

Calculating pre-screening integrals         ... done (  0.4 sec) Dimension = 225
Organizing shell pair data                  ... done (  0.4 sec)
Shell pair information
Total number of shell pairs                 ...     25425
Shell pairs after pre-screening             ...     20142
Total number of primitive shell pairs       ...     67445
Primitive shell pairs kept                  ...     38378
          la=0 lb=0:   3156 shell pairs
          la=1 lb=0:   4592 shell pairs
          la=1 lb=1:   1728 shell pairs
          la=2 lb=0:   3999 shell pairs
          la=2 lb=1:   2827 shell pairs
          la=2 lb=2:   1166 shell pairs
          la=3 lb=0:   1046 shell pairs
          la=3 lb=1:    806 shell pairs
          la=3 lb=2:    710 shell pairs
          la=3 lb=3:    112 shell pairs

Calculating one electron integrals          ... done (  0.1 sec)
Calculating ECP integrals                   ... done ( 11.2 sec)
Calculating RI/J V-Matrix + Cholesky decomp.... done (  0.1 sec)
Calculating Nuclear repulsion               ... done (  0.0 sec) ENN=   6336.605505786790 Eh

SHARK setup successfully completed in  12.7 seconds

Maximum memory used throughout the entire GTOINT-calculation: 568.3 MB
-------------------------------------------------------------------------------
                                 ORCA SCF
-------------------------------------------------------------------------------

------------
SCF SETTINGS
------------
Hamiltonian:
 Density Functional     Method          .... DFT(GTOs)
 Exchange Functional    Exchange        .... PBE
   PBE kappa parameter   XKappa         ....  0.804000
   PBE mue parameter    XMuePBE         ....  0.219520
 Correlation Functional Correlation     .... PBE
   PBE beta parameter  CBetaPBE         ....  0.066725
 LDA part of GGA corr.  LDAOpt          .... PW91-LDA
 Gradients option       PostSCFGGA      .... off
   Density functional embedding theory  .... OFF
   NL short-range parameter             ....  6.400000
 RI-approximation to the Coulomb term is turned on
   Number of AuxJ basis functions       .... 1424


General Settings:
 Integral files         IntName         .... pbe
 Hartree-Fock type      HFTyp           .... UHF
 Total Charge           Charge          ....    0
 Multiplicity           Mult            ....    4
 Number of Electrons    NEL             ....  311
 Basis Dimension        Dim             ....  645
 Nuclear Repulsion      ENuc            ....   6336.6055057868 Eh

Convergence Acceleration:
 DIIS                   CNVDIIS         .... on
   Start iteration      DIISMaxIt       ....     0
   Startup error        DIISStart       ....  0.200000
   # of expansion vecs  DIISMaxEq       ....     5
   Bias factor          DIISBfac        ....   1.050
   Max. coefficient     DIISMaxC        ....  10.000
 Trust-Rad. Augm. Hess. CNVTRAH         .... auto
   Auto Start mean grad. ratio tolernc. ....  1.125000
   Auto Start start iteration           ....    20
   Auto Start num. interpolation iter.  ....    10
   Max. Number of Micro iterations      ....    16
   Max. Number of Macro iterations      .... Maxiter - #DIIS iter
   Number of Davidson start vectors     ....     2
   Converg. threshold I  (grad. norm)   ....   1.000e-05
   Converg. threshold II (energy diff.) ....   1.000e-08
   Grad. Scal. Fac. for Micro threshold ....   0.100
   Minimum threshold for Micro iter.    ....   0.010
   NR start threshold (gradient norm)   ....   0.001
   Initial trust radius                 ....   0.400
   Minimum AH scaling param. (alpha)    ....   1.000
   Maximum AH scaling param. (alpha)    .... 1000.000
   Orbital update algorithm             .... Taylor
   White noise on init. David. guess    .... on
   Maximum white noise                  ....   0.010
   Quad. conv. algorithm                .... NR
 SOSCF                  CNVSOSCF        .... off
 Level Shifting         CNVShift        .... on
   Level shift para.    LevelShift      ....    0.2500
   Turn off err/grad.   ShiftErr        ....    0.0000
 Zerner damping         CNVZerner       .... off
 Static damping         CNVDamp         .... on
   Fraction old density DampFac         ....    0.8500
   Max. Damping (<1)    DampMax         ....    0.9800
   Min. Damping (>=0)   DampMin         ....    0.0000
   Turn off err/grad.   DampErr         ....    0.0300
 Fernandez-Rico         CNVRico         .... off

SCF Procedure:
 Maximum # iterations   MaxIter         ....   125
 SCF integral mode      SCFMode         .... Direct
   Integral package                     .... SHARK and LIBINT hybrid scheme
 Reset frequency        DirectResetFreq ....    20
 Integral Threshold     Thresh          ....  2.500e-11 Eh
 Primitive CutOff       TCut            ....  2.500e-12 Eh

Convergence Tolerance:
 Convergence Check Mode ConvCheckMode   .... Total+1el-Energy
 Convergence forced     ConvForced      .... 0
 Energy Change          TolE            ....  1.000e-08 Eh
 1-El. energy change                    ....  1.000e-05 Eh
 DIIS Error             TolErr          ....  5.000e-07


Diagonalization of the overlap matrix:
Smallest eigenvalue                        ... 3.541e-04
Time for diagonalization                   ...    0.053 sec
Threshold for overlap eigenvalues          ... 1.000e-08
Number of eigenvalues below threshold      ... 0
Time for construction of square roots      ...    0.027 sec
Total time needed                          ...    0.081 sec

Time for model grid setup =    1.373 sec

------------------------------
[...]
 260( 0) :     0.377143 a.u.    10.263 eV
 261( 0) :     0.380130 a.u.    10.344 eV
 262( 0) :     0.382774 a.u.    10.416 eV
 263( 0) :     0.390482 a.u.    10.626 eV
 264( 0) :     0.397174 a.u.    10.808 eV
 265( 0) :     0.398550 a.u.    10.845 eV
 266( 0) :     0.404483 a.u.    11.007 eV
 267( 0) :     0.405846 a.u.    11.044 eV
 268( 0) :     0.409269 a.u.    11.137 eV
 269( 0) :     0.411277 a.u.    11.191 eV
 270( 0) :     0.413118 a.u.    11.242 eV
 271( 0) :     0.418375 a.u.    11.385 eV
 272( 0) :     0.421081 a.u.    11.458 eV
 273( 0) :     0.424797 a.u.    11.559 eV
 274( 0) :     0.433423 a.u.    11.794 eV
 275( 0) :     0.436689 a.u.    11.883 eV
 276( 0) :     0.441049 a.u.    12.002 eV
 277( 0) :     0.442391 a.u.    12.038 eV
 278( 0) :     0.455437 a.u.    12.393 eV
 279( 0) :     0.456424 a.u.    12.420 eV
 280( 0) :     0.460698 a.u.    12.536 eV
 281( 0) :     0.462530 a.u.    12.586 eV
 282( 0) :     0.470357 a.u.    12.799 eV
 283( 0) :     0.472901 a.u.    12.868 eV
 284( 0) :     0.477830 a.u.    13.002 eV
 285( 0) :     0.479227 a.u.    13.040 eV
 286( 0) :     0.482875 a.u.    13.140 eV
 287( 0) :     0.493114 a.u.    13.418 eV
 288( 0) :     0.493936 a.u.    13.441 eV
 289( 0) :     0.498696 a.u.    13.570 eV
 290( 0) :     0.499002 a.u.    13.579 eV
 291( 0) :     0.504613 a.u.    13.731 eV
 292( 0) :     0.507471 a.u.    13.809 eV
 293( 0) :     0.509434 a.u.    13.862 eV
 294( 0) :     0.510987 a.u.    13.905 eV
 295( 0) :     0.513037 a.u.    13.960 eV
 296( 0) :     0.515718 a.u.    14.033 eV
 297( 0) :     0.521489 a.u.    14.190 eV
 298( 0) :     0.523475 a.u.    14.244 eV
 299( 0) :     0.523784 a.u.    14.253 eV
 300( 0) :     0.529102 a.u.    14.398 eV
 301( 0) :     0.533124 a.u.    14.507 eV
 302( 0) :     0.540757 a.u.    14.715 eV
 303( 0) :     0.549251 a.u.    14.946 eV
 304( 0) :     0.555721 a.u.    15.122 eV
 305( 0) :     0.565417 a.u.    15.386 eV
 306( 0) :     0.565871 a.u.    15.398 eV
 307( 0) :     0.580114 a.u.    15.786 eV
 308( 0) :     0.580415 a.u.    15.794 eV
 309( 0) :     0.656355 a.u.    17.860 eV
 310( 0) :     0.662681 a.u.    18.032 eV
 311( 0) :     0.683555 a.u.    18.600 eV
 312( 0) :     0.688225 a.u.    18.728 eV
 313( 0) :     0.692880 a.u.    18.854 eV
 314( 0) :     0.698271 a.u.    19.001 eV
 315( 0) :     0.698856 a.u.    19.017 eV
 316( 0) :     0.711893 a.u.    19.372 eV
 317( 0) :     0.714846 a.u.    19.452 eV
 318( 0) :     0.726133 a.u.    19.759 eV
 319( 0) :     0.744237 a.u.    20.252 eV
 320( 0) :     0.746189 a.u.    20.305 eV
 321( 0) :     0.753003 a.u.    20.490 eV
 322( 0) :     0.764365 a.u.    20.799 eV
 323( 0) :     0.770697 a.u.    20.972 eV
 324( 0) :     0.771263 a.u.    20.987 eV
 325( 0) :     0.785206 a.u.    21.367 eV
 326( 0) :     0.785657 a.u.    21.379 eV
 327( 0) :     0.787981 a.u.    21.442 eV
 328( 0) :     0.794961 a.u.    21.632 eV
 329( 0) :     0.799116 a.u.    21.745 eV
 330( 0) :     0.806411 a.u.    21.944 eV
 331( 0) :     0.807536 a.u.    21.974 eV
 332( 0) :     0.817371 a.u.    22.242 eV
 333( 0) :     0.824655 a.u.    22.440 eV
 334( 0) :     0.840678 a.u.    22.876 eV
 335( 0) :     0.857357 a.u.    23.330 eV
 336( 0) :     0.861335 a.u.    23.438 eV
 337( 0) :     0.869553 a.u.    23.662 eV
 338( 0) :     0.876981 a.u.    23.864 eV
 339( 0) :     0.879273 a.u.    23.926 eV
 340( 0) :     0.891211 a.u.    24.251 eV
 341( 0) :     0.894467 a.u.    24.340 eV
 342( 0) :     0.909950 a.u.    24.761 eV
 343( 0) :     0.913557 a.u.    24.859 eV
 344( 0) :     0.927428 a.u.    25.237 eV
 345( 0) :     0.939130 a.u.    25.555 eV
 346( 0) :     0.941372 a.u.    25.616 eV
 347( 0) :     0.945713 a.u.    25.734 eV
 348( 0) :     0.951100 a.u.    25.881 eV
 349( 0) :     0.956663 a.u.    26.032 eV
 350( 0) :     0.972370 a.u.    26.460 eV
 351( 0) :     0.983019 a.u.    26.749 eV
 352( 0) :     0.984770 a.u.    26.797 eV
 353( 0) :     1.032206 a.u.    28.088 eV
 354( 0) :     1.060892 a.u.    28.868 eV
 355( 0) :     1.090469 a.u.    29.673 eV
 356( 0) :     1.158253 a.u.    31.518 eV
 357( 0) :     1.161205 a.u.    31.598 eV
 358( 0) :     1.165646 a.u.    31.719 eV
 359( 0) :     1.206416 a.u.    32.828 eV
 360( 0) :     1.216380 a.u.    33.099 eV
 361( 0) :     1.229742 a.u.    33.463 eV
 362( 0) :     1.230046 a.u.    33.471 eV
 363( 0) :     1.258193 a.u.    34.237 eV
 364( 0) :     1.263686 a.u.    34.387 eV
 365( 0) :     1.265931 a.u.    34.448 eV
 366( 0) :     1.272141 a.u.    34.617 eV
 367( 0) :     1.283717 a.u.    34.932 eV
 368( 0) :     1.294995 a.u.    35.239 eV
 369( 0) :     1.300233 a.u.    35.381 eV
 370( 0) :     1.302129 a.u.    35.433 eV
 371( 0) :     1.306453 a.u.    35.550 eV
 372( 0) :     1.319835 a.u.    35.915 eV
 373( 0) :     1.325165 a.u.    36.060 eV
 374( 0) :     1.328415 a.u.    36.148 eV
 375( 0) :     1.337549 a.u.    36.397 eV
 376( 0) :     1.342436 a.u.    36.530 eV
 377( 0) :     1.350261 a.u.    36.742 eV
 378( 0) :     1.357952 a.u.    36.952 eV
 379( 0) :     1.362094 a.u.    37.064 eV
 380( 0) :     1.369868 a.u.    37.276 eV
 381( 0) :     1.371415 a.u.    37.318 eV
 382( 0) :     1.388372 a.u.    37.780 eV
 383( 0) :     1.390146 a.u.    37.828 eV
 384( 0) :     1.391065 a.u.    37.853 eV
 385( 0) :     1.392970 a.u.    37.905 eV
 386( 0) :     1.403728 a.u.    38.197 eV
 387( 0) :     1.405832 a.u.    38.255 eV
 388( 0) :     1.408944 a.u.    38.339 eV
 389( 0) :     1.415389 a.u.    38.515 eV
 390( 0) :     1.416393 a.u.    38.542 eV
 391( 0) :     1.422757 a.u.    38.715 eV
 392( 0) :     1.424488 a.u.    38.762 eV
 393( 0) :     1.427103 a.u.    38.833 eV
 394( 0) :     1.429034 a.u.    38.886 eV
 395( 0) :     1.433549 a.u.    39.009 eV
 396( 0) :     1.435849 a.u.    39.071 eV
 397( 0) :     1.442530 a.u.    39.253 eV
 398( 0) :     1.443440 a.u.    39.278 eV
 399( 0) :     1.445787 a.u.    39.342 eV
 400( 0) :     1.448597 a.u.    39.418 eV
 401( 0) :     1.453555 a.u.    39.553 eV
 402( 0) :     1.458596 a.u.    39.690 eV
 403( 0) :     1.459019 a.u.    39.702 eV
 404( 0) :     1.464258 a.u.    39.844 eV
 405( 0) :     1.465170 a.u.    39.869 eV
 406( 0) :     1.466298 a.u.    39.900 eV
 407( 0) :     1.468922 a.u.    39.971 eV
 408( 0) :     1.472514 a.u.    40.069 eV
 409( 0) :     1.477787 a.u.    40.213 eV
 410( 0) :     1.478962 a.u.    40.245 eV
 411( 0) :     1.480298 a.u.    40.281 eV
 412( 0) :     1.483644 a.u.    40.372 eV
 413( 0) :     1.485938 a.u.    40.434 eV
 414( 0) :     1.487655 a.u.    40.481 eV
 415( 0) :     1.488219 a.u.    40.497 eV
 416( 0) :     1.489005 a.u.    40.518 eV
 417( 0) :     1.491571 a.u.    40.588 eV
 418( 0) :     1.493558 a.u.    40.642 eV
 419( 0) :     1.493755 a.u.    40.647 eV
 420( 0) :     1.496435 a.u.    40.720 eV
 421( 0) :     1.497324 a.u.    40.744 eV
 422( 0) :     1.499648 a.u.    40.807 eV
 423( 0) :     1.500075 a.u.    40.819 eV
 424( 0) :     1.500880 a.u.    40.841 eV
 425( 0) :     1.501360 a.u.    40.854 eV
 426( 0) :     1.503198 a.u.    40.904 eV
 427( 0) :     1.503380 a.u.    40.909 eV
 428( 0) :     1.504947 a.u.    40.952 eV
 429( 0) :     1.505660 a.u.    40.971 eV
 430( 0) :     1.508479 a.u.    41.048 eV
 431( 0) :     1.509072 a.u.    41.064 eV
 432( 0) :     1.509593 a.u.    41.078 eV
 433( 0) :     1.510606 a.u.    41.106 eV
 434( 0) :     1.513647 a.u.    41.188 eV
 435( 0) :     1.514431 a.u.    41.210 eV
 436( 0) :     1.514775 a.u.    41.219 eV
 437( 0) :     1.517934 a.u.    41.305 eV
 438( 0) :     1.519024 a.u.    41.335 eV
 439( 0) :     1.520406 a.u.    41.372 eV
 440( 0) :     1.520876 a.u.    41.385 eV
 441( 0) :     1.522306 a.u.    41.424 eV
 442( 0) :     1.523098 a.u.    41.446 eV
 443( 0) :     1.524122 a.u.    41.473 eV
 444( 0) :     1.527182 a.u.    41.557 eV
 445( 0) :     1.527713 a.u.    41.571 eV
 446( 0) :     1.529823 a.u.    41.629 eV
 447( 0) :     1.531290 a.u.    41.669 eV
 448( 0) :     1.532334 a.u.    41.697 eV
 449( 0) :     1.534277 a.u.    41.750 eV
 450( 0) :     1.534927 a.u.    41.767 eV
 451( 0) :     1.535004 a.u.    41.770 eV
 452( 0) :     1.535919 a.u.    41.794 eV
 453( 0) :     1.541312 a.u.    41.941 eV
 454( 0) :     1.542122 a.u.    41.963 eV
 455( 0) :     1.543778 a.u.    42.008 eV
 456( 0) :     1.547885 a.u.    42.120 eV
 457( 0) :     1.549494 a.u.    42.164 eV
 458( 0) :     1.553154 a.u.    42.263 eV
 459( 0) :     1.556401 a.u.    42.352 eV
 460( 0) :     1.556672 a.u.    42.359 eV
 461( 0) :     1.559710 a.u.    42.442 eV
 462( 0) :     1.560004 a.u.    42.450 eV
 463( 0) :     1.566611 a.u.    42.630 eV
 464( 0) :     1.566849 a.u.    42.636 eV
 465( 0) :     1.568009 a.u.    42.668 eV
 466( 0) :     1.568527 a.u.    42.682 eV
 467( 0) :     1.572151 a.u.    42.780 eV
 468( 0) :     1.572584 a.u.    42.792 eV
 469( 0) :     1.580549 a.u.    43.009 eV
 470( 0) :     1.581335 a.u.    43.030 eV
 471( 0) :     1.582831 a.u.    43.071 eV
 472( 0) :     1.586050 a.u.    43.159 eV
 473( 0) :     1.586290 a.u.    43.165 eV
 474( 0) :     1.590114 a.u.    43.269 eV
 475( 0) :     1.590653 a.u.    43.284 eV
 476( 0) :     1.591924 a.u.    43.318 eV
 477( 0) :     1.594212 a.u.    43.381 eV
 478( 0) :     1.596957 a.u.    43.455 eV
 479( 0) :     1.597313 a.u.    43.465 eV
 480( 0) :     1.599474 a.u.    43.524 eV
 481( 0) :     1.603769 a.u.    43.641 eV
 482( 0) :     1.605256 a.u.    43.681 eV
 483( 0) :     1.607402 a.u.    43.740 eV
 484( 0) :     1.608128 a.u.    43.759 eV
 485( 0) :     1.612173 a.u.    43.869 eV
 486( 0) :     1.612493 a.u.    43.878 eV
 487( 0) :     1.617090 a.u.    44.003 eV
 488( 0) :     1.621772 a.u.    44.131 eV
 489( 0) :     1.629545 a.u.    44.342 eV
 490( 0) :     1.630676 a.u.    44.373 eV
 491( 0) :     1.633831 a.u.    44.459 eV
 492( 0) :     1.636003 a.u.    44.518 eV
 493( 0) :     1.637876 a.u.    44.569 eV
 494( 0) :     1.644379 a.u.    44.746 eV
 495( 0) :     1.650958 a.u.    44.925 eV
 496( 0) :     1.659822 a.u.    45.166 eV
 497( 0) :     1.661638 a.u.    45.215 eV
 498( 0) :     1.668295 a.u.    45.397 eV
 499( 0) :     1.669756 a.u.    45.436 eV
 500( 0) :     1.676832 a.u.    45.629 eV
 501( 0) :     1.682820 a.u.    45.792 eV
 502( 0) :     1.694935 a.u.    46.122 eV
 503( 0) :     1.696203 a.u.    46.156 eV
 504( 0) :     1.711468 a.u.    46.571 eV
 505( 0) :     1.713601 a.u.    46.629 eV
 506( 0) :     1.718276 a.u.    46.757 eV
 507( 0) :     1.723157 a.u.    46.889 eV
 508( 0) :     1.730951 a.u.    47.102 eV
 509( 0) :     1.749539 a.u.    47.607 eV
 510( 0) :     1.755778 a.u.    47.777 eV
 511( 0) :     1.762431 a.u.    47.958 eV
 512( 0) :     1.762670 a.u.    47.965 eV
 513( 0) :     1.767896 a.u.    48.107 eV
 514( 0) :     1.790245 a.u.    48.715 eV
 515( 0) :     1.791351 a.u.    48.745 eV
 516( 0) :     1.794764 a.u.    48.838 eV
 517( 0) :     1.798251 a.u.    48.933 eV
 518( 0) :     1.809965 a.u.    49.252 eV
 519( 0) :     1.814433 a.u.    49.373 eV
 520( 0) :     1.816374 a.u.    49.426 eV
 521( 0) :     1.817490 a.u.    49.456 eV
 522( 0) :     1.820207 a.u.    49.530 eV
 523( 0) :     1.826801 a.u.    49.710 eV
 524( 0) :     1.835225 a.u.    49.939 eV
 525( 0) :     1.843392 a.u.    50.161 eV
 526( 0) :     1.846227 a.u.    50.238 eV
 527( 0) :     1.851785 a.u.    50.390 eV
 528( 0) :     1.860787 a.u.    50.635 eV
 529( 0) :     1.871310 a.u.    50.921 eV
 530( 0) :     1.879659 a.u.    51.148 eV
 531( 0) :     1.880210 a.u.    51.163 eV
 532( 0) :     1.894171 a.u.    51.543 eV
 533( 0) :     1.895234 a.u.    51.572 eV
 534( 0) :     1.912698 a.u.    52.047 eV
 535( 0) :     1.932445 a.u.    52.585 eV
 536( 0) :     1.938748 a.u.    52.756 eV
 537( 0) :     2.027466 a.u.    55.170 eV
 538( 0) :     2.038822 a.u.    55.479 eV
 539( 0) :     2.144831 a.u.    58.364 eV
 540( 0) :     2.283901 a.u.    62.148 eV
 541( 0) :     2.298801 a.u.    62.554 eV
 542( 0) :     2.299746 a.u.    62.579 eV
 543( 0) :     2.395060 a.u.    65.173 eV
 544( 0) :     2.406657 a.u.    65.488 eV
 545( 0) :     2.418204 a.u.    65.803 eV
 546( 0) :     2.431975 a.u.    66.177 eV
 547( 0) :     2.461632 a.u.    66.984 eV
 548( 0) :     2.478536 a.u.    67.444 eV
 549( 0) :     2.488069 a.u.    67.704 eV
 550( 0) :     2.488668 a.u.    67.720 eV
 551( 0) :     2.495086 a.u.    67.895 eV
 552( 0) :     2.522845 a.u.    68.650 eV
 553( 0) :     2.525888 a.u.    68.733 eV
 554( 0) :     2.541640 a.u.    69.162 eV
 555( 0) :     2.566658 a.u.    69.842 eV
 556( 0) :     2.576010 a.u.    70.097 eV
 557( 0) :     3.348244 a.u.    91.110 eV
 558( 0) :     3.578354 a.u.    97.372 eV
 559( 0) :     3.612445 a.u.    98.300 eV
 560( 0) :     3.670541 a.u.    99.881 eV
 561( 0) :     3.692119 a.u.   100.468 eV
 562( 0) :     3.744569 a.u.   101.895 eV
 563( 0) :     3.903240 a.u.   106.213 eV
 564( 0) :     3.904441 a.u.   106.245 eV
 565( 0) :     3.907416 a.u.   106.326 eV
 566( 0) :     3.907494 a.u.   106.328 eV
 567( 0) :     3.924856 a.u.   106.801 eV
 568( 0) :     3.927211 a.u.   106.865 eV
 569( 0) :     3.936667 a.u.   107.122 eV
 570( 0) :    23.944671 a.u.   651.568 eV
 571( 0) :    24.280399 a.u.   660.703 eV
 572( 0) :    24.378154 a.u.   663.363 eV
 573( 0) :    24.390656 a.u.   663.703 eV
 574( 0) :    24.443409 a.u.   665.139 eV
 575( 0) :    24.479400 a.u.   666.118 eV
 576( 0) :    24.644679 a.u.   670.616 eV
 577( 0) :    24.680023 a.u.   671.578 eV
 578( 0) :    24.999707 a.u.   680.277 eV
 579( 0) :    25.090260 a.u.   682.741 eV
 580( 0) :    25.121388 a.u.   683.588 eV
 581( 0) :    25.318420 a.u.   688.949 eV
 582( 0) :    25.395381 a.u.   691.043 eV
 583( 0) :    25.414888 a.u.   691.574 eV
 584( 0) :    25.569343 a.u.   695.777 eV
 585( 0) :    25.586192 a.u.   696.236 eV
 586( 0) :    25.728395 a.u.   700.105 eV
 587( 0) :    25.779883 a.u.   701.506 eV
 588( 0) :    25.837339 a.u.   703.070 eV
 589( 0) :    25.911418 a.u.   705.086 eV
 590( 0) :    25.913757 a.u.   705.149 eV
 591( 0) :    26.139968 a.u.   711.305 eV
 592( 0) :    26.209643 a.u.   713.201 eV
 593( 0) :    26.342633 a.u.   716.819 eV
 594( 0) :    26.346058 a.u.   716.913 eV
 595( 0) :    26.436275 a.u.   719.368 eV
 596( 0) :    26.460841 a.u.   720.036 eV
 597( 0) :    26.666699 a.u.   725.638 eV
 598( 0) :    26.683146 a.u.   726.085 eV
 599( 0) :    26.703482 a.u.   726.639 eV
 600( 0) :    26.788480 a.u.   728.952 eV
 601( 0) :    26.870991 a.u.   731.197 eV
 602( 0) :    27.019495 a.u.   735.238 eV
 603( 0) :    27.316082 a.u.   743.308 eV
 604( 0) :    27.391891 a.u.   745.371 eV
 605( 0) :    27.640053 a.u.   752.124 eV
 606( 0) :    27.644698 a.u.   752.250 eV
 607( 0) :    27.849375 a.u.   757.820 eV
 608( 0) :    27.913473 a.u.   759.564 eV
 609( 0) :    27.982163 a.u.   761.433 eV
 610( 0) :    28.104247 a.u.   764.755 eV
 611( 0) :    28.435073 a.u.   773.758 eV
 612( 0) :    29.384577 a.u.   799.595 eV
 613( 0) :    29.558219 a.u.   804.320 eV
 614( 0) :    30.640531 a.u.   833.771 eV
 615( 0) :    43.896361 a.u.  1194.481 eV
 616( 0) :    44.030073 a.u.  1198.119 eV
 617( 0) :    44.057570 a.u.  1198.867 eV
 618( 0) :    44.085311 a.u.  1199.622 eV
 619( 0) :    44.104780 a.u.  1200.152 eV
 620( 0) :    44.105701 a.u.  1200.177 eV
 621( 0) :    44.134157 a.u.  1200.951 eV
 622( 0) :    44.151552 a.u.  1201.425 eV
 623( 0) :    44.163313 a.u.  1201.745 eV
 624( 0) :    44.173392 a.u.  1202.019 eV
 625( 0) :    44.182192 a.u.  1202.259 eV
 626( 0) :    44.206020 a.u.  1202.907 eV
 627( 0) :    44.208174 a.u.  1202.966 eV
 628( 0) :    44.222175 a.u.  1203.347 eV
 629( 0) :    44.265784 a.u.  1204.533 eV
 630( 0) :   205.086248 a.u.  5580.681 eV
 631( 0) :   205.139471 a.u.  5582.129 eV
 632( 0) :   205.149882 a.u.  5582.412 eV
 633( 0) :   205.160533 a.u.  5582.702 eV
 634( 0) :   205.174749 a.u.  5583.089 eV
 635( 0) :   205.176175 a.u.  5583.128 eV
 636( 0) :   205.187247 a.u.  5583.429 eV
 637( 0) :   205.197494 a.u.  5583.708 eV
 638( 0) :   205.201048 a.u.  5583.804 eV
 639( 0) :   205.203503 a.u.  5583.871 eV
 640( 0) :   205.207196 a.u.  5583.972 eV
 641( 0) :   205.214445 a.u.  5584.169 eV
 642( 0) :   205.214947 a.u.  5584.183 eV
 643( 0) :   205.218834 a.u.  5584.288 eV
 644( 0) :   205.235851 a.u.  5584.751 eV
-------
TIMINGS
-------

Total SCF time: 0 days 0 hours 5 min 32 sec 

Total time                  ....     332.081 sec
Sum of individual times     ....     319.065 sec  ( 96.1%)

Fock matrix formation       ....     308.617 sec  ( 92.9%)
  Split-RI-J                ....      89.364 sec  ( 29.0% of F)
  XC integration            ....     198.724 sec  ( 64.4% of F)
    Basis function eval.    ....      28.744 sec  ( 14.5% of XC)
    Density eval.           ....      87.209 sec  ( 43.9% of XC)
    XC-Functional eval.     ....       5.985 sec  (  3.0% of XC)
    XC-Potential eval.      ....      51.107 sec  ( 25.7% of XC)
Diagonalization             ....       3.743 sec  (  1.1%)
Density matrix formation    ....       0.567 sec  (  0.2%)
Population analysis         ....       1.111 sec  (  0.3%)
Initial guess               ....       0.215 sec  (  0.1%)
Orbital Transformation      ....       0.127 sec  (  0.0%)
Orbital Orthonormalization  ....       0.179 sec  (  0.1%)
DIIS solution               ....       1.380 sec  (  0.4%)
Grid generation             ....       3.302 sec  (  1.0%)

Maximum memory used throughout the entire SCF-calculation: 685.5 MB

-------------------------   --------------------
FINAL SINGLE POINT ENERGY     -3300.907425307316
-------------------------   --------------------

                                *** OPTIMIZATION RUN DONE ***

                            ***************************************
                            *     ORCA property calculations      *
                            ***************************************

                                    ---------------------
                                    Active property flags
                                    ---------------------
   (+) Dipole Moment


------------------------------------------------------------------------------
                       ORCA ELECTRIC PROPERTIES CALCULATION
------------------------------------------------------------------------------

Dipole Moment Calculation                       ... on
Quadrupole Moment Calculation                   ... off
Polarizability Calculation                      ... off
GBWName                                         ... pbe.gbw
Electron density                                ... pbe.scfp
The origin for moment calculation is the CENTER OF MASS  = (13.763190, 15.498311 15.851299)

-------------
DIPOLE MOMENT
-------------
                                X             Y             Z
Electronic contribution:    -28.12820      -1.94374      10.12112
Nuclear contribution   :     28.66324       1.97950     -10.32376
                        -----------------------------------------
Total Dipole Moment    :      0.53504       0.03576      -0.20264
                        -----------------------------------------
Magnitude (a.u.)       :      0.57325
Magnitude (Debye)      :      1.45708



--------------------
Rotational spectrum 
--------------------
 
Rotational constants in cm-1:     0.001085     0.000889     0.000841 
Rotational constants in MHz :    32.529626    26.657452    25.211710 

 Dipole components along the rotational axes: 
x,y,z [a.u.] :     0.572051     0.001495     0.036968 
x,y,z [Debye]:     1.454037     0.003799     0.093966 

 

Timings for individual modules:

Sum of individual times         ...    14835.004 sec (= 247.250 min)
GTO integral calculation        ...      231.847 sec (=   3.864 min)   1.6 %
SCF iterations                  ...    12259.793 sec (= 204.330 min)  82.6 %
SCF Gradient evaluation         ...     2333.154 sec (=  38.886 min)  15.7 %
Geometry relaxation             ...       10.210 sec (=   0.170 min)   0.1 %
                             ****ORCA TERMINATED NORMALLY****
TOTAL RUN TIME: 0 days 4 hours 7 minutes 19 seconds 571 msec
