
                                 *****************
                                 * O   R   C   A *
                                 *****************

                                            #,                                       
                                            ###                                      
                                            ####                                     
                                            #####                                    
                                            ######                                   
                                           ########,                                 
                                     ,,################,,,,,                         
                               ,,#################################,,                 
                          ,,##########################################,,             
                       ,#########################################, ''#####,          
                    ,#############################################,,   '####,        
                  ,##################################################,,,,####,       
                ,###########''''           ''''###############################       
              ,#####''   ,,,,##########,,,,          '''####'''          '####       
            ,##' ,,,,###########################,,,                        '##       
           ' ,,###''''                  '''############,,,                           
         ,,##''                                '''############,,,,        ,,,,,,###''
      ,#''                                            '''#######################'''  
     '                                                          ''''####''''         
             ,#######,   #######,   ,#######,      ##                                
            ,#'     '#,  ##    ##  ,#'     '#,    #''#        ######   ,####,        
            ##       ##  ##   ,#'  ##            #'  '#       #        #'  '#        
            ##       ##  #######   ##           ,######,      #####,   #    #        
            '#,     ,#'  ##    ##  '#,     ,#' ,#      #,         ##   #,  ,#        
             '#######'   ##     ##  '#######'  #'      '#     #####' # '####'        



                  #######################################################
                  #                        -***-                        #
                  #          Department of theory and spectroscopy      #
                  #    Directorship and core code : Frank Neese         #
                  #        Max Planck Institute fuer Kohlenforschung    #
                  #                Kaiser Wilhelm Platz 1               #
                  #                 D-45470 Muelheim/Ruhr               #
                  #                      Germany                        #
                  #                                                     #
                  #                  All rights reserved                #
                  #                        -***-                        #
                  #######################################################


                         Program Version 5.0.3 -  RELEASE  -


 With contributions from (in alphabetic order):
   Daniel Aravena         : Magnetic Suceptibility
   Michael Atanasov       : Ab Initio Ligand Field Theory (pilot matlab implementation)
   Alexander A. Auer      : GIAO ZORA, VPT2 properties, NMR spectrum
   Ute Becker             : Parallelization
   Giovanni Bistoni       : ED, misc. LED, open-shell LED, HFLD
   Martin Brehm           : Molecular dynamics
   Dmytro Bykov           : SCF Hessian
   Vijay G. Chilkuri      : MRCI spin determinant printing, contributions to CSF-ICE
   Dipayan Datta          : RHF DLPNO-CCSD density
   Achintya Kumar Dutta   : EOM-CC, STEOM-CC
   Dmitry Ganyushin       : Spin-Orbit,Spin-Spin,Magnetic field MRCI
   Miquel Garcia          : C-PCM and meta-GGA Hessian, CC/C-PCM, Gaussian charge scheme
   Yang Guo               : DLPNO-NEVPT2, F12-NEVPT2, CIM, IAO-localization
   Andreas Hansen         : Spin unrestricted coupled pair/coupled cluster methods
   Benjamin Helmich-Paris : MC-RPA, TRAH-SCF, COSX integrals
   Lee Huntington         : MR-EOM, pCC
   Robert Izsak           : Overlap fitted RIJCOSX, COSX-SCS-MP3, EOM
   Marcus Kettner         : VPT2
   Christian Kollmar      : KDIIS, OOCD, Brueckner-CCSD(T), CCSD density, CASPT2, CASPT2-K
   Simone Kossmann        : Meta GGA functionals, TD-DFT gradient, OOMP2, MP2 Hessian
   Martin Krupicka        : Initial AUTO-CI
   Lucas Lang             : DCDCAS
   Marvin Lechner         : AUTO-CI (C++ implementation), FIC-MRCC
   Dagmar Lenk            : GEPOL surface, SMD
   Dimitrios Liakos       : Extrapolation schemes; Compound Job, initial MDCI parallelization
   Dimitrios Manganas     : Further ROCIS development; embedding schemes
   Dimitrios Pantazis     : SARC Basis sets
   Anastasios Papadopoulos: AUTO-CI, single reference methods and gradients
   Taras Petrenko         : DFT Hessian,TD-DFT gradient, ASA, ECA, R-Raman, ABS, FL, XAS/XES, NRVS
   Peter Pinski           : DLPNO-MP2, DLPNO-MP2 Gradient
   Christoph Reimann      : Effective Core Potentials
   Marius Retegan         : Local ZFS, SOC
   Christoph Riplinger    : Optimizer, TS searches, QM/MM, DLPNO-CCSD(T), (RO)-DLPNO pert. Triples
   Tobias Risthaus        : Range-separated hybrids, TD-DFT gradient, RPA, STAB
   Michael Roemelt        : Original ROCIS implementation
   Masaaki Saitow         : Open-shell DLPNO-CCSD energy and density
   Barbara Sandhoefer     : DKH picture change effects
   Avijit Sen             : IP-ROCIS
   Kantharuban Sivalingam : CASSCF convergence, NEVPT2, FIC-MRCI
   Bernardo de Souza      : ESD, SOC TD-DFT
   Georgi Stoychev        : AutoAux, RI-MP2 NMR, DLPNO-MP2 response
   Willem Van den Heuvel  : Paramagnetic NMR
   Boris Wezisla          : Elementary symmetry handling
   Frank Wennmohs         : Technical directorship


 We gratefully acknowledge several colleagues who have allowed us to
 interface, adapt or use parts of their codes:
   Stefan Grimme, W. Hujo, H. Kruse, P. Pracht,  : VdW corrections, initial TS optimization,
                  C. Bannwarth, S. Ehlert          DFT functionals, gCP, sTDA/sTD-DF
   Ed Valeev, F. Pavosevic, A. Kumar             : LibInt (2-el integral package), F12 methods
   Garnet Chan, S. Sharma, J. Yang, R. Olivares  : DMRG
   Ulf Ekstrom                                   : XCFun DFT Library
   Mihaly Kallay                                 : mrcc  (arbitrary order and MRCC methods)
   Jiri Pittner, Ondrej Demel                    : Mk-CCSD
   Frank Weinhold                                : gennbo (NPA and NBO analysis)
   Christopher J. Cramer and Donald G. Truhlar   : smd solvation model
   Lars Goerigk                                  : TD-DFT with DH, B97 family of functionals
   V. Asgeirsson, H. Jonsson                     : NEB implementation
   FAccTs GmbH                                   : IRC, NEB, NEB-TS, DLPNO-Multilevel, CI-OPT
                                                   MM, QMMM, 2- and 3-layer-ONIOM, Crystal-QMMM,
                                                   LR-CPCM, SF, NACMEs, symmetry and pop. for TD-DFT,
                                                   nearIR, NL-DFT gradient (VV10), updates on ESD,
                                                   ML-optimized integration grids
   S Lehtola, MJT Oliveira, MAL Marques          : LibXC Library
   Liviu Ungur et al                             : ANISO software


 Your calculation uses the libint2 library for the computation of 2-el integrals
 For citations please refer to: http://libint.valeyev.net

 Your ORCA version has been built with support for libXC version: 5.1.0
 For citations please refer to: https://tddft.org/programs/libxc/

 This ORCA versions uses:
   CBLAS   interface :  Fast vector & matrix operations
   LAPACKE interface :  Fast linear algebra routines
   SCALAPACK package :  Parallel linear algebra routines
   Shared memory     :  Shared parallel matrices
   BLAS/LAPACK       :  OpenBLAS 0.3.15  USE64BITINT DYNAMIC_ARCH NO_AFFINITY Sandybridge SINGLE_THREADED
        Core in use  :  Sandybridge
   Copyright (c) 2011-2014, The OpenBLAS Project




***************************************
The coordinates will be read from file: pbe.xyz
***************************************


================================================================================

cite the ECPs for Au [Def2-ECP] as follows:
Ce-Yb(ecp-28): M. Dolg, H. Stoll, H.Preuss, J. Chem. Phys., 1989, 90, 1730-1734.
Y-Cd(ecp-28), Hf-Hg(ecp-46): D. Andrae,U. Haeussermann, M. Dolg, H. Stoll, H. Preuss, Theor. Chim. Acta, 1990, 77, 123-141.
In-Sb(ecp-28), Tl-Bi(ecp-46): B. Metz, H. Stoll, M. Dolg, J. Chem. Phys., 2000, 113, 2563-2569.
Te-Xe(ecp-28), Po-Rn(ecp-46): K. A. Peterson, D. Figgen, E. Goll, H. Stoll, M. Dolg, J. Chem. Phys., 2003, 119, 11113-11123.
Rb(ecp-28), Cs(ecp-46): T. Leininger, A. Nicklass, W. Kuechle, H. Stoll, M. Dolg, A. Bergner, Chem. Phys. Lett., 1996, 255, 274-280.
Sr(ecp-28), Ba(ecp-46): M. Kaupp, P. V. Schleyer, H. Stoll and H. Preuss, J. Chem. Phys., 1991, 94, 1360-1366.
La(ecp-46): M. Dolg, H. Stoll, A. Savin, H. Preuss, Theor. Chim. Acta, 1989, 75, 173-194.
Lu(ecp-28): X. Cao, M. Dolg, J. Chem. Phys., 2001, 115, 7348-7355.

ECP parameters for Au [Def2-ECP] have been obtained from:
TURBOMOLE (7.0.2)

----- Orbital basis set information -----
Your calculation utilizes the basis: def2-TZVP
   F. Weigend and R. Ahlrichs, Phys. Chem. Chem. Phys. 7, 3297 (2005).

----- AuxJ basis set information -----
Your calculation utilizes the auxiliary basis: def2/J
   F. Weigend, Phys. Chem. Chem. Phys. 8, 1057 (2006).

----- AuxC basis set information -----
Your calculation utilizes the auxiliary basis: def2-TZVP/C
  H-La, Hf-Rn : A. Hellweg, C. Hattig, S. Hofener and W. Klopper, Theor. Chem. Acc. 117, 587 (2007).
        Ce-Lu : J. Chmela and M. E. Harding, Mol. Phys. (2018).

================================================================================
                                        WARNINGS
                       Please study these warnings very carefully!
================================================================================


IMPORTANT NOTE: CASSCF must signal convergence for a subsequent CASPT2/NEVPT2! 
                Set maxiter=1 to run CASPT2/NEVPT2 with arbitrary orbitals.


INFO   : the flag for use of the SHARK integral package has been found!

================================================================================
                                       INPUT FILE
================================================================================
NAME = nevpt2.inp
|  1> !SC-NEVPT2 def2-TZVP def2-TZVP/C
|  2> !MOREAD RIJCOSX def2/J
|  3> %maxcore 4000
|  4> %moinp "casscf.gbw"
|  5> %pal nprocs 6 end 
|  6> 
|  7> %casscf
|  8>  mult 5,3
|  9>  bweight 1,1
| 10>  nroots 5,45
| 11>  nel 6
| 12>  norb 5
| 13>  ptsettings
| 14>   d4tpre 1e-14 # default = 1e-10
| 15>   d3tpre 1e-14
| 16>  end
| 17>  rel           
| 18>    dosoc true   
| 19>    gtensor true 
| 20>  end           
| 21> end
| 22> 
| 23> 
| 24> *xyzfile 0 5 pbe.xyz
| 25> 
| 26> 
| 27>                          ****END OF INPUT****
================================================================================

                       ****************************
                       * Single Point Calculation *
                       ****************************

---------------------------------
CARTESIAN COORDINATES (ANGSTROEM)
---------------------------------
  Au     4.858170    6.854492    8.286054
  Au     7.727526    5.172268    5.072792
  Au     6.739658    4.933071    7.650575
  Au     7.670542    7.363651    9.072723
  Au     9.311775    6.232915    7.201408
  Au     8.892769    7.842344    4.983911
  Au     6.208531    9.453851    8.234679
  Au     4.800359   11.024137    6.520992
  Au     3.307671    9.092769    8.043440
  Au     4.375303    8.247261    5.692337
  Au     6.169701    7.158663    4.019741
  Au     6.889212    9.711962    5.345187
  Fe     6.843050    7.337333    6.565930

----------------------------
CARTESIAN COORDINATES (A.U.)
----------------------------
  NO LB      ZA    FRAG     MASS         X           Y           Z
   0 Au   19.0000*   0   196.966    9.180611   12.953114   15.658373
   1 Au   19.0000*   0   196.966   14.602908    9.774170    9.586187
   2 Au   19.0000*   0   196.966   12.736107    9.322153   14.457491
   3 Au   19.0000*   0   196.966   14.495224   13.915283   17.144961
   4 Au   19.0000*   0   196.966   17.596704   11.778502   13.608689
   5 Au   19.0000*   0   196.966   16.804898   14.819883    9.418227
   6 Au   19.0000*   0   196.966   11.732424   17.865189   15.561289
   7 Au   19.0000*   0   196.966    9.071364   20.832601   12.322888
   8 Au   19.0000*   0   196.966    6.250592   17.182842   15.199898
   9 Au   19.0000*   0   196.966    8.268124   15.585065   10.756958
  10 Au   19.0000*   0   196.966   11.659045   13.527912    7.596210
  11 Au   19.0000*   0   196.966   13.018723   18.352949   10.100940
  12 Fe   26.0000    0    55.850   12.931491   13.865550   12.407810
* core charge reduced due to ECP

--------------------------------
INTERNAL COORDINATES (ANGSTROEM)
--------------------------------
 Au     0   0   0     0.000000000000     0.00000000     0.00000000
 Au     1   0   0     4.624731137205     0.00000000     0.00000000
 Au     1   2   0     2.763275400579    33.36722438     0.00000000
 Au     1   2   3     2.964376491093    70.01555985    69.61001024
 Au     4   1   2     2.733866351565   108.47335836   357.08882681
 Au     5   4   1     2.771844767545   102.51519673    69.47483220
 Au     4   1   2     2.684907892470    62.24286814   107.13230507
 Au     7   4   1     2.717623091621   158.24999469   292.80878149
 Au     1   2   3     2.733640130407   126.02042845   176.43744779
 Au     9   1   2     2.717058173606    66.36754714    12.83497719
 Au    10   9   1     2.683745043051   158.16197653   326.42848239
 Au     8   7   4     2.732695599923    66.28353047   326.27604090
 Fe     6   5   4     2.638023483026    61.74061639   323.94400981

---------------------------
INTERNAL COORDINATES (A.U.)
---------------------------
 Au     0   0   0     0.000000000000     0.00000000     0.00000000
 Au     1   0   0     8.739475292336     0.00000000     0.00000000
 Au     1   2   0     5.221833739696    33.36722438     0.00000000
 Au     1   2   3     5.601859726000    70.01555985    69.61001024
 Au     4   1   2     5.166258691201   108.47335836   357.08882681
 Au     5   4   1     5.238027496403   102.51519673    69.47483220
 Au     4   1   2     5.073740611572    62.24286814   107.13230507
 Au     7   4   1     5.135563378383   158.24999469   292.80878149
 Au     1   2   3     5.165831195166   126.02042845   176.43744779
 Au     9   1   2     5.134495838048    66.36754714    12.83497719
 Au    10   9   1     5.071543144635   158.16197653   326.42848239
 Au     8   7   4     5.164046291226    66.28353047   326.27604090
 Fe     6   5   4     4.985141917772    61.74061639   323.94400981

---------------------
BASIS SET INFORMATION
---------------------
There are 2 groups of distinct atoms

 Group   1 Type Au  : 8s7p6d1f contracted to 6s4p3d1f pattern {311111/4111/411/1}
 Group   2 Type Fe  : 17s11p7d1f contracted to 6s4p4d1f pattern {842111/6311/4111/1}

Atom   0Au   basis set group =>   1
Atom   1Au   basis set group =>   1
Atom   2Au   basis set group =>   1
Atom   3Au   basis set group =>   1
Atom   4Au   basis set group =>   1
Atom   5Au   basis set group =>   1
Atom   6Au   basis set group =>   1
Atom   7Au   basis set group =>   1
Atom   8Au   basis set group =>   1
Atom   9Au   basis set group =>   1
Atom  10Au   basis set group =>   1
Atom  11Au   basis set group =>   1
Atom  12Fe   basis set group =>   2
---------------------------------
AUXILIARY/J BASIS SET INFORMATION
---------------------------------
There are 2 groups of distinct atoms

 Group   1 Type Au  : 11s5p5d3f3g contracted to 8s5p5d2f3g pattern {41111111/11111/11111/21/111}
 Group   2 Type Fe  : 19s5p5d3f3g contracted to 8s5p5d2f3g pattern {121111111/11111/11111/21/111}

Atom   0Au   basis set group =>   1
Atom   1Au   basis set group =>   1
Atom   2Au   basis set group =>   1
Atom   3Au   basis set group =>   1
Atom   4Au   basis set group =>   1
Atom   5Au   basis set group =>   1
Atom   6Au   basis set group =>   1
Atom   7Au   basis set group =>   1
Atom   8Au   basis set group =>   1
Atom   9Au   basis set group =>   1
Atom  10Au   basis set group =>   1
Atom  11Au   basis set group =>   1
Atom  12Fe   basis set group =>   2
---------------------------------
AUXILIARY/C BASIS SET INFORMATION
---------------------------------
There are 2 groups of distinct atoms

 Group   1 Type Au  : 8s8p7d5f3g2h contracted to 8s8p7d5f3g2h pattern {11111111/11111111/1111111/11111/111/11}
 Group   2 Type Fe  : 11s9p8d6f5g2h contracted to 9s8p8d6f5g2h pattern {311111111/21111111/11111111/111111/11111/11}

Atom   0Au   basis set group =>   1
Atom   1Au   basis set group =>   1
Atom   2Au   basis set group =>   1
Atom   3Au   basis set group =>   1
Atom   4Au   basis set group =>   1
Atom   5Au   basis set group =>   1
Atom   6Au   basis set group =>   1
Atom   7Au   basis set group =>   1
Atom   8Au   basis set group =>   1
Atom   9Au   basis set group =>   1
Atom  10Au   basis set group =>   1
Atom  11Au   basis set group =>   1
Atom  12Fe   basis set group =>   2
-------------------------
ECP PARAMETER INFORMATION
-------------------------

 Group 1, Type Au ECP Def2-ECP (replacing 60 core electrons, lmax=3)

Atom   0Au   ECP group =>   1
Atom   1Au   ECP group =>   1
Atom   2Au   ECP group =>   1
Atom   3Au   ECP group =>   1
Atom   4Au   ECP group =>   1
Atom   5Au   ECP group =>   1
Atom   6Au   ECP group =>   1
Atom   7Au   ECP group =>   1
Atom   8Au   ECP group =>   1
Atom   9Au   ECP group =>   1
Atom  10Au   ECP group =>   1
Atom  11Au   ECP group =>   1



           ************************************************************
           *        Program running with 6 parallel MPI-processes     *
           *              working on a common directory               *
           ************************************************************
------------------------------------------------------------------------------
                           ORCA GTO INTEGRAL CALCULATION
                           -- RI-GTO INTEGRALS CHOSEN --
------------------------------------------------------------------------------
------------------------------------------------------------------------------
                   ___                                                        
                  /   \      - P O W E R E D   B Y -                         
                 /     \                                                     
                 |  |  |   _    _      __       _____    __    __             
                 |  |  |  | |  | |    /  \     |  _  \  |  |  /  |          
                  \  \/   | |  | |   /    \    | | | |  |  | /  /          
                 / \  \   | |__| |  /  /\  \   | |_| |  |  |/  /          
                |  |  |   |  __  | /  /__\  \  |    /   |      \           
                |  |  |   | |  | | |   __   |  |    \   |  |\   \          
                \     /   | |  | | |  |  |  |  | |\  \  |  | \   \       
                 \___/    |_|  |_| |__|  |__|  |_| \__\ |__|  \__/        
                                                                              
                      - O R C A' S   B I G   F R I E N D -                    
                                      &                                       
                       - I N T E G R A L  F E E D E R -                       
                                                                              
 v1 FN, 2020, v2 2021                                                         
------------------------------------------------------------------------------


Reading SHARK input file nevpt2.SHARKINP.tmp ... ok
----------------------
SHARK INTEGRAL PACKAGE
----------------------

Number of atoms                             ...     13
Number of basis functions                   ...    525
Number of shells                            ...    183
Maximum angular momentum                    ...      3
Integral batch strategy                     ... SHARK/LIBINT Hybrid
RI-J (if used) integral strategy            ... SPLIT-RIJ (Revised 2003 algorithm where possible)
Printlevel                                  ...      1
Contraction scheme used                     ... SEGMENTED contraction
Coulomb Range Separation                    ... NOT USED
Exchange Range Separation                   ... NOT USED
Finite Nucleus Model                        ... NOT USED
Auxiliary Coulomb fitting basis             ... AVAILABLE
   # of basis functions in Aux-J            ...   1157
   # of shells in Aux-J                     ...    299
   Maximum angular momentum in Aux-J        ...      4
Auxiliary J/K fitting basis                 ... NOT available
Auxiliary Correlation fitting basis         ... AVAILABLE
   # of basis functions in Aux-C            ...   1994
   # of shells in Aux-C                     ...    434
   Maximum angular momentum in Aux-C        ...      5
Auxiliary 'external' fitting basis          ... NOT available
Integral threshold                          ...     1.000000e-10
Primitive cut-off                           ...     1.000000e-11
Primitive pair pre-selection threshold      ...     1.000000e-11

Calculating pre-screening integrals         ... done (  0.2 sec) Dimension = 183
Organizing shell pair data                  ... done (  1.4 sec)
Shell pair information
Total number of shell pairs                 ...     16836
Shell pairs after pre-screening             ...     13675
Total number of primitive shell pairs       ...     45389
Primitive shell pairs kept                  ...     26968
          la=0 lb=0:   2150 shell pairs
          la=1 lb=0:   3134 shell pairs
          la=1 lb=1:   1168 shell pairs
          la=2 lb=0:   2718 shell pairs
          la=2 lb=1:   1900 shell pairs
          la=2 lb=2:    787 shell pairs
          la=3 lb=0:    718 shell pairs
          la=3 lb=1:    550 shell pairs
          la=3 lb=2:    474 shell pairs
          la=3 lb=3:     76 shell pairs

Calculating one electron integrals          ... done (  0.1 sec)
Calculating ECP integrals                   ... done ( 12.0 sec)
Calculating RI/J V-Matrix + Cholesky decomp.... done (  0.1 sec)
Calculating RI/C V-Matrix + Cholesky decomp.... done (  0.3 sec)
Calculating Nuclear repulsion               ... done (  0.0 sec) ENN=   4394.951559719072 Eh

SHARK setup successfully completed in  14.5 seconds

Maximum memory used throughout the entire GTOINT-calculation: 39.1 MB


           ************************************************************
           *        Program running with 6 parallel MPI-processes     *
           *              working on a common directory               *
           ************************************************************
-------------------------------------------------------------------------------
                                 ORCA SCF
-------------------------------------------------------------------------------

------------
SCF SETTINGS
------------
Hamiltonian:
 Ab initio Hamiltonian  Method          .... Hartree-Fock(GTOs)
 RI-approximation to the Coulomb term is turned on
   Number of AuxJ basis functions       .... 1157
   RIJ-COSX (HFX calculated with COS-X)).... on


General Settings:
 Integral files         IntName         .... nevpt2
 Hartree-Fock type      HFTyp           .... CASSCF
 Total Charge           Charge          ....    0
 Multiplicity           Mult            ....    5
 Number of Electrons    NEL             ....  254
 Basis Dimension        Dim             ....  525
 Nuclear Repulsion      ENuc            ....   4394.9515597191 Eh


Diagonalization of the overlap matrix:
Smallest eigenvalue                        ... 4.178e-04
Time for diagonalization                   ...    0.095 sec
Threshold for overlap eigenvalues          ... 1.000e-08
Number of eigenvalues below threshold      ... 0
Time for construction of square roots      ...    0.080 sec
Total time needed                          ...    0.177 sec

---------------------
INITIAL GUESS: MOREAD
---------------------
Guess MOs are being read from file: casscf.gbw
Input Geometry matches current geometry (good)
Input basis set matches current basis set (good)
MOs were renormalized
Gram-Schmidt orthogonalization of all MOs with pivot on actives
                      ------------------
                      INITIAL GUESS DONE (  11.0 sec)
                      ------------------
--------------------
COSX GRID GENERATION
--------------------

GRIDX 1
-------
General Integration Accuracy     IntAcc      ... 3.816
Radial Grid Type                 RadialGrid  ... OptM3 with GC (2021)
Angular Grid (max. ang.)         AngularGrid ... 1 (Lebedev-50)
Angular grid pruning method      GridPruning ... 4 (adaptive)
Weight generation scheme         WeightScheme... Becke
Basis function cutoff            BFCut       ... 1.0000e-10
Integration weight cutoff        WCut        ... 1.0000e-14
Angular grids for H and He will be reduced by one unit
Partially contracted basis set               ... on
Rotationally invariant grid construction     ... off

Total number of grid points                  ...    15250
Total number of batches                      ...      245
Average number of points per batch           ...       62
Average number of grid points per atom       ...     1173
UseSFitting                                  ... on

GRIDX 2
-------
General Integration Accuracy     IntAcc      ... 4.020
Radial Grid Type                 RadialGrid  ... OptM3 with GC (2021)
Angular Grid (max. ang.)         AngularGrid ... 2 (Lebedev-110)
Angular grid pruning method      GridPruning ... 4 (adaptive)
Weight generation scheme         WeightScheme... Becke
Basis function cutoff            BFCut       ... 1.0000e-10
Integration weight cutoff        WCut        ... 1.0000e-14
Angular grids for H and He will be reduced by one unit
Partially contracted basis set               ... on
Rotationally invariant grid construction     ... off

Total number of grid points                  ...    46081
Total number of batches                      ...      726
Average number of points per batch           ...       63
Average number of grid points per atom       ...     3545
UseSFitting                                  ... on

GRIDX 3
-------
General Integration Accuracy     IntAcc      ... 4.338
Radial Grid Type                 RadialGrid  ... OptM3 with GC (2021)
Angular Grid (max. ang.)         AngularGrid ... 3 (Lebedev-194)
Angular grid pruning method      GridPruning ... 4 (adaptive)
Weight generation scheme         WeightScheme... Becke
Basis function cutoff            BFCut       ... 1.0000e-10
Integration weight cutoff        WCut        ... 1.0000e-14
Angular grids for H and He will be reduced by one unit
Partially contracted basis set               ... on
Rotationally invariant grid construction     ... off

Total number of grid points                  ...    84327
Total number of batches                      ...     1325
Average number of points per batch           ...       63
Average number of grid points per atom       ...     6487
UseSFitting                                  ... on

Time for X-Grid setup             =    2.397 sec



 ... the calculation is a CASSCF calculation -I'm leaving here GOOD LUCK!!!



           ************************************************************
           *        Program running with 6 parallel MPI-processes     *
           *              working on a common directory               *
           ************************************************************
-------------------------------------------------------------------------------
                              ORCA-CASSCF
-------------------------------------------------------------------------------

Setting up the integral package       ... done
Setting up the integral package (RI)  ... done
Building the CAS space                ... done (5 configurations for Mult=5)
Building the CAS space                ... done (35 configurations for Mult=3)

 CASSCF (estimated) memory needed     ... 113.4 MB
 NEVPT2 (estimated) memory needed     ... 377.6 MB


SYSTEM-SPECIFIC SETTINGS:
Number of active electrons          ...    6
Number of active orbitals           ...    5
Total number of electrons           ...  254
Total number of orbitals            ...  525
Total number aux. functions         ... 1994

Determined orbital ranges:
   Internal       0 -  123 ( 124 orbitals)
   Active       124 -  128 (   5 orbitals)
   External     129 -  524 ( 396 orbitals)
Number of rotation parameters      ...  51704

CI-STEP:
CI strategy                         ... General CI
Number of multiplicity blocks       ...    2
BLOCK  1 WEIGHT=   0.5000
  Multiplicity                      ...    5
  #(Configurations)                 ...    5
  #(CSFs)                           ...    5
  #(Roots)                          ...    5
    ROOT=0 WEIGHT=    0.100000
    ROOT=1 WEIGHT=    0.100000
    ROOT=2 WEIGHT=    0.100000
    ROOT=3 WEIGHT=    0.100000
    ROOT=4 WEIGHT=    0.100000

BLOCK  2 WEIGHT=   0.5000
  Multiplicity                      ...    3
  #(Configurations)                 ...   35
  #(CSFs)                           ...   45
  #(Roots)                          ...   45
    ROOT=0 WEIGHT=    0.011111
    ROOT=1 WEIGHT=    0.011111
    ROOT=2 WEIGHT=    0.011111
    ROOT=3 WEIGHT=    0.011111
    ROOT=4 WEIGHT=    0.011111
    ROOT=5 WEIGHT=    0.011111
    ROOT=6 WEIGHT=    0.011111
    ROOT=7 WEIGHT=    0.011111
    ROOT=8 WEIGHT=    0.011111
    ROOT=9 WEIGHT=    0.011111
    ROOT=10 WEIGHT=    0.011111
    ROOT=11 WEIGHT=    0.011111
    ROOT=12 WEIGHT=    0.011111
    ROOT=13 WEIGHT=    0.011111
    ROOT=14 WEIGHT=    0.011111
    ROOT=15 WEIGHT=    0.011111
    ROOT=16 WEIGHT=    0.011111
    ROOT=17 WEIGHT=    0.011111
    ROOT=18 WEIGHT=    0.011111
    ROOT=19 WEIGHT=    0.011111
    ROOT=20 WEIGHT=    0.011111
    ROOT=21 WEIGHT=    0.011111
    ROOT=22 WEIGHT=    0.011111
    ROOT=23 WEIGHT=    0.011111
    ROOT=24 WEIGHT=    0.011111
    ROOT=25 WEIGHT=    0.011111
    ROOT=26 WEIGHT=    0.011111
    ROOT=27 WEIGHT=    0.011111
    ROOT=28 WEIGHT=    0.011111
    ROOT=29 WEIGHT=    0.011111
    ROOT=30 WEIGHT=    0.011111
    ROOT=31 WEIGHT=    0.011111
    ROOT=32 WEIGHT=    0.011111
    ROOT=33 WEIGHT=    0.011111
    ROOT=34 WEIGHT=    0.011111
    ROOT=35 WEIGHT=    0.011111
    ROOT=36 WEIGHT=    0.011111
    ROOT=37 WEIGHT=    0.011111
    ROOT=38 WEIGHT=    0.011111
    ROOT=39 WEIGHT=    0.011111
    ROOT=40 WEIGHT=    0.011111
    ROOT=41 WEIGHT=    0.011111
    ROOT=42 WEIGHT=    0.011111
    ROOT=43 WEIGHT=    0.011111
    ROOT=44 WEIGHT=    0.011111

  PrintLevel                        ...    1
  N(GuessMat)                       ...       512
  MaxDim(CI)                        ...        10
  MaxIter(CI)                       ...        64
  Energy Tolerance CI               ...  1.00e-08
  Residual Tolerance CI             ...  1.00e-08
  Shift(CI)                         ...  1.00e-04

INTEGRAL-TRANSFORMATION-STEP:
  Algorithm                         ... RI-MO

ORBITAL-IMPROVEMENT-STEP:
  Algorithm                         ... SuperCI(PT)
  Default Parametrization           ... CAYLEY
  Act-Act rotations                 ... depends on algorithm used

  Note: SuperCI(PT) will ignore FreezeIE, FreezeAct and FreezeGrad. In general Default settings are encouraged.
        In conjunction with ShiftUp, ShiftDn or GradScaling the performance of SuperCI(PT) is less optimal.  

  MaxRot                            ... 2.00e-01 
  Max. no of vectors (DIIS)         ... 15
  DThresh (cut-off) metric          ... 1.00e-06
  Switch step at gradient           ...  3.00e-02 
  Switch step at iteration          ...        50   
  Switch step to                    ... SuperCI(PT)    

SCF-SETTINGS:
  Incremental                       ... off
  RIJCOSX approximation             ... on
  UseFinalGrid                      ... on
  RI-JK approximation               ... off
  AO integral handling              ... DIRECT
  Integral Neglect Thresh           ...  1.00e-10
  Primitive cutoff TCut             ...  1.00e-11
  Energy convergence tolerance      ...  1.00e-07
  Orbital gradient convergence      ...  1.00e-03
  Max. number of iterations         ...        75  

PT2-SETTINGS:
  A PT2 calculation will be performed on top of the CASSCF wave function (PT2 = SC-NEVPT2)   
 CI step strategy                   ... General CI
  D4C handling                      ... on the fly 
  CI truncation for D4C at          ...  1.00e-14
  CI truncation for D3  at          ...  1.00e-14
  Orbitals                          ... canonical for each state 
  Last  frozen  orbital             ... 4
  First deleted orbital             ... 525
  RI Step                           ... store IJV(array) (MC_ONDISK during integral transformation) 

PROPERTIES-SETTINGS:
  Spin orbit coupling               ... true
  GTensor                           ... true
  QDPT diagonal energies            ... NEVPT2 energies 

FINAL ORBITALS:
  Active   Orbitals                 ... natural 
  Internal Orbitals                 ... canonical 
  External Orbitals                 ... canonical 

------------------
CAS-SCF ITERATIONS
------------------


MACRO-ITERATION   1: 
   --- Inactive Energy E0 = -2869.52600242 Eh
CI-ITERATION   0: 
 -2880.079864326   0.000000000000 (    0.00)
 -2880.070127833   0.000000000000
 -2880.050587795   0.000000000000
 -2880.029196015   0.000000000000
 -2879.978708752   0.000000000000
   CI-PROBLEM SOLVED
   DENSITIES MADE
CI-ITERATION   0: 
 -2880.082525753   0.000000000000 (    0.01)
 -2880.068664597   0.000000000000
 -2880.061854145   0.000000000000
 -2880.040718396   0.000000000000
 -2880.000004526   0.000000000000
 -2879.999241109   0.000000000000
 -2879.995566262   0.000000000000
 -2879.993333221   0.000000000000
 -2879.990974328   0.000000000000
 -2879.990374924   0.000000000000
 -2879.989234642   0.000000000000
 -2879.987319654   0.000000000000
 -2879.977155655   0.000000000000
 -2879.972385083   0.000000000000
 -2879.970929598   0.000000000000
 -2879.967847394   0.000000000000
 -2879.959778486   0.000000000000
 -2879.956358243   0.000000000000
 -2879.948532606   0.000000000000
 -2879.946558915   0.000000000000
 -2879.898935623   0.000000000000
 -2879.895075333   0.000000000000
 -2879.893868371   0.000000000000
 -2879.888685318   0.000000000000
 -2879.887237209   0.000000000000
 -2879.879673073   0.000000000000
 -2879.868284799   0.000000000000
 -2879.866837958   0.000000000000
 -2879.862014907   0.000000000000
 -2879.859952454   0.000000000000
 -2879.856911963   0.000000000000
 -2879.852765337   0.000000000000
 -2879.852591302   0.000000000000
 -2879.839119827   0.000000000000
 -2879.819802015   0.000000000000
 -2879.798179967   0.000000000000
 -2879.780778320   0.000000000000
 -2879.774254163   0.000000000000
 -2879.770682944   0.000000000000
 -2879.562292384   0.000000000000
 -2879.557201806   0.000000000000
 -2879.551000225   0.000000000000
 -2879.545273556   0.000000000000
 -2879.514106539   0.000000000000
 -2879.497517051   0.000000000000
   CI-PROBLEM SOLVED
   DENSITIES MADE

                 <<<<<<<<<<<<<<<<<<INITIAL CI STATE CHECK>>>>>>>>>>>>>>>>>>

BLOCK  1 MULT= 5 NROOTS= 5 
ROOT   0:  E=   -2880.0798643262 Eh
      0.42539 [     2]: 11211
      0.42328 [     4]: 21111
      0.13961 [     3]: 12111
      0.00748 [     1]: 11121
      0.00423 [     0]: 11112
ROOT   1:  E=   -2880.0701278331 Eh  0.265 eV   2136.9 cm**-1
      0.81052 [     1]: 11121
      0.12674 [     2]: 11211
      0.06188 [     4]: 21111
ROOT   2:  E=   -2880.0505877952 Eh  0.797 eV   6425.5 cm**-1
      0.40251 [     4]: 21111
      0.33397 [     2]: 11211
      0.15680 [     1]: 11121
      0.10310 [     0]: 11112
      0.00362 [     3]: 12111
ROOT   3:  E=   -2880.0291960150 Eh  1.379 eV  11120.4 cm**-1
      0.89194 [     0]: 11112
      0.06570 [     4]: 21111
      0.02308 [     1]: 11121
      0.01926 [     2]: 11211
ROOT   4:  E=   -2879.9787087521 Eh  2.753 eV  22201.1 cm**-1
      0.85649 [     3]: 12111
      0.09464 [     2]: 11211
      0.04664 [     4]: 21111

BLOCK  2 MULT= 3 NROOTS=45 
ROOT   0:  E=   -2880.0825257532 Eh
      0.28948 [     8]: 10221
      0.17162 [    23]: 20121
      0.11372 [    11]: 11121
      0.10059 [    24]: 20211
      0.09911 [    16]: 12021
      0.06245 [     4]: 02121
      0.04012 [     2]: 01221
      0.03867 [    26]: 21021
      0.02996 [    28]: 21111
      0.01689 [    18]: 12111
      0.01302 [    13]: 11211
      0.01285 [    32]: 22011
      0.00721 [     5]: 02211
ROOT   1:  E=   -2880.0686645966 Eh  0.377 eV   3042.2 cm**-1
      0.35779 [    13]: 11211
      0.29072 [    28]: 21111
      0.13005 [    32]: 22011
      0.11024 [    18]: 12111
      0.08494 [     5]: 02211
      0.00667 [    24]: 20211
      0.00283 [    10]: 11112
ROOT   2:  E=   -2880.0618541445 Eh  0.563 eV   4536.9 cm**-1
      0.40063 [    24]: 20211
      0.09946 [    13]: 11211
      0.07550 [    28]: 21111
      0.07037 [    18]: 12111
      0.04989 [    23]: 20121
      0.04513 [     5]: 02211
      0.04223 [     7]: 10212
      0.04148 [    32]: 22011
      0.03611 [     8]: 10221
      0.02052 [    16]: 12021
      0.01987 [    11]: 11121
      0.01747 [    22]: 20112
      0.01374 [     4]: 02121
      0.01299 [    10]: 11112
      0.01294 [    26]: 21021
      0.01266 [    15]: 12012
      0.00805 [     3]: 02112
      0.00565 [     1]: 01212
      0.00477 [    25]: 21012
      0.00425 [     2]: 01221
ROOT   3:  E=   -2880.0407183961 Eh  1.138 eV   9175.7 cm**-1
      0.28875 [     7]: 10212
      0.21247 [    22]: 20112
      0.11259 [    15]: 12012
      0.10323 [    10]: 11112
      0.07340 [     3]: 02112
      0.04869 [    25]: 21012
      0.04616 [    24]: 20211
      0.04094 [     1]: 01212
      0.01414 [    28]: 21111
      0.01110 [    23]: 20121
      0.00952 [    32]: 22011
      0.00731 [    18]: 12111
      0.00546 [    13]: 11211
      0.00416 [     8]: 10221
      0.00322 [    11]: 11121
      0.00269 [     5]: 02211
ROOT   4:  E=   -2880.0000045262 Eh  2.246 eV  18111.3 cm**-1
      0.19147 [    13]: 11211
      0.18728 [    30]: 21201
      0.09002 [    11]: 11121
      0.07393 [    28]: 21111
      0.05202 [    18]: 12111
      0.05191 [     2]: 01221
      0.04061 [    31]: 21210
      0.03531 [    26]: 21021
      0.02997 [    33]: 22101
      0.02607 [     9]: 11022
      0.02453 [    16]: 12021
      0.02409 [     4]: 02121
      0.02375 [    20]: 12201
      0.02133 [    12]: 11202
      0.01808 [    14]: 11220
      0.01578 [    10]: 11112
      0.01538 [     1]: 01212
      0.01518 [     0]: 01122
      0.01104 [     5]: 02211
      0.01035 [    27]: 21102
      0.01011 [    32]: 22011
      0.00654 [    34]: 22110
      0.00626 [     3]: 02112
      0.00504 [    15]: 12012
      0.00467 [    21]: 12210
      0.00281 [     6]: 10122
ROOT   5:  E=   -2879.9992411087 Eh  2.266 eV  18278.9 cm**-1
      0.21279 [     2]: 01221
      0.20042 [    13]: 11211
      0.07031 [    11]: 11121
      0.05930 [    26]: 21021
      0.05794 [     1]: 01212
      0.04080 [    23]: 20121
      0.03892 [    14]: 11220
      0.03688 [    18]: 12111
      0.03448 [    30]: 21201
      0.02726 [     4]: 02121
      0.02503 [    31]: 21210
      0.02459 [    12]: 11202
      0.01880 [    28]: 21111
      0.01473 [     5]: 02211
      0.01357 [    24]: 20211
      0.01327 [     3]: 02112
      0.01211 [     8]: 10221
      0.00986 [    17]: 12102
      0.00983 [    19]: 12120
      0.00844 [    10]: 11112
      0.00823 [     6]: 10122
      0.00796 [     7]: 10212
      0.00725 [    27]: 21102
      0.00678 [    22]: 20112
      0.00537 [    15]: 12012
      0.00520 [    25]: 21012
      0.00459 [    32]: 22011
      0.00442 [    33]: 22101
      0.00437 [    20]: 12201
      0.00434 [     9]: 11022
      0.00373 [    34]: 22110
      0.00360 [    29]: 21120
      0.00278 [    21]: 12210
ROOT   6:  E=   -2879.9955662623 Eh  2.366 eV  19085.4 cm**-1
      0.25444 [    28]: 21111
      0.13145 [    26]: 21021
      0.11325 [    30]: 21201
      0.10125 [    11]: 11121
      0.07614 [    13]: 11211
      0.04957 [    18]: 12111
      0.04003 [    33]: 22101
      0.03279 [    23]: 20121
      0.02868 [    25]: 21012
      0.01930 [     8]: 10221
      0.01856 [     9]: 11022
      0.01527 [    12]: 11202
      0.01204 [    32]: 22011
      0.01180 [    16]: 12021
      0.01172 [    20]: 12201
      0.01108 [    22]: 20112
      0.01051 [    24]: 20211
      0.00927 [    10]: 11112
      0.00819 [    29]: 21120
      0.00743 [     6]: 10122
      0.00687 [     2]: 01221
      0.00687 [    31]: 21210
      0.00407 [    17]: 12102
      0.00327 [     0]: 01122
      0.00310 [     1]: 01212
      0.00296 [     5]: 02211
      0.00272 [     3]: 02112
      0.00255 [    15]: 12012
ROOT   7:  E=   -2879.9933332214 Eh  2.427 eV  19575.5 cm**-1
      0.24219 [    28]: 21111
      0.10772 [    14]: 11220
      0.06704 [    13]: 11211
      0.06547 [    29]: 21120
      0.06029 [    27]: 21102
      0.05508 [    24]: 20211
      0.04842 [    31]: 21210
      0.03807 [    19]: 12120
      0.03788 [    26]: 21021
      0.03326 [    11]: 11121
      0.03155 [    12]: 11202
      0.02990 [    10]: 11112
      0.02878 [     1]: 01212
      0.02235 [    17]: 12102
      0.01965 [     2]: 01221
      0.01671 [    18]: 12111
      0.01425 [    32]: 22011
      0.01344 [     7]: 10212
      0.01186 [     6]: 10122
      0.01057 [    23]: 20121
      0.00790 [    30]: 21201
      0.00728 [    21]: 12210
      0.00617 [     3]: 02112
      0.00565 [     8]: 10221
      0.00548 [     0]: 01122
      0.00386 [    34]: 22110
      0.00304 [    16]: 12021
ROOT   8:  E=   -2879.9909743278 Eh  2.491 eV  20093.2 cm**-1
      0.27422 [    11]: 11121
      0.25319 [    31]: 21210
      0.10632 [    28]: 21111
      0.04580 [    34]: 22110
      0.03694 [     2]: 01221
      0.03230 [    10]: 11112
      0.02708 [    14]: 11220
      0.02571 [     0]: 01122
      0.02359 [    23]: 20121
      0.02222 [    21]: 12210
      0.01976 [    18]: 12111
      0.01644 [     4]: 02121
      0.01445 [    25]: 21012
      0.01441 [     8]: 10221
      0.01230 [    24]: 20211
      0.01229 [    30]: 21201
      0.00874 [    13]: 11211
      0.00861 [     1]: 01212
      0.00824 [    15]: 12012
      0.00718 [    19]: 12120
      0.00516 [     3]: 02112
      0.00458 [    27]: 21102
      0.00341 [    33]: 22101
      0.00334 [    32]: 22011
      0.00322 [    12]: 11202
      0.00275 [     6]: 10122
ROOT   9:  E=   -2879.9903749244 Eh  2.508 eV  20224.8 cm**-1
      0.26798 [    13]: 11211
      0.15903 [    28]: 21111
      0.14237 [    29]: 21120
      0.11257 [    18]: 12111
      0.05697 [    11]: 11121
      0.05356 [    14]: 11220
      0.03889 [    10]: 11112
      0.02560 [     9]: 11022
      0.01701 [    31]: 21210
      0.01687 [     0]: 01122
      0.01571 [    25]: 21012
      0.01468 [    12]: 11202
      0.01161 [    17]: 12102
      0.00995 [    34]: 22110
      0.00897 [    26]: 21021
      0.00794 [    27]: 21102
      0.00706 [    30]: 21201
      0.00638 [    24]: 20211
      0.00590 [    32]: 22011
      0.00456 [     3]: 02112
      0.00322 [    21]: 12210
      0.00292 [     6]: 10122
ROOT  10:  E=   -2879.9892346419 Eh  2.539 eV  20475.0 cm**-1
      0.24447 [    11]: 11121
      0.13082 [     8]: 10221
      0.12888 [    10]: 11112
      0.11107 [    23]: 20121
      0.10089 [    30]: 21201
      0.05358 [     0]: 01122
      0.02790 [    27]: 21102
      0.02742 [     6]: 10122
      0.02496 [    33]: 22101
      0.02119 [     7]: 10212
      0.02058 [    16]: 12021
      0.01924 [    28]: 21111
      0.01617 [    20]: 12201
      0.01292 [     4]: 02121
      0.00742 [    15]: 12012
      0.00723 [    25]: 21012
      0.00661 [    29]: 21120
      0.00595 [    13]: 11211
      0.00573 [     1]: 01212
      0.00424 [     9]: 11022
      0.00417 [    17]: 12102
      0.00383 [    26]: 21021
      0.00279 [    12]: 11202
ROOT  11:  E=   -2879.9873196543 Eh  2.591 eV  20895.3 cm**-1
      0.14674 [     6]: 10122
      0.12747 [    13]: 11211
      0.11806 [    28]: 21111
      0.09936 [    29]: 21120
      0.07600 [    11]: 11121
      0.06194 [     9]: 11022
      0.05910 [    14]: 11220
      0.05909 [    10]: 11112
      0.04572 [    19]: 12120
      0.03264 [     0]: 01122
      0.02393 [    24]: 20211
      0.02365 [    22]: 20112
      0.02289 [    31]: 21210
      0.01731 [    26]: 21021
      0.01364 [     8]: 10221
      0.01230 [     2]: 01221
      0.01126 [    12]: 11202
      0.00688 [    17]: 12102
      0.00684 [     7]: 10212
      0.00564 [    23]: 20121
      0.00459 [    18]: 12111
      0.00373 [     3]: 02112
      0.00358 [    21]: 12210
      0.00276 [     5]: 02211
      0.00265 [    25]: 21012
      0.00254 [    34]: 22110
ROOT  12:  E=   -2879.9771556549 Eh  2.867 eV  23126.1 cm**-1
      0.24921 [    11]: 11121
      0.16125 [    31]: 21210
      0.12207 [    29]: 21120
      0.09986 [    13]: 11211
      0.06578 [     0]: 01122
      0.05987 [     2]: 01221
      0.03924 [    34]: 22110
      0.03490 [    10]: 11112
      0.02816 [    22]: 20112
      0.02013 [    25]: 21012
      0.01948 [    21]: 12210
      0.01855 [    28]: 21111
      0.01277 [    26]: 21021
      0.01073 [     7]: 10212
      0.01025 [     1]: 01212
      0.00870 [    19]: 12120
      0.00778 [     6]: 10122
      0.00745 [     9]: 11022
      0.00438 [     3]: 02112
      0.00378 [    18]: 12111
      0.00292 [    16]: 12021
      0.00279 [    12]: 11202
ROOT  13:  E=   -2879.9723850831 Eh  2.997 eV  24173.1 cm**-1
      0.16889 [     1]: 01212
      0.14802 [    30]: 21201
      0.11809 [    10]: 11112
      0.11695 [    25]: 21012
      0.06306 [    26]: 21021
      0.06202 [    22]: 20112
      0.03641 [    33]: 22101
      0.03381 [     9]: 11022
      0.02962 [    13]: 11211
      0.02756 [     3]: 02112
      0.02747 [     7]: 10212
      0.02542 [    23]: 20121
      0.02370 [     0]: 01122
      0.02101 [    20]: 12201
      0.01908 [    27]: 21102
      0.01430 [    28]: 21111
      0.00942 [    11]: 11121
      0.00822 [    16]: 12021
      0.00808 [     2]: 01221
      0.00771 [     6]: 10122
      0.00690 [    18]: 12111
      0.00645 [    29]: 21120
      0.00501 [     4]: 02121
      0.00359 [     8]: 10221
      0.00267 [    32]: 22011
ROOT  14:  E=   -2879.9709295982 Eh  3.037 eV  24492.5 cm**-1
      0.15769 [     9]: 11022
      0.13513 [    11]: 11121
      0.11653 [    10]: 11112
      0.09782 [     0]: 01122
      0.08415 [    28]: 21111
      0.06763 [    13]: 11211
      0.06305 [     1]: 01212
      0.05298 [    14]: 11220
      0.03968 [    18]: 12111
      0.03952 [    26]: 21021
      0.03779 [    31]: 21210
      0.02387 [    12]: 11202
      0.02226 [     6]: 10122
      0.01238 [    25]: 21012
      0.01107 [     2]: 01221
      0.00675 [    34]: 22110
      0.00575 [    29]: 21120
      0.00346 [    19]: 12120
      0.00344 [     3]: 02112
      0.00305 [    32]: 22011
      0.00266 [    17]: 12102
      0.00260 [    23]: 20121
ROOT  15:  E=   -2879.9678473943 Eh  3.121 eV  25169.0 cm**-1
      0.28688 [    28]: 21111
      0.18663 [    13]: 11211
      0.18356 [     0]: 01122
      0.17852 [     6]: 10122
      0.03989 [    11]: 11121
      0.02056 [    22]: 20112
      0.01617 [     7]: 10212
      0.01202 [    26]: 21021
      0.01041 [    29]: 21120
      0.00845 [    23]: 20121
      0.00708 [     8]: 10221
      0.00700 [    25]: 21012
      0.00689 [     9]: 11022
      0.00623 [    14]: 11220
      0.00512 [    24]: 20211
      0.00447 [    10]: 11112
      0.00446 [    31]: 21210
      0.00432 [     1]: 01212
      0.00353 [    27]: 21102
      0.00266 [    19]: 12120
ROOT  16:  E=   -2879.9597784859 Eh  3.340 eV  26939.9 cm**-1
      0.13776 [    12]: 11202
      0.13673 [    13]: 11211
      0.11731 [    27]: 21102
      0.10424 [    28]: 21111
      0.09239 [    17]: 12102
      0.07194 [    10]: 11112
      0.05002 [    14]: 11220
      0.04542 [    24]: 20211
      0.03788 [     6]: 10122
      0.03205 [    11]: 11121
      0.02356 [    29]: 21120
      0.02330 [    23]: 20121
      0.01627 [     9]: 11022
      0.01577 [     7]: 10212
      0.01453 [    15]: 12012
      0.01384 [    18]: 12111
      0.01311 [    26]: 21021
      0.01285 [    25]: 21012
      0.01033 [    30]: 21201
      0.00521 [     5]: 02211
      0.00461 [    31]: 21210
      0.00392 [    33]: 22101
      0.00380 [     3]: 02112
      0.00335 [    19]: 12120
      0.00299 [     0]: 01122
ROOT  17:  E=   -2879.9563582434 Eh  3.433 eV  27690.6 cm**-1
      0.31736 [    10]: 11112
      0.11706 [     9]: 11022
      0.10806 [    12]: 11202
      0.10411 [    11]: 11121
      0.08253 [     8]: 10221
      0.06773 [    27]: 21102
      0.05139 [     0]: 01122
      0.04586 [    23]: 20121
      0.02313 [    13]: 11211
      0.01923 [    28]: 21111
      0.01482 [     2]: 01221
      0.01406 [     7]: 10212
      0.00965 [     6]: 10122
      0.00736 [    22]: 20112
      0.00442 [    15]: 12012
      0.00313 [    24]: 20211
      0.00251 [    16]: 12021
ROOT  18:  E=   -2879.9485326062 Eh  3.646 eV  29408.1 cm**-1
      0.34837 [    10]: 11112
      0.12635 [    29]: 21120
      0.11353 [    14]: 11220
      0.09699 [    12]: 11202
      0.08684 [    25]: 21012
      0.04501 [    27]: 21102
      0.02898 [    11]: 11121
      0.02329 [     9]: 11022
      0.02128 [     7]: 10212
      0.01679 [    28]: 21111
      0.01417 [     6]: 10122
      0.01350 [     1]: 01212
      0.01100 [    15]: 12012
      0.01011 [    22]: 20112
      0.00998 [     0]: 01122
      0.00925 [     3]: 02112
      0.00702 [    17]: 12102
      0.00672 [    13]: 11211
      0.00315 [     2]: 01221
ROOT  19:  E=   -2879.9465589151 Eh  3.700 eV  29841.3 cm**-1
      0.28156 [    10]: 11112
      0.13255 [    27]: 21102
      0.08326 [    14]: 11220
      0.08266 [     7]: 10212
      0.07780 [    11]: 11121
      0.05447 [    29]: 21120
      0.05047 [    22]: 20112
      0.03162 [    28]: 21111
      0.03091 [    15]: 12012
      0.02762 [    31]: 21210
      0.02660 [    13]: 11211
      0.02314 [     3]: 02112
      0.02092 [     6]: 10122
      0.01300 [     0]: 01122
      0.01024 [    17]: 12102
      0.00675 [    34]: 22110
      0.00651 [     1]: 01212
      0.00562 [    18]: 12111
      0.00518 [    19]: 12120
      0.00466 [    21]: 12210
      0.00451 [     2]: 01221
      0.00378 [    32]: 22011
      0.00334 [    30]: 21201
      0.00299 [     8]: 10221
ROOT  20:  E=   -2879.8989356233 Eh  4.996 eV  40293.4 cm**-1
      0.16459 [     2]: 01221
      0.12056 [    26]: 21021
      0.09322 [    34]: 22110
      0.06127 [    23]: 20121
      0.05614 [    30]: 21201
      0.04936 [    18]: 12111
      0.04737 [    25]: 21012
      0.04535 [    11]: 11121
      0.03994 [    21]: 12210
      0.03699 [     8]: 10221
      0.03650 [     1]: 01212
      0.03027 [    13]: 11211
      0.02695 [    22]: 20112
      0.02362 [    12]: 11202
      0.02223 [    16]: 12021
      0.01880 [    28]: 21111
      0.01786 [     5]: 02211
      0.01688 [    14]: 11220
      0.01445 [    20]: 12201
      0.01260 [     0]: 01122
      0.01184 [    10]: 11112
      0.01068 [     4]: 02121
      0.00790 [    31]: 21210
      0.00567 [    29]: 21120
      0.00454 [    27]: 21102
      0.00435 [    24]: 20211
      0.00405 [    19]: 12120
      0.00394 [    17]: 12102
      0.00362 [     6]: 10122
      0.00251 [     7]: 10212
ROOT  21:  E=   -2879.8950753325 Eh  5.101 eV  41140.6 cm**-1
      0.21913 [    34]: 22110
      0.16788 [    33]: 22101
      0.14813 [    21]: 12210
      0.13462 [    18]: 12111
      0.05322 [     4]: 02121
      0.04770 [    32]: 22011
      0.04478 [     2]: 01221
      0.03077 [    10]: 11112
      0.02733 [    20]: 12201
      0.02298 [    13]: 11211
      0.01661 [    31]: 21210
      0.01517 [     3]: 02112
      0.01185 [    11]: 11121
      0.01172 [    15]: 12012
      0.00844 [     8]: 10221
      0.00798 [    28]: 21111
      0.00493 [     1]: 01212
      0.00453 [    25]: 21012
      0.00403 [    17]: 12102
      0.00324 [    22]: 20112
      0.00266 [    16]: 12021
ROOT  22:  E=   -2879.8938683705 Eh  5.134 eV  41405.5 cm**-1
      0.27585 [    18]: 12111
      0.12086 [    19]: 12120
      0.09447 [    14]: 11220
      0.08074 [    17]: 12102
      0.07357 [     5]: 02211
      0.05198 [    33]: 22101
      0.04431 [    13]: 11211
      0.02913 [    29]: 21120
      0.02686 [    28]: 21111
      0.02554 [     2]: 01221
      0.02377 [     4]: 02121
      0.02337 [     3]: 02112
      0.02336 [    34]: 22110
      0.02079 [    31]: 21210
      0.01725 [    11]: 11121
      0.01174 [    15]: 12012
      0.00904 [    21]: 12210
      0.00854 [    32]: 22011
      0.00812 [    12]: 11202
      0.00744 [     6]: 10122
      0.00648 [     9]: 11022
      0.00326 [    24]: 20211
      0.00275 [    10]: 11112
ROOT  23:  E=   -2879.8886853182 Eh  5.275 eV  42543.1 cm**-1
      0.26275 [    20]: 12201
      0.18446 [    21]: 12210
      0.13070 [    33]: 22101
      0.08708 [    18]: 12111
      0.07044 [    34]: 22110
      0.06809 [    11]: 11121
      0.05586 [    16]: 12021
      0.02026 [    15]: 12012
      0.01694 [    10]: 11112
      0.01254 [     1]: 01212
      0.01002 [     2]: 01221
      0.00979 [    26]: 21021
      0.00907 [     8]: 10221
      0.00794 [    13]: 11211
      0.00756 [    28]: 21111
      0.00709 [     4]: 02121
      0.00690 [     7]: 10212
      0.00621 [    31]: 21210
      0.00524 [    23]: 20121
      0.00319 [    19]: 12120
      0.00270 [    22]: 20112
      0.00267 [    17]: 12102
ROOT  24:  E=   -2879.8872372088 Eh  5.314 eV  42860.9 cm**-1
      0.36864 [    18]: 12111
      0.16241 [    13]: 11211
      0.11196 [    20]: 12201
      0.09498 [    32]: 22011
      0.06690 [    16]: 12021
      0.05828 [    28]: 21111
      0.02551 [    12]: 11202
      0.01980 [    11]: 11121
      0.01285 [    14]: 11220
      0.01190 [    30]: 21201
      0.01180 [    19]: 12120
      0.01003 [     5]: 02211
      0.00941 [     4]: 02121
      0.00683 [    26]: 21021
      0.00639 [     9]: 11022
      0.00497 [     2]: 01221
      0.00314 [    29]: 21120
ROOT  25:  E=   -2879.8796730731 Eh  5.520 eV  44521.0 cm**-1
      0.21740 [    18]: 12111
      0.11491 [    14]: 11220
      0.10711 [     5]: 02211
      0.08322 [    29]: 21120
      0.05877 [    13]: 11211
      0.05749 [    28]: 21111
      0.05014 [    17]: 12102
      0.03911 [    27]: 21102
      0.03786 [    12]: 11202
      0.02512 [     6]: 10122
      0.02480 [    21]: 12210
      0.02341 [     1]: 01212
      0.02261 [    31]: 21210
      0.01742 [    20]: 12201
      0.01634 [    33]: 22101
      0.01565 [    34]: 22110
      0.01282 [    11]: 11121
      0.01117 [     9]: 11022
      0.00956 [    30]: 21201
      0.00748 [    25]: 21012
      0.00744 [    19]: 12120
      0.00689 [    15]: 12012
      0.00681 [     2]: 01221
      0.00639 [     7]: 10212
      0.00627 [    10]: 11112
      0.00386 [    24]: 20211
      0.00303 [    23]: 20121
ROOT  26:  E=   -2879.8682847989 Eh  5.830 eV  47020.5 cm**-1
      0.20952 [     5]: 02211
      0.19545 [    32]: 22011
      0.12246 [    28]: 21111
      0.06878 [    13]: 11211
      0.05372 [     4]: 02121
      0.04626 [    20]: 12201
      0.03915 [    33]: 22101
      0.03734 [    29]: 21120
      0.03356 [    30]: 21201
      0.02244 [    16]: 12021
      0.01912 [    27]: 21102
      0.01845 [    18]: 12111
      0.01531 [    17]: 12102
      0.01363 [    11]: 11121
      0.01323 [    25]: 21012
      0.01259 [    26]: 21021
      0.01171 [    15]: 12012
      0.01087 [    34]: 22110
      0.00926 [     1]: 01212
      0.00840 [     3]: 02112
      0.00760 [    21]: 12210
      0.00698 [     2]: 01221
      0.00534 [    10]: 11112
      0.00497 [     0]: 01122
      0.00363 [    12]: 11202
      0.00343 [    22]: 20112
ROOT  27:  E=   -2879.8668379577 Eh  5.869 eV  47338.0 cm**-1
      0.17091 [    18]: 12111
      0.15525 [    21]: 12210
      0.10764 [    16]: 12021
      0.09932 [    19]: 12120
      0.05113 [    30]: 21201
      0.04249 [     5]: 02211
      0.03768 [    11]: 11121
      0.03521 [    13]: 11211
      0.03099 [     8]: 10221
      0.02974 [    31]: 21210
      0.02693 [    12]: 11202
      0.02643 [     4]: 02121
      0.01843 [    25]: 21012
      0.01834 [     2]: 01221
      0.01823 [    28]: 21111
      0.01795 [    22]: 20112
      0.01788 [    17]: 12102
      0.01735 [    32]: 22011
      0.01447 [    23]: 20121
      0.01174 [    10]: 11112
      0.01158 [    26]: 21021
      0.01130 [    29]: 21120
      0.00936 [    15]: 12012
      0.00621 [     1]: 01212
      0.00513 [    27]: 21102
      0.00333 [    14]: 11220
ROOT  28:  E=   -2879.8620149071 Eh  6.000 eV  48396.5 cm**-1
      0.27549 [     4]: 02121
      0.19897 [    18]: 12111
      0.10507 [    34]: 22110
      0.05747 [    11]: 11121
      0.04849 [    28]: 21111
      0.03454 [    31]: 21210
      0.03360 [    13]: 11211
      0.03321 [    21]: 12210
      0.02928 [    30]: 21201
      0.02490 [    23]: 20121
      0.02186 [    29]: 21120
      0.02117 [    26]: 21021
      0.02083 [     0]: 01122
      0.01421 [    16]: 12021
      0.01298 [     1]: 01212
      0.01217 [    25]: 21012
      0.00800 [    27]: 21102
      0.00748 [    20]: 12201
      0.00545 [     5]: 02211
      0.00538 [    24]: 20211
      0.00482 [     9]: 11022
      0.00440 [    10]: 11112
      0.00366 [    32]: 22011
      0.00293 [     3]: 02112
      0.00293 [    22]: 20112
ROOT  29:  E=   -2879.8599524540 Eh  6.057 eV  48849.2 cm**-1
      0.13569 [    18]: 12111
      0.13328 [    34]: 22110
      0.11190 [    27]: 21102
      0.10275 [    21]: 12210
      0.05955 [     3]: 02112
      0.05504 [    28]: 21111
      0.05024 [    31]: 21210
      0.05000 [    13]: 11211
      0.03770 [     1]: 01212
      0.03577 [    12]: 11202
      0.03518 [    15]: 12012
      0.03421 [     0]: 01122
      0.02815 [    29]: 21120
      0.02150 [    10]: 11112
      0.01882 [    14]: 11220
      0.01743 [     9]: 11022
      0.01342 [    25]: 21012
      0.01230 [    22]: 20112
      0.00701 [     5]: 02211
      0.00538 [    11]: 11121
      0.00506 [    23]: 20121
      0.00383 [    20]: 12201
      0.00375 [     4]: 02121
      0.00351 [     2]: 01221
      0.00304 [     7]: 10212
      0.00291 [    30]: 21201
      0.00279 [    17]: 12102
ROOT  30:  E=   -2879.8569119630 Eh  6.139 eV  49516.5 cm**-1
      0.12266 [     1]: 01212
      0.12208 [    25]: 21012
      0.10832 [    11]: 11121
      0.10224 [    22]: 20112
      0.06951 [    18]: 12111
      0.05500 [    16]: 12021
      0.05240 [     7]: 10212
      0.04809 [    31]: 21210
      0.04700 [    12]: 11202
      0.04564 [     5]: 02211
      0.04220 [    13]: 11211
      0.03086 [     6]: 10122
      0.02189 [    19]: 12120
      0.02058 [     4]: 02121
      0.01888 [    28]: 21111
      0.01381 [    33]: 22101
      0.01130 [     9]: 11022
      0.01003 [    34]: 22110
      0.00967 [    15]: 12012
      0.00925 [    10]: 11112
      0.00915 [    14]: 11220
      0.00691 [    27]: 21102
      0.00637 [     0]: 01122
      0.00512 [    17]: 12102
      0.00262 [     3]: 02112
ROOT  31:  E=   -2879.8527653369 Eh  6.252 eV  50426.6 cm**-1
      0.40479 [    19]: 12120
      0.10154 [    27]: 21102
      0.08186 [    18]: 12111
      0.06122 [    21]: 12210
      0.05490 [    12]: 11202
      0.03813 [    28]: 21111
      0.03177 [    13]: 11211
      0.03044 [    32]: 22011
      0.02823 [     6]: 10122
      0.02647 [     4]: 02121
      0.02618 [    33]: 22101
      0.01463 [     1]: 01212
      0.01242 [    17]: 12102
      0.01109 [    11]: 11121
      0.01097 [    20]: 12201
      0.00848 [     9]: 11022
      0.00767 [    23]: 20121
      0.00712 [    10]: 11112
      0.00692 [    34]: 22110
      0.00614 [    29]: 21120
      0.00582 [    25]: 21012
      0.00568 [     0]: 01122
      0.00554 [    30]: 21201
      0.00330 [    26]: 21021
      0.00265 [     7]: 10212
ROOT  32:  E=   -2879.8525913019 Eh  6.257 eV  50464.8 cm**-1
      0.12443 [    20]: 12201
      0.09429 [    33]: 22101
      0.08179 [     3]: 02112
      0.07546 [    16]: 12021
      0.06941 [    15]: 12012
      0.06165 [    31]: 21210
      0.06087 [    11]: 11121
      0.04591 [     2]: 01221
      0.04405 [    22]: 20112
      0.04111 [     7]: 10212
      0.03562 [     1]: 01212
      0.03190 [     5]: 02211
      0.03124 [     8]: 10221
      0.02522 [    25]: 21012
      0.02516 [    17]: 12102
      0.02388 [    26]: 21021
      0.01513 [    13]: 11211
      0.01512 [    23]: 20121
      0.01461 [    32]: 22011
      0.01405 [    14]: 11220
      0.01136 [    28]: 21111
      0.01084 [    18]: 12111
      0.00956 [     6]: 10122
      0.00574 [    24]: 20211
      0.00543 [    10]: 11112
      0.00508 [    19]: 12120
      0.00425 [    29]: 21120
      0.00382 [    21]: 12210
      0.00375 [     0]: 01122
      0.00323 [    30]: 21201
ROOT  33:  E=   -2879.8391198273 Eh  6.623 eV  53421.4 cm**-1
      0.36082 [    18]: 12111
      0.12814 [    27]: 21102
      0.11512 [    12]: 11202
      0.07705 [    14]: 11220
      0.07567 [    29]: 21120
      0.04517 [     9]: 11022
      0.04498 [     0]: 01122
      0.02186 [     3]: 02112
      0.01970 [    13]: 11211
      0.01634 [     4]: 02121
      0.01469 [    10]: 11112
      0.01297 [    16]: 12021
      0.01282 [    20]: 12201
      0.01074 [    34]: 22110
      0.00904 [    33]: 22101
      0.00750 [    15]: 12012
      0.00584 [    25]: 21012
      0.00498 [    19]: 12120
      0.00429 [    28]: 21111
ROOT  34:  E=   -2879.8198020149 Eh  7.149 eV  57661.2 cm**-1
      0.20557 [    20]: 12201
      0.19351 [    33]: 22101
      0.11816 [    30]: 21201
      0.09566 [     3]: 02112
      0.07818 [    16]: 12021
      0.05857 [     4]: 02121
      0.05690 [    10]: 11112
      0.03295 [    18]: 12111
      0.02998 [     1]: 01212
      0.01974 [    11]: 11121
      0.01757 [    28]: 21111
      0.01565 [    22]: 20112
      0.01435 [    17]: 12102
      0.01005 [    19]: 12120
      0.00973 [    25]: 21012
      0.00716 [    13]: 11211
      0.00583 [     7]: 10212
      0.00567 [    32]: 22011
      0.00341 [     2]: 01221
      0.00293 [    27]: 21102
      0.00279 [     8]: 10221
      0.00254 [    12]: 11202
ROOT  35:  E=   -2879.7981799668 Eh  7.737 eV  62406.7 cm**-1
      0.18381 [    28]: 21111
      0.17356 [     5]: 02211
      0.15327 [    13]: 11211
      0.12539 [    32]: 22011
      0.06936 [    24]: 20211
      0.06091 [    11]: 11121
      0.03952 [    10]: 11112
      0.02996 [    16]: 12021
      0.02836 [    15]: 12012
      0.01656 [     4]: 02121
      0.01586 [    20]: 12201
      0.01227 [    18]: 12111
      0.01077 [    26]: 21021
      0.01048 [    21]: 12210
      0.00813 [    33]: 22101
      0.00803 [     8]: 10221
      0.00787 [    17]: 12102
      0.00756 [    23]: 20121
      0.00649 [     7]: 10212
      0.00467 [     3]: 02112
      0.00463 [     2]: 01221
      0.00426 [    34]: 22110
      0.00418 [    19]: 12120
      0.00390 [    25]: 21012
      0.00316 [     1]: 01212
ROOT  36:  E=   -2879.7807783202 Eh  8.211 eV  66225.9 cm**-1
      0.17745 [     3]: 02112
      0.14853 [    15]: 12012
      0.10563 [    34]: 22110
      0.10335 [    17]: 12102
      0.07948 [    21]: 12210
      0.06062 [    10]: 11112
      0.05503 [    19]: 12120
      0.04143 [    31]: 21210
      0.03389 [    11]: 11121
      0.02443 [    33]: 22101
      0.02381 [     4]: 02121
      0.02316 [    32]: 22011
      0.01514 [    12]: 11202
      0.01247 [    28]: 21111
      0.01217 [     1]: 01212
      0.01038 [     7]: 10212
      0.00757 [     5]: 02211
      0.00749 [    29]: 21120
      0.00747 [    27]: 21102
      0.00743 [    20]: 12201
      0.00602 [    18]: 12111
      0.00588 [    13]: 11211
      0.00493 [    25]: 21012
      0.00407 [    14]: 11220
      0.00391 [    22]: 20112
      0.00338 [    16]: 12021
      0.00329 [     6]: 10122
      0.00268 [     8]: 10221
ROOT  37:  E=   -2879.7742541625 Eh  8.388 eV  67657.8 cm**-1
      0.29112 [    10]: 11112
      0.14201 [    15]: 12012
      0.08566 [     3]: 02112
      0.05279 [    21]: 12210
      0.04512 [     7]: 10212
      0.03307 [    28]: 21111
      0.03273 [     4]: 02121
      0.03020 [     1]: 01212
      0.03013 [    25]: 21012
      0.03010 [    34]: 22110
      0.02814 [    33]: 22101
      0.02504 [    17]: 12102
      0.02272 [    22]: 20112
      0.01926 [    13]: 11211
      0.01906 [    32]: 22011
      0.01686 [     5]: 02211
      0.01596 [    20]: 12201
      0.01555 [    30]: 21201
      0.01364 [    16]: 12021
      0.01263 [    19]: 12120
      0.01088 [    24]: 20211
      0.00928 [    11]: 11121
      0.00324 [    12]: 11202
      0.00279 [    27]: 21102
      0.00256 [     2]: 01221
      0.00252 [    14]: 11220
ROOT  38:  E=   -2879.7706829438 Eh  8.486 eV  68441.6 cm**-1
      0.44111 [    17]: 12102
      0.09819 [    19]: 12120
      0.09536 [    12]: 11202
      0.06303 [     3]: 02112
      0.04713 [    27]: 21102
      0.03786 [    33]: 22101
      0.02837 [    15]: 12012
      0.02613 [    34]: 22110
      0.02440 [    10]: 11112
      0.02434 [    20]: 12201
      0.02115 [    30]: 21201
      0.01338 [     4]: 02121
      0.01103 [    14]: 11220
      0.01063 [     1]: 01212
      0.00727 [    16]: 12021
      0.00641 [    32]: 22011
      0.00630 [    31]: 21210
      0.00603 [    18]: 12111
      0.00594 [    13]: 11211
      0.00540 [    21]: 12210
      0.00381 [    28]: 21111
      0.00363 [    11]: 11121
      0.00266 [    29]: 21120
ROOT  39:  E=   -2879.5622923844 Eh 14.156 eV 114178.0 cm**-1
      0.18179 [    11]: 11121
      0.13381 [    10]: 11112
      0.12458 [     8]: 10221
      0.08401 [     2]: 01221
      0.07917 [     7]: 10212
      0.06022 [    15]: 12012
      0.05346 [    26]: 21021
      0.05212 [     1]: 01212
      0.04992 [    23]: 20121
      0.04145 [     3]: 02112
      0.02436 [    16]: 12021
      0.02185 [    28]: 21111
      0.01891 [    18]: 12111
      0.01711 [     4]: 02121
      0.01648 [    13]: 11211
      0.01353 [    32]: 22011
      0.00967 [    24]: 20211
      0.00657 [     5]: 02211
ROOT  40:  E=   -2879.5572018062 Eh 14.295 eV 115295.3 cm**-1
      0.23147 [     9]: 11022
      0.22900 [     6]: 10122
      0.15643 [     0]: 01122
      0.05047 [    28]: 21111
      0.03465 [    10]: 11112
      0.03360 [    11]: 11121
      0.03241 [    13]: 11211
      0.03099 [    24]: 20211
      0.02971 [    18]: 12111
      0.02453 [    22]: 20112
      0.02435 [    25]: 21012
      0.02336 [    32]: 22011
      0.01903 [     8]: 10221
      0.01266 [     2]: 01221
      0.01221 [    16]: 12021
      0.00964 [     5]: 02211
      0.00900 [     7]: 10212
      0.00860 [     4]: 02121
      0.00698 [    15]: 12012
      0.00667 [     1]: 01212
      0.00446 [     3]: 02112
      0.00433 [    26]: 21021
      0.00380 [    23]: 20121
ROOT  41:  E=   -2879.5510002251 Eh 14.464 eV 116656.4 cm**-1
      0.13270 [    11]: 11121
      0.11740 [    23]: 20121
      0.11343 [    26]: 21021
      0.08351 [    10]: 11112
      0.08349 [    25]: 21012
      0.08147 [    22]: 20112
      0.05681 [     9]: 11022
      0.05564 [     6]: 10122
      0.05502 [    16]: 12021
      0.03880 [     0]: 01122
      0.03620 [     4]: 02121
      0.02652 [    28]: 21111
      0.02201 [     7]: 10212
      0.02138 [    13]: 11211
      0.01978 [    24]: 20211
      0.01700 [     1]: 01212
      0.01404 [    18]: 12111
      0.00656 [    32]: 22011
      0.00610 [     5]: 02211
      0.00326 [    15]: 12012
ROOT  42:  E=   -2879.5452735562 Eh 14.619 eV 117913.2 cm**-1
      0.15464 [    28]: 21111
      0.10971 [    18]: 12111
      0.09755 [    13]: 11211
      0.08648 [    32]: 22011
      0.08047 [    24]: 20211
      0.05532 [     9]: 11022
      0.05424 [     6]: 10122
      0.05384 [    11]: 11121
      0.03828 [    10]: 11112
      0.03725 [     0]: 01122
      0.03585 [     5]: 02211
      0.03565 [    23]: 20121
      0.03401 [    26]: 21021
      0.03117 [    16]: 12021
      0.02815 [     7]: 10212
      0.02077 [     4]: 02121
      0.01885 [     1]: 01212
      0.00846 [    15]: 12012
      0.00583 [     3]: 02112
      0.00338 [    25]: 21012
      0.00311 [    22]: 20112
ROOT  43:  E=   -2879.5141065389 Eh 15.467 eV 124753.6 cm**-1
      0.20598 [    10]: 11112
      0.14607 [    22]: 20112
      0.14589 [    25]: 21012
      0.11746 [    15]: 12012
      0.07769 [     3]: 02112
      0.06833 [    11]: 11121
      0.06294 [    26]: 21021
      0.06059 [    23]: 20121
      0.02538 [     8]: 10221
      0.01903 [    28]: 21111
      0.01806 [     2]: 01221
      0.01034 [    24]: 20211
      0.01007 [    13]: 11211
      0.00982 [    18]: 12111
      0.00877 [    32]: 22011
ROOT  44:  E=   -2879.4975170508 Eh 15.919 eV 128394.6 cm**-1
      0.17040 [    11]: 11121
      0.14760 [    10]: 11112
      0.10186 [    16]: 12021
      0.09617 [     7]: 10212
      0.07035 [     4]: 02121
      0.06600 [     8]: 10221
      0.06587 [     1]: 01212
      0.04245 [     2]: 01221
      0.03609 [    15]: 12012
      0.02668 [     3]: 02112
      0.02537 [    25]: 21012
      0.02477 [     9]: 11022
      0.02408 [     6]: 10122
      0.02225 [    22]: 20112
      0.01702 [     0]: 01122
      0.01384 [    23]: 20121
      0.01268 [    26]: 21021
      0.00967 [    18]: 12111
      0.00966 [    13]: 11211
      0.00484 [     5]: 02211
      0.00481 [    28]: 21111
      0.00280 [    24]: 20211

                 <<<<<<<<<<<<<<<<<<INITIAL CI STATE CHECK>>>>>>>>>>>>>>>>>>

   E(CAS)= -2879.957208472 Eh DE=    0.000000e+00
   --- Energy gap subspaces: Ext-Act = 0.069   Act-Int = 0.054
   N(occ)=  1.20000 1.20000 1.20000 1.20000 1.20000
   ||g|| =     9.509938e-04 Max(G)=   -2.881735e-04 Rot=126,118
                     ---- THE CAS-SCF GRADIENT HAS CONVERGED ----
                            --- FINALIZING ORBITALS ---
                    ---- DOING ONE FINAL ITERATION FOR PRINTING ----
   --- Forming Natural Orbitals
   --- Canonicalize Internal Space
   --- Canonicalize External Space

MACRO-ITERATION   2: 
   --- Inactive Energy E0 = -2869.52600242 Eh
   --- All densities will be recomputed
CI-ITERATION   0: 
 -2880.079864327   0.000000000000 (    0.00)
 -2880.070127833   0.000000000000
 -2880.050587796   0.000000000000
 -2880.029196015   0.000000000000
 -2879.978708752   0.000000000000
   CI-PROBLEM SOLVED
   DENSITIES MADE
CI-ITERATION   0: 
 -2880.082525754   0.000000000000 (    0.00)
 -2880.068664597   0.000000000000
 -2880.061854145   0.000000000000
 -2880.040718396   0.000000000000
 -2880.000004527   0.000000000000
 -2879.999241109   0.000000000000
 -2879.995566263   0.000000000000
 -2879.993333222   0.000000000000
 -2879.990974328   0.000000000000
 -2879.990374925   0.000000000000
 -2879.989234642   0.000000000000
 -2879.987319655   0.000000000000
 -2879.977155655   0.000000000000
 -2879.972385083   0.000000000000
 -2879.970929598   0.000000000000
 -2879.967847395   0.000000000000
 -2879.959778486   0.000000000000
 -2879.956358244   0.000000000000
 -2879.948532607   0.000000000000
 -2879.946558915   0.000000000000
 -2879.898935624   0.000000000000
 -2879.895075333   0.000000000000
 -2879.893868371   0.000000000000
 -2879.888685319   0.000000000000
 -2879.887237209   0.000000000000
 -2879.879673074   0.000000000000
 -2879.868284799   0.000000000000
 -2879.866837958   0.000000000000
 -2879.862014907   0.000000000000
 -2879.859952454   0.000000000000
 -2879.856911963   0.000000000000
 -2879.852765337   0.000000000000
 -2879.852591302   0.000000000000
 -2879.839119828   0.000000000000
 -2879.819802015   0.000000000000
 -2879.798179967   0.000000000000
 -2879.780778320   0.000000000000
 -2879.774254163   0.000000000000
 -2879.770682944   0.000000000000
 -2879.562292385   0.000000000000
 -2879.557201806   0.000000000000
 -2879.551000225   0.000000000000
 -2879.545273556   0.000000000000
 -2879.514106539   0.000000000000
 -2879.497517051   0.000000000000
   CI-PROBLEM SOLVED
   DENSITIES MADE
   E(CAS)= -2879.957208472 Eh DE=   -3.324203e-10
   --- Energy gap subspaces: Ext-Act = 0.074   Act-Int = 0.044
   N(occ)=  1.20000 1.20000 1.20000 1.20000 1.20000
   ||g|| =     9.509938e-04 Max(G)=   -4.127912e-04 Rot=126,118
--------------
CASSCF RESULTS
--------------

Final CASSCF energy       : -2879.957208472 Eh  -78367.6198 eV

----------------
ORBITAL ENERGIES
----------------

  NO   OCC          E(Eh)            E(eV) 
   0   2.0000    -261.281345     -7109.8269 
   1   2.0000     -31.831091      -866.1680 
   2   2.0000     -27.318483      -743.3737 
   3   2.0000     -27.311098      -743.1728 
   4   2.0000     -27.306871      -743.0577 
   5   2.0000      -4.718104      -128.3861 
   6   2.0000      -4.717895      -128.3804 
   7   2.0000      -4.717493      -128.3695 
   8   2.0000      -4.717424      -128.3676 
   9   2.0000      -4.711222      -128.1989 
  10   2.0000      -4.711073      -128.1948 
  11   2.0000      -4.710525      -128.1799 
  12   2.0000      -4.709845      -128.1614 
  13   2.0000      -4.706489      -128.0701 
  14   2.0000      -4.705921      -128.0546 
  15   2.0000      -4.697396      -127.8226 
  16   2.0000      -4.697273      -127.8193 
  17   2.0000      -4.061415      -110.5167 
  18   2.0000      -2.758440       -75.0610 
  19   2.0000      -2.758296       -75.0571 
  20   2.0000      -2.756866       -75.0181 
  21   2.0000      -2.756614       -75.0113 
  22   2.0000      -2.755961       -74.9935 
  23   2.0000      -2.755791       -74.9889 
  24   2.0000      -2.755414       -74.9786 
  25   2.0000      -2.755338       -74.9766 
  26   2.0000      -2.752990       -74.9127 
  27   2.0000      -2.752800       -74.9075 
  28   2.0000      -2.751266       -74.8657 
  29   2.0000      -2.751110       -74.8615 
  30   2.0000      -2.750003       -74.8314 
  31   2.0000      -2.749808       -74.8261 
  32   2.0000      -2.747543       -74.7645 
  33   2.0000      -2.747267       -74.7569 
  34   2.0000      -2.746974       -74.7490 
  35   2.0000      -2.746699       -74.7415 
  36   2.0000      -2.746273       -74.7299 
  37   2.0000      -2.745484       -74.7084 
  38   2.0000      -2.745344       -74.7046 
  39   2.0000      -2.745090       -74.6977 
  40   2.0000      -2.744174       -74.6728 
  41   2.0000      -2.743616       -74.6576 
  42   2.0000      -2.743424       -74.6524 
  43   2.0000      -2.742411       -74.6248 
  44   2.0000      -2.741863       -74.6099 
  45   2.0000      -2.740269       -74.5665 
  46   2.0000      -2.739858       -74.5553 
  47   2.0000      -2.738909       -74.5295 
  48   2.0000      -2.734444       -74.4080 
  49   2.0000      -2.734196       -74.4013 
  50   2.0000      -2.733857       -74.3920 
  51   2.0000      -2.731423       -74.3258 
  52   2.0000      -2.731203       -74.3198 
  53   2.0000      -2.730322       -74.2958 
  54   2.0000      -2.650049       -72.1115 
  55   2.0000      -2.644549       -71.9618 
  56   2.0000      -2.641116       -71.8684 
  57   2.0000      -0.565364       -15.3843 
  58   2.0000      -0.553629       -15.0650 
  59   2.0000      -0.550737       -14.9863 
  60   2.0000      -0.550516       -14.9803 
  61   2.0000      -0.545935       -14.8556 
  62   2.0000      -0.543593       -14.7919 
  63   2.0000      -0.541069       -14.7232 
  64   2.0000      -0.539167       -14.6715 
  65   2.0000      -0.536799       -14.6070 
  66   2.0000      -0.534077       -14.5330 
  67   2.0000      -0.533511       -14.5176 
  68   2.0000      -0.531202       -14.4547 
  69   2.0000      -0.527895       -14.3648 
  70   2.0000      -0.526952       -14.3391 
  71   2.0000      -0.524864       -14.2823 
  72   2.0000      -0.521236       -14.1836 
  73   2.0000      -0.520384       -14.1604 
  74   2.0000      -0.516732       -14.0610 
  75   2.0000      -0.510466       -13.8905 
  76   2.0000      -0.510187       -13.8829 
  77   2.0000      -0.506624       -13.7859 
  78   2.0000      -0.504651       -13.7323 
  79   2.0000      -0.501627       -13.6500 
  80   2.0000      -0.498038       -13.5523 
  81   2.0000      -0.493149       -13.4193 
  82   2.0000      -0.492154       -13.3922 
  83   2.0000      -0.487497       -13.2655 
  84   2.0000      -0.482506       -13.1297 
  85   2.0000      -0.477269       -12.9872 
  86   2.0000      -0.473985       -12.8978 
  87   2.0000      -0.469876       -12.7860 
  88   2.0000      -0.468668       -12.7531 
  89   2.0000      -0.466621       -12.6974 
  90   2.0000      -0.465649       -12.6710 
  91   2.0000      -0.462759       -12.5923 
  92   2.0000      -0.462625       -12.5887 
  93   2.0000      -0.459198       -12.4954 
  94   2.0000      -0.456884       -12.4324 
  95   2.0000      -0.451994       -12.2994 
  96   2.0000      -0.451386       -12.2828 
  97   2.0000      -0.451166       -12.2768 
  98   2.0000      -0.448616       -12.2075 
  99   2.0000      -0.446467       -12.1490 
 100   2.0000      -0.445275       -12.1165 
 101   2.0000      -0.440836       -11.9958 
 102   2.0000      -0.439138       -11.9495 
 103   2.0000      -0.438352       -11.9282 
 104   2.0000      -0.436963       -11.8904 
 105   2.0000      -0.436769       -11.8851 
 106   2.0000      -0.433402       -11.7935 
 107   2.0000      -0.428833       -11.6692 
 108   2.0000      -0.428083       -11.6487 
 109   2.0000      -0.424264       -11.5448 
 110   2.0000      -0.421960       -11.4821 
 111   2.0000      -0.421036       -11.4570 
 112   2.0000      -0.419362       -11.4114 
 113   2.0000      -0.411888       -11.2081 
 114   2.0000      -0.411835       -11.2066 
 115   2.0000      -0.407381       -11.0854 
 116   2.0000      -0.399611       -10.8740 
 117   2.0000      -0.394384       -10.7317 
 118   2.0000      -0.379598       -10.3294 
 119   2.0000      -0.376013       -10.2318 
 120   2.0000      -0.335418        -9.1272 
 121   2.0000      -0.268589        -7.3087 
 122   2.0000      -0.245729        -6.6866 
 123   2.0000      -0.227731        -6.1969 
 124   1.2000      -0.157246        -4.2789 
 125   1.2000      -0.162444        -4.4203 
 126   1.2000      -0.183301        -4.9879 
 127   1.2000      -0.143086        -3.8936 
 128   1.2000      -0.119076        -3.2402 
 129   0.0000      -0.045502        -1.2382 
 130   0.0000      -0.019152        -0.5211 
 131   0.0000       0.005166         0.1406 
 132   0.0000       0.010149         0.2762 
 133   0.0000       0.021452         0.5837 
 134   0.0000       0.024995         0.6802 
 135   0.0000       0.029240         0.7957 
 136   0.0000       0.046605         1.2682 
 137   0.0000       0.052597         1.4312 
 138   0.0000       0.063215         1.7202 
 139   0.0000       0.071225         1.9381 
 140   0.0000       0.083617         2.2753 
 141   0.0000       0.085252         2.3198 
 142   0.0000       0.091745         2.4965 
 143   0.0000       0.103932         2.8281 
 144   0.0000       0.104799         2.8517 
 145   0.0000       0.115212         3.1351 
 146   0.0000       0.117326         3.1926 
[...]
 1 119  126933.9     78.8   0.000255440   0.01281   0.07042   0.07975   0.03858
 1 120  126973.2     78.8   0.000025725   0.00129   0.00180   0.00780   0.03500
 1 121  126984.6     78.7   0.000039369   0.00197   0.02341   0.03424   0.01588
 1 122  127029.5     78.7   0.000003120   0.00016   0.00158   0.01076   0.00616
 1 123  127047.6     78.7   0.000501962   0.02514   0.08418   0.02463   0.13210
 1 124  127070.9     78.7   0.000004936   0.00025   0.01456   0.00028   0.00591
 1 125  127113.9     78.7   0.000100970   0.00505   0.04330   0.04970   0.02664
 1 126  127157.4     78.6   0.000049281   0.00247   0.02930   0.03462   0.02023
 1 127  127470.4     78.4   0.000095506   0.00477   0.03463   0.02051   0.05611
 1 128  127588.2     78.4   0.000000852   0.00004   0.00364   0.00088   0.00534
 1 129  127626.6     78.4   0.000003790   0.00019   0.00953   0.00186   0.00973
 1 130  128116.8     78.1   0.000000603   0.00003   0.00412   0.00320   0.00166
 1 131  128185.1     78.0   0.000004585   0.00023   0.00850   0.00846   0.00915
 1 132  128190.6     78.0   0.000090216   0.00448   0.02720   0.00830   0.06058
 1 133  128446.0     77.9   0.000008379   0.00042   0.01620   0.00876   0.00871
 1 134  128459.2     77.8   0.000196755   0.00975   0.07024   0.06502   0.02419
 1 135  128475.9     77.8   0.000005989   0.00030   0.01571   0.00276   0.00650
 1 136  129405.1     77.3   0.000260954   0.01283   0.06665   0.04292   0.08092
 1 137  129418.6     77.3   0.000004054   0.00020   0.00729   0.01067   0.00570
 1 138  129454.7     77.2   0.000003992   0.00020   0.01239   0.00631   0.00170
 1 139  130420.4     76.7   0.000000950   0.00005   0.00586   0.00329   0.00111
 1 140  130480.5     76.6   0.000020591   0.00100   0.00587   0.01534   0.02710
 1 141  130498.6     76.6   0.000019917   0.00097   0.01907   0.00730   0.02354
 1 142  130809.4     76.4   0.000028813   0.00140   0.01186   0.01783   0.03071
 1 143  130812.3     76.4   0.000013690   0.00067   0.02477   0.00061   0.00721
 1 144  130888.2     76.4   0.000000940   0.00005   0.00367   0.00352   0.00446
 1 145  131019.2     76.3   0.000008434   0.00041   0.00601   0.00592   0.01840
 1 146  131084.9     76.3   0.000016795   0.00082   0.02710   0.00750   0.00495
 1 147  131095.4     76.3   0.000106064   0.00515   0.03797   0.02507   0.05548
 1 148  132408.5     75.5   0.000001432   0.00007   0.00313   0.00404   0.00654
 1 149  132417.1     75.5   0.000014693   0.00071   0.00422   0.01504   0.02149
 1 150  132423.0     75.5   0.000271679   0.01306   0.00588   0.06494   0.09383
 1 151  138836.1     72.0   0.000000197   0.00001   0.00248   0.00078   0.00151
 1 152  138839.3     72.0   0.000055288   0.00253   0.02961   0.01308   0.03855
 1 153  138842.6     72.0   0.000002125   0.00010   0.00577   0.00259   0.00757
 1 154  141283.3     70.8   0.000000285   0.00001   0.00155   0.00223   0.00233
 1 155  141286.2     70.8   0.000000466   0.00002   0.00384   0.00249   0.00021
 1 156  141291.8     70.8   0.000028600   0.00129   0.02441   0.02614   0.00297
 1 157  141959.5     70.4   0.000000363   0.00002   0.00248   0.00303   0.00097
 1 158  141962.2     70.4   0.000000006   0.00000   0.00029   0.00040   0.00010
 1 159  141962.7     70.4   0.000041614   0.00187   0.02762   0.03158   0.01026
 2  3   12366.7    808.6   0.000001655   0.00086   0.01803   0.02224   0.00605
 2  4   12366.7    808.6   0.000000348   0.00018   0.00819   0.01027   0.00276
 2  5   12366.7    808.6   0.000000817   0.00042   0.01265   0.01565   0.00423
 2  6   39943.2    250.4   0.000005673   0.00091   0.02094   0.02086   0.00593
 2  7   39943.4    250.4   0.000001487   0.00024   0.01077   0.01063   0.00302
 2  8   39943.7    250.4   0.000119811   0.01919   0.09626   0.09582   0.02726
 2  9   80444.4    124.3   0.000000000   0.00000   0.00003   0.00007   0.00004
 2 10   80450.4    124.3   0.000000005   0.00000   0.00005   0.00021   0.00060
 2 11   80457.4    124.3   0.000000000   0.00000   0.00005   0.00000   0.00013
 2 12   80481.1    124.3   0.000000001   0.00000   0.00010   0.00005   0.00025
 2 13   80481.6    124.3   0.000000000   0.00000   0.00005   0.00003   0.00008
 2 14   85212.4    117.4   0.000000002   0.00000   0.00031   0.00019   0.00001
 2 15   85215.3    117.3   0.000005924   0.00044   0.01801   0.00746   0.00806
 2 16   85216.7    117.3   0.000000308   0.00002   0.00406   0.00190   0.00173
 2 17   85709.8    116.7   0.000000063   0.00000   0.00069   0.00003   0.00206
 2 18   85715.9    116.7   0.000001479   0.00011   0.00276   0.00462   0.00903
 2 19   85723.3    116.7   0.000000172   0.00001   0.00138   0.00203   0.00261
 2 20   93578.8    106.9   0.000000664   0.00005   0.00556   0.00272   0.00266
 2 21   93579.7    106.9   0.000005037   0.00034   0.01349   0.01099   0.00645
 2 22   93585.2    106.9   0.000001166   0.00008   0.00670   0.00568   0.00159
 2 23   93944.6    106.4   0.000002767   0.00019   0.00862   0.00865   0.00627
 2 24   93951.4    106.4   0.000000343   0.00002   0.00089   0.00467   0.00087
 2 25   93962.8    106.4   0.000009216   0.00063   0.01498   0.01512   0.01321
 2 26   94183.7    106.2   0.000083364   0.00566   0.02942   0.01177   0.06826
 2 27   94186.9    106.2   0.000001183   0.00008   0.00719   0.00533   0.00050
 2 28   94212.4    106.1   0.000004287   0.00029   0.00492   0.00138   0.01628
 2 29   94384.2    105.9   0.000000390   0.00003   0.00386   0.00333   0.00067
 2 30   94408.0    105.9   0.000007518   0.00051   0.01649   0.01082   0.01097
 2 31   94409.9    105.9   0.000011277   0.00076   0.00538   0.00666   0.02628
 2 32   97061.6    103.0   0.000000770   0.00005   0.00062   0.00149   0.00694
 2 33   97063.0    103.0   0.000000103   0.00001   0.00098   0.00174   0.00167
 2 34   97063.0    103.0   0.000029279   0.00193   0.01028   0.00502   0.04242
 2 35  103130.9     97.0   0.000000068   0.00000   0.00139   0.00149   0.00024
 2 36  103134.4     97.0   0.000000009   0.00000   0.00060   0.00026   0.00038
 2 37  103134.8     97.0   0.000000005   0.00000   0.00055   0.00007   0.00004
 2 38  103146.0     96.9   0.000000306   0.00002   0.00303   0.00308   0.00061
 2 39  103146.0     96.9   0.000000028   0.00000   0.00036   0.00028   0.00123
 2 40  103797.9     96.3   0.000003266   0.00020   0.00709   0.01203   0.00250
 2 41  103799.3     96.3   0.000002766   0.00017   0.00662   0.00945   0.00611
 2 42  103802.4     96.3   0.000008037   0.00050   0.01098   0.01849   0.00572
 2 43  109062.2     91.7   0.000004540   0.00027   0.00577   0.01368   0.00677
 2 44  109067.0     91.7   0.000013326   0.00078   0.01515   0.01555   0.01762
 2 45  109078.8     91.7   0.001103296   0.06471   0.16836   0.18627   0.04087
 2 46  109199.9     91.6   0.000007850   0.00046   0.01758   0.01059   0.00622
 2 47  109222.0     91.6   0.000006353   0.00037   0.00635   0.00313   0.01794
 2 48  109257.4     91.5   0.000051576   0.00302   0.03278   0.04348   0.00743
 2 49  109587.8     91.3   0.000001760   0.00010   0.00551   0.00007   0.00851
 2 50  109642.1     91.2   0.000006023   0.00035   0.00662   0.01744   0.00189
 2 51  109702.4     91.2   0.000016713   0.00097   0.01743   0.02579   0.00237
 2 52  109752.2     91.1   0.000002179   0.00013   0.00106   0.00985   0.00538
 2 53  109780.5     91.1   0.000019480   0.00114   0.01937   0.02631   0.00823
 2 54  110065.1     90.9   0.000016929   0.00098   0.03066   0.00607   0.00273
 2 55  110083.4     90.8   0.000030998   0.00180   0.02460   0.03417   0.00536
 2 56  110329.5     90.6   0.000002866   0.00017   0.00043   0.00590   0.01145
 2 57  110385.8     90.6   0.000005435   0.00032   0.01432   0.00388   0.00975
 2 58  110527.3     90.5   0.000065657   0.00380   0.01939   0.00711   0.05809
 2 59  110577.1     90.4   0.000015273   0.00088   0.00606   0.00769   0.02807
 2 60  110636.1     90.4   0.000003096   0.00018   0.00361   0.01134   0.00612
 2 61  110911.4     90.2   0.000005635   0.00033   0.01249   0.00256   0.01275
 2 62  110957.8     90.1   0.000006409   0.00037   0.01203   0.00740   0.01304
 2 63  110977.1     90.1   0.000050932   0.00294   0.04601   0.02579   0.01243
 2 64  111194.2     89.9   0.000737694   0.04244   0.00035   0.06353   0.19598
 2 65  111223.7     89.9   0.000074830   0.00430   0.01172   0.00134   0.06454
 2 66  111249.9     89.9   0.000005418   0.00031   0.01355   0.01098   0.00272
 2 67  111323.5     89.8   0.000024228   0.00139   0.01152   0.01071   0.03384
 2 68  111327.1     89.8   0.000000498   0.00003   0.00221   0.00136   0.00468
 2 69  111327.5     89.8   0.000000009   0.00000   0.00007   0.00011   0.00072
 2 70  112315.4     89.0   0.000008177   0.00047   0.01572   0.01440   0.00334
 2 71  112319.4     89.0   0.000010320   0.00059   0.00091   0.00770   0.02297
 2 72  112359.5     89.0   0.001887844   0.10749   0.06808   0.00036   0.32072
 2 73  112674.1     88.8   0.000006015   0.00034   0.00036   0.00423   0.01799
 2 74  112678.7     88.7   0.000000033   0.00000   0.00048   0.00080   0.00100
 2 75  112694.4     88.7   0.000051925   0.00295   0.00929   0.00069   0.05349
 2 76  112718.4     88.7   0.000000339   0.00002   0.00317   0.00277   0.00123
 2 77  112720.8     88.7   0.000000099   0.00001   0.00075   0.00069   0.00214
 2 78  113663.0     88.0   0.000658563   0.03707   0.12926   0.13711   0.03953
 2 79  113674.9     88.0   0.000007318   0.00041   0.01302   0.01524   0.00314
 2 80  113692.9     88.0   0.000008979   0.00051   0.01437   0.01710   0.00256
 2 81  114087.0     87.7   0.000002056   0.00012   0.00097   0.00512   0.00939
 2 82  114101.4     87.6   0.000024279   0.00136   0.02420   0.02746   0.00461
 2 83  114103.1     87.6   0.000002318   0.00013   0.00754   0.00589   0.00620
 2 84  115400.4     86.7   0.000000058   0.00000   0.00130   0.00123   0.00004
 2 85  115405.2     86.7   0.000000001   0.00000   0.00016   0.00012   0.00005
 2 86  115422.7     86.6   0.000000017   0.00000   0.00067   0.00050   0.00047
 2 87  115448.2     86.6   0.000000667   0.00004   0.00006   0.00146   0.00590
 2 88  115450.5     86.6   0.000000689   0.00004   0.00423   0.00439   0.00100
 2 89  116426.7     85.9   0.000001984   0.00011   0.00404   0.00128   0.00954
 2 90  116433.9     85.9   0.000000632   0.00003   0.00023   0.00184   0.00559
 2 91  116443.2     85.9   0.000000170   0.00001   0.00153   0.00023   0.00264
 2 92  116470.8     85.9   0.000000007   0.00000   0.00020   0.00014   0.00057
 2 93  116471.4     85.9   0.000000023   0.00000   0.00052   0.00012   0.00098
 2 94  118623.9     84.3   0.000000660   0.00004   0.00115   0.00034   0.00585
 2 95  118629.0     84.3   0.000003923   0.00021   0.00894   0.01142   0.00111
 2 96  118639.2     84.3   0.000000118   0.00001   0.00008   0.00252   0.00004
 2 97  120618.5     82.9   0.000003791   0.00020   0.00429   0.00846   0.01054
 2 98  120621.8     82.9   0.000017065   0.00091   0.00196   0.01167   0.02766
 2 99  120633.2     82.9   0.000000520   0.00003   0.00260   0.00335   0.00310
 2 100  122060.4     81.9   0.000000478   0.00003   0.00030   0.00068   0.00495
 2 101  122064.7     81.9   0.000135135   0.00708   0.02292   0.00702   0.08067
 2 102  122075.7     81.9   0.000424934   0.02227   0.04170   0.01301   0.14270
 2 103  123167.1     81.2   0.000058965   0.00306   0.03183   0.04163   0.01779
 2 104  123168.5     81.2   0.000047296   0.00246   0.03310   0.03542   0.01034
 2 105  123187.8     81.2   0.000135735   0.00705   0.05394   0.06113   0.02006
 2 106  123226.1     81.2   0.000000968   0.00005   0.00002   0.00704   0.00087
 2 107  123228.6     81.2   0.000015877   0.00082   0.02133   0.01794   0.00689
 2 108  123248.3     81.1   0.000007847   0.00041   0.00895   0.01731   0.00525
 2 109  124567.7     80.3   0.000142929   0.00734   0.00519   0.00844   0.08510
 2 110  124569.1     80.3   0.000619005   0.03179   0.02976   0.03424   0.17244
 2 111  124583.7     80.3   0.000001406   0.00007   0.00516   0.00649   0.00185
 2 112  125263.1     79.8   0.000007859   0.00040   0.00728   0.01848   0.00261
 2 113  125263.4     79.8   0.000007912   0.00040   0.01676   0.00253   0.01081
 2 114  125340.2     79.8   0.000028552   0.00146   0.03133   0.01782   0.01258
 2 115  125860.5     79.5   0.000455405   0.02315   0.10779   0.10328   0.02939
 2 116  125964.4     79.4   0.000012206   0.00062   0.01867   0.01576   0.00481
 2 117  125995.1     79.4   0.000000382   0.00002   0.00252   0.00303   0.00197
 2 118  126913.0     78.8   0.000046993   0.00237   0.03104   0.03393   0.01594
 2 119  126932.8     78.8   0.000011153   0.00056   0.01654   0.01183   0.01219
 2 120  126972.1     78.8   0.000246808   0.01244   0.06763   0.08056   0.03704
 2 121  126983.5     78.8   0.000008541   0.00043   0.01843   0.00364   0.00881
 2 122  127028.3     78.7   0.000657006   0.03309   0.10295   0.02088   0.14851
 2 123  127046.4     78.7   0.000016729   0.00084   0.01239   0.02378   0.01112
 2 124  127069.7     78.7   0.000157013   0.00791   0.03277   0.06028   0.05655
 2 125  127112.8     78.7   0.000012405   0.00062   0.02098   0.01061   0.00845
 2 126  127156.3     78.6   0.000001063   0.00005   0.00222   0.00304   0.00627
 2 127  127469.3     78.5   0.000000331   0.00002   0.00289   0.00166   0.00234
 2 128  127587.1     78.4   0.000008163   0.00041   0.01171   0.00326   0.01618
 2 129  127625.5     78.4   0.000001457   0.00007   0.00179   0.00154   0.00821
 2 130  128115.7     78.1   0.000119108   0.00595   0.03296   0.01390   0.06833
 2 131  128184.0     78.0   0.000000305   0.00002   0.00117   0.00370   0.00039
 2 132  128189.5     78.0   0.000000301   0.00002   0.00278   0.00269   0.00028
 2 133  128444.9     77.9   0.000202235   0.01007   0.07206   0.06560   0.02400
 2 134  128458.1     77.8   0.000013410   0.00067   0.02009   0.00809   0.01410
 2 135  128474.8     77.8   0.000002798   0.00014   0.00675   0.00787   0.00565
 2 136  129404.0     77.3   0.000006254   0.00031   0.01363   0.01045   0.00378
 2 137  129417.5     77.3   0.000077753   0.00384   0.03662   0.02316   0.04434
 2 138  129453.6     77.2   0.000198426   0.00981   0.05771   0.03774   0.07108
 2 139  130419.3     76.7   0.000013862   0.00068   0.00734   0.01262   0.02161
 2 140  130479.4     76.6   0.000002126   0.00010   0.00943   0.00383   0.00077
 2 141  130497.5     76.6   0.000003054   0.00015   0.00657   0.00674   0.00782
 2 142  130808.3     76.4   0.000001197   0.00006   0.00684   0.00094   0.00329
 2 143  130811.2     76.4   0.000007509   0.00037   0.00638   0.00667   0.01679
 2 144  130887.1     76.4   0.000035355   0.00173   0.02789   0.02030   0.02321
 2 145  131018.0     76.3   0.000125919   0.00615   0.04589   0.02441   0.05871
 2 146  131083.8     76.3   0.000000164   0.00001   0.00094   0.00248   0.00098
 2 147  131094.3     76.3   0.000003249   0.00016   0.00238   0.00291   0.01202
 2 148  132407.4     75.5   0.000276539   0.01336   0.00415   0.06512   0.09542
 2 149  132415.9     75.5   0.000010796   0.00052   0.00280   0.01356   0.01816
 2 150  132421.9     75.5   0.000000404   0.00002   0.00356   0.00086   0.00247
 2 151  138835.0     72.0   0.000051517   0.00237   0.02870   0.01257   0.03732
 2 152  138838.2     72.0   0.000000078   0.00000   0.00052   0.00157   0.00092
 2 153  138841.5     72.0   0.000005553   0.00026   0.00955   0.00427   0.01210
 2 154  141282.1     70.8   0.000017330   0.00078   0.01907   0.02037   0.00245
 2 155  141285.1     70.8   0.000011731   0.00053   0.01575   0.01671   0.00196
 2 156  141290.7     70.8   0.000000122   0.00001   0.00127   0.00015   0.00198
 2 157  141958.4     70.4   0.000000976   0.00004   0.00425   0.00487   0.00149
 2 158  141961.1     70.4   0.000040779   0.00184   0.02740   0.03135   0.01019
 2 159  141961.6     70.4   0.000000000   0.00000   0.00010   0.00007   0.00004

------------------------------------------------------------------------------
                           SOC CORRECTED DIPOLE MOMENTS
------------------------------------------------------------------------------
      TX        TY        TZ           |T|
   (Debye)   (Debye)   (Debye)      (Debye)
------------------------------------------------------------------------------
  41.63419 -40.61863 -10.74169     59.14949

--------------
CASSCF TIMINGS
--------------

Total time                       ...     6181.9 sec
Sum of individual times          ...     6185.9 sec (100.1%)

Calculation of AO operators
   F(Core) operator              ...       76.0 sec (  1.2%)
   G(Act) operator               ...       72.0 sec (  1.2%)
   J(AO) operators               ...        0.0 sec (  0.0%)
Calculation of MO transformed quantities
   J(MO) operators               ...        6.4 sec (  0.1%)
   (pq|rs) integrals             ...        0.0 sec (  0.0%)
   AO->MO one electron integrals ...        0.2 sec (  0.0%)
Configuration interaction steps
   CI-setup phase                ...        0.0 sec (  0.0%)
   CI-solution phase             ...        0.1 sec (  0.0%)
   Generation of densities       ...        0.0 sec (  0.0%)
Orbital improvement steps
   Orbital gradient              ...        0.1 sec (  0.0%)
PT2 
   NEVPT2 time                   ...     6001.1 sec ( 97.1%)
Properties                       ...       16.0 sec (  0.3%)
   SOC integral calculation      ...       13.9 sec (  0.2%)
   SSC RMEs (incl. integrals)    ...        0.0 sec (  0.0%)
   SOC RMEs                      ...        0.1 sec (  0.0%)

Maximum memory used throughout the entire CASSCF-calculation: 1136.7 MB

-------------------------   --------------------
FINAL SINGLE POINT ENERGY     -2886.215499429055
-------------------------   --------------------


                            ***************************************
                            *     ORCA property calculations      *
                            ***************************************

                                    ---------------------
                                    Active property flags
                                    ---------------------
   (+) Dipole Moment


------------------------------------------------------------------------------
                       ORCA ELECTRIC PROPERTIES CALCULATION
------------------------------------------------------------------------------

Dipole Moment Calculation                       ... on
Quadrupole Moment Calculation                   ... off
Polarizability Calculation                      ... off
GBWName                                         ... nevpt2.gbw
Electron density                                ... nevpt2.scfp
The origin for moment calculation is the CENTER OF MASS  = (12.136837, 14.640820 12.612831)

-------------
DIPOLE MOMENT
-------------
                                X             Y             Z
Electronic contribution:    -16.26201      15.86490       4.19971
Nuclear contribution   :     16.37982     -15.98027      -4.22602
                        -----------------------------------------
Total Dipole Moment    :      0.11781      -0.11538      -0.02631
                        -----------------------------------------
Magnitude (a.u.)       :      0.16699
Magnitude (Debye)      :      0.42444



--------------------
Rotational spectrum 
--------------------
 
Rotational constants in cm-1:     0.001770     0.001155     0.001000 
Rotational constants in MHz :    53.068069    34.613082    29.974179 

 Dipole components along the rotational axes: 
x,y,z [a.u.] :     0.166943    -0.003593     0.001145 
x,y,z [Debye]:     0.424336    -0.009132     0.002912 

 

Timings for individual modules:

Sum of individual times         ...     6215.655 sec (= 103.594 min)
GTO integral calculation        ...       14.699 sec (=   0.245 min)   0.2 %
SCF iterations                  ...       14.591 sec (=   0.243 min)   0.2 %
CASSCF iterations               ...     6186.365 sec (= 103.106 min)  99.5 %
                             ****ORCA TERMINATED NORMALLY****
TOTAL RUN TIME: 0 days 1 hours 43 minutes 36 seconds 581 msec
