
                                 *****************
                                 * O   R   C   A *
                                 *****************

                                            #,                                       
                                            ###                                      
                                            ####                                     
                                            #####                                    
                                            ######                                   
                                           ########,                                 
                                     ,,################,,,,,                         
                               ,,#################################,,                 
                          ,,##########################################,,             
                       ,#########################################, ''#####,          
                    ,#############################################,,   '####,        
                  ,##################################################,,,,####,       
                ,###########''''           ''''###############################       
              ,#####''   ,,,,##########,,,,          '''####'''          '####       
            ,##' ,,,,###########################,,,                        '##       
           ' ,,###''''                  '''############,,,                           
         ,,##''                                '''############,,,,        ,,,,,,###''
      ,#''                                            '''#######################'''  
     '                                                          ''''####''''         
             ,#######,   #######,   ,#######,      ##                                
            ,#'     '#,  ##    ##  ,#'     '#,    #''#        ######   ,####,        
            ##       ##  ##   ,#'  ##            #'  '#       #        #'  '#        
            ##       ##  #######   ##           ,######,      #####,   #    #        
            '#,     ,#'  ##    ##  '#,     ,#' ,#      #,         ##   #,  ,#        
             '#######'   ##     ##  '#######'  #'      '#     #####' # '####'        



                  #######################################################
                  #                        -***-                        #
                  #          Department of theory and spectroscopy      #
                  #    Directorship and core code : Frank Neese         #
                  #        Max Planck Institute fuer Kohlenforschung    #
                  #                Kaiser Wilhelm Platz 1               #
                  #                 D-45470 Muelheim/Ruhr               #
                  #                      Germany                        #
                  #                                                     #
                  #                  All rights reserved                #
                  #                        -***-                        #
                  #######################################################


                         Program Version 5.0.3 -  RELEASE  -


 With contributions from (in alphabetic order):
   Daniel Aravena         : Magnetic Suceptibility
   Michael Atanasov       : Ab Initio Ligand Field Theory (pilot matlab implementation)
   Alexander A. Auer      : GIAO ZORA, VPT2 properties, NMR spectrum
   Ute Becker             : Parallelization
   Giovanni Bistoni       : ED, misc. LED, open-shell LED, HFLD
   Martin Brehm           : Molecular dynamics
   Dmytro Bykov           : SCF Hessian
   Vijay G. Chilkuri      : MRCI spin determinant printing, contributions to CSF-ICE
   Dipayan Datta          : RHF DLPNO-CCSD density
   Achintya Kumar Dutta   : EOM-CC, STEOM-CC
   Dmitry Ganyushin       : Spin-Orbit,Spin-Spin,Magnetic field MRCI
   Miquel Garcia          : C-PCM and meta-GGA Hessian, CC/C-PCM, Gaussian charge scheme
   Yang Guo               : DLPNO-NEVPT2, F12-NEVPT2, CIM, IAO-localization
   Andreas Hansen         : Spin unrestricted coupled pair/coupled cluster methods
   Benjamin Helmich-Paris : MC-RPA, TRAH-SCF, COSX integrals
   Lee Huntington         : MR-EOM, pCC
   Robert Izsak           : Overlap fitted RIJCOSX, COSX-SCS-MP3, EOM
   Marcus Kettner         : VPT2
   Christian Kollmar      : KDIIS, OOCD, Brueckner-CCSD(T), CCSD density, CASPT2, CASPT2-K
   Simone Kossmann        : Meta GGA functionals, TD-DFT gradient, OOMP2, MP2 Hessian
   Martin Krupicka        : Initial AUTO-CI
   Lucas Lang             : DCDCAS
   Marvin Lechner         : AUTO-CI (C++ implementation), FIC-MRCC
   Dagmar Lenk            : GEPOL surface, SMD
   Dimitrios Liakos       : Extrapolation schemes; Compound Job, initial MDCI parallelization
   Dimitrios Manganas     : Further ROCIS development; embedding schemes
   Dimitrios Pantazis     : SARC Basis sets
   Anastasios Papadopoulos: AUTO-CI, single reference methods and gradients
   Taras Petrenko         : DFT Hessian,TD-DFT gradient, ASA, ECA, R-Raman, ABS, FL, XAS/XES, NRVS
   Peter Pinski           : DLPNO-MP2, DLPNO-MP2 Gradient
   Christoph Reimann      : Effective Core Potentials
   Marius Retegan         : Local ZFS, SOC
   Christoph Riplinger    : Optimizer, TS searches, QM/MM, DLPNO-CCSD(T), (RO)-DLPNO pert. Triples
   Tobias Risthaus        : Range-separated hybrids, TD-DFT gradient, RPA, STAB
   Michael Roemelt        : Original ROCIS implementation
   Masaaki Saitow         : Open-shell DLPNO-CCSD energy and density
   Barbara Sandhoefer     : DKH picture change effects
   Avijit Sen             : IP-ROCIS
   Kantharuban Sivalingam : CASSCF convergence, NEVPT2, FIC-MRCI
   Bernardo de Souza      : ESD, SOC TD-DFT
   Georgi Stoychev        : AutoAux, RI-MP2 NMR, DLPNO-MP2 response
   Willem Van den Heuvel  : Paramagnetic NMR
   Boris Wezisla          : Elementary symmetry handling
   Frank Wennmohs         : Technical directorship


 We gratefully acknowledge several colleagues who have allowed us to
 interface, adapt or use parts of their codes:
   Stefan Grimme, W. Hujo, H. Kruse, P. Pracht,  : VdW corrections, initial TS optimization,
                  C. Bannwarth, S. Ehlert          DFT functionals, gCP, sTDA/sTD-DF
   Ed Valeev, F. Pavosevic, A. Kumar             : LibInt (2-el integral package), F12 methods
   Garnet Chan, S. Sharma, J. Yang, R. Olivares  : DMRG
   Ulf Ekstrom                                   : XCFun DFT Library
   Mihaly Kallay                                 : mrcc  (arbitrary order and MRCC methods)
   Jiri Pittner, Ondrej Demel                    : Mk-CCSD
   Frank Weinhold                                : gennbo (NPA and NBO analysis)
   Christopher J. Cramer and Donald G. Truhlar   : smd solvation model
   Lars Goerigk                                  : TD-DFT with DH, B97 family of functionals
   V. Asgeirsson, H. Jonsson                     : NEB implementation
   FAccTs GmbH                                   : IRC, NEB, NEB-TS, DLPNO-Multilevel, CI-OPT
                                                   MM, QMMM, 2- and 3-layer-ONIOM, Crystal-QMMM,
                                                   LR-CPCM, SF, NACMEs, symmetry and pop. for TD-DFT,
                                                   nearIR, NL-DFT gradient (VV10), updates on ESD,
                                                   ML-optimized integration grids
   S Lehtola, MJT Oliveira, MAL Marques          : LibXC Library
   Liviu Ungur et al                             : ANISO software


 Your calculation uses the libint2 library for the computation of 2-el integrals
 For citations please refer to: http://libint.valeyev.net

 Your ORCA version has been built with support for libXC version: 5.1.0
 For citations please refer to: https://tddft.org/programs/libxc/

 This ORCA versions uses:
   CBLAS   interface :  Fast vector & matrix operations
   LAPACKE interface :  Fast linear algebra routines
   SCALAPACK package :  Parallel linear algebra routines
   Shared memory     :  Shared parallel matrices
   BLAS/LAPACK       :  OpenBLAS 0.3.15  USE64BITINT DYNAMIC_ARCH NO_AFFINITY Sandybridge SINGLE_THREADED
        Core in use  :  Sandybridge
   Copyright (c) 2011-2014, The OpenBLAS Project




***************************************
The coordinates will be read from file: pbe.xyz
***************************************


================================================================================

cite the ECPs for Au [Def2-ECP] as follows:
Ce-Yb(ecp-28): M. Dolg, H. Stoll, H.Preuss, J. Chem. Phys., 1989, 90, 1730-1734.
Y-Cd(ecp-28), Hf-Hg(ecp-46): D. Andrae,U. Haeussermann, M. Dolg, H. Stoll, H. Preuss, Theor. Chim. Acta, 1990, 77, 123-141.
In-Sb(ecp-28), Tl-Bi(ecp-46): B. Metz, H. Stoll, M. Dolg, J. Chem. Phys., 2000, 113, 2563-2569.
Te-Xe(ecp-28), Po-Rn(ecp-46): K. A. Peterson, D. Figgen, E. Goll, H. Stoll, M. Dolg, J. Chem. Phys., 2003, 119, 11113-11123.
Rb(ecp-28), Cs(ecp-46): T. Leininger, A. Nicklass, W. Kuechle, H. Stoll, M. Dolg, A. Bergner, Chem. Phys. Lett., 1996, 255, 274-280.
Sr(ecp-28), Ba(ecp-46): M. Kaupp, P. V. Schleyer, H. Stoll and H. Preuss, J. Chem. Phys., 1991, 94, 1360-1366.
La(ecp-46): M. Dolg, H. Stoll, A. Savin, H. Preuss, Theor. Chim. Acta, 1989, 75, 173-194.
Lu(ecp-28): X. Cao, M. Dolg, J. Chem. Phys., 2001, 115, 7348-7355.

ECP parameters for Au [Def2-ECP] have been obtained from:
TURBOMOLE (7.0.2)

----- Orbital basis set information -----
Your calculation utilizes the basis: def2-TZVP
   F. Weigend and R. Ahlrichs, Phys. Chem. Chem. Phys. 7, 3297 (2005).

----- AuxJ basis set information -----
Your calculation utilizes the auxiliary basis: def2/J
   F. Weigend, Phys. Chem. Chem. Phys. 8, 1057 (2006).

================================================================================
                                        WARNINGS
                       Please study these warnings very carefully!
================================================================================


WARNING: your system is open-shell and RHF/RKS was chosen
  ===> : WILL SWITCH to UHF/UKS


INFO   : the flag for use of the SHARK integral package has been found!



***************************************
The coordinates will be read from file: pbe.xyz
***************************************


================================================================================

cite the ECPs for Au [Def2-ECP] as follows:
Ce-Yb(ecp-28): M. Dolg, H. Stoll, H.Preuss, J. Chem. Phys., 1989, 90, 1730-1734.
Y-Cd(ecp-28), Hf-Hg(ecp-46): D. Andrae,U. Haeussermann, M. Dolg, H. Stoll, H. Preuss, Theor. Chim. Acta, 1990, 77, 123-141.
In-Sb(ecp-28), Tl-Bi(ecp-46): B. Metz, H. Stoll, M. Dolg, J. Chem. Phys., 2000, 113, 2563-2569.
Te-Xe(ecp-28), Po-Rn(ecp-46): K. A. Peterson, D. Figgen, E. Goll, H. Stoll, M. Dolg, J. Chem. Phys., 2003, 119, 11113-11123.
Rb(ecp-28), Cs(ecp-46): T. Leininger, A. Nicklass, W. Kuechle, H. Stoll, M. Dolg, A. Bergner, Chem. Phys. Lett., 1996, 255, 274-280.
Sr(ecp-28), Ba(ecp-46): M. Kaupp, P. V. Schleyer, H. Stoll and H. Preuss, J. Chem. Phys., 1991, 94, 1360-1366.
La(ecp-46): M. Dolg, H. Stoll, A. Savin, H. Preuss, Theor. Chim. Acta, 1989, 75, 173-194.
Lu(ecp-28): X. Cao, M. Dolg, J. Chem. Phys., 2001, 115, 7348-7355.

ECP parameters for Au [Def2-ECP] have been obtained from:
TURBOMOLE (7.0.2)

----- Orbital basis set information -----
Your calculation utilizes the basis: def2-TZVP
   F. Weigend and R. Ahlrichs, Phys. Chem. Chem. Phys. 7, 3297 (2005).

----- AuxJ basis set information -----
Your calculation utilizes the auxiliary basis: def2/J
   F. Weigend, Phys. Chem. Chem. Phys. 8, 1057 (2006).

================================================================================
                                        WARNINGS
                       Please study these warnings very carefully!
================================================================================


INFO   : the flag for use of the SHARK integral package has been found!

================================================================================
                                       INPUT FILE
================================================================================
NAME = pbeSP.inp
|  1> !PBE def2-TZVP VERYSLOWCONV
|  2> 
|  3> %pal nprocs 16 end 
|  4> 
|  5> *xyzfile 0 5 pbe.xyz
|  6> 
|  7> $new_job
|  8> 
|  9> !PBE def2-TZVP VERYSLOWCONV
| 10>  
| 11> 
| 12> %pal nprocs 16 end 
| 13> 
| 14> *xyzfile 0 3 pbe.xyz
| 15> 
| 16> 
| 17> 
| 18> 
| 19> 
| 20>                          ****END OF INPUT****
================================================================================


                 $$$$$$$$$$$$$$$$$$$$$$$$$$$$$$$$$$$$$$$$$$$$$$ 
                 $ THERE ARE  2 JOBS TO BE PROCESSED THIS RUN $
                 $$$$$$$$$$$$$$$$$$$$$$$$$$$$$$$$$$$$$$$$$$$$$$ 




                 $$$$$$$$$$$$$$$$  JOB NUMBER  1 $$$$$$$$$$$$$$


                       ****************************
                       * Single Point Calculation *
                       ****************************

---------------------------------
CARTESIAN COORDINATES (ANGSTROEM)
---------------------------------
  Au     7.080532    5.283059    7.320395
  Au     8.783703    6.165548    5.404195
  Au     7.157217    8.403894    4.721445
  Au     8.841413   10.444020    6.146051
  Au     9.926650    8.501200    4.507662
  Au     9.653123    6.010096    8.097135
  Au    10.588475    8.531537    7.279928
  Au     6.329151    8.505825    9.394353
  Au     8.010635   10.571223    8.752826
  Au     5.324738    7.392601    6.534137
  Au     7.601467    6.040208   10.032880
  Au     5.000152    6.115183    8.957864
  Au     9.234053    8.259889    9.705848
  Au     6.144287   10.012649    6.749460
  Fe     7.940904    8.005388    7.291902

----------------------------
CARTESIAN COORDINATES (A.U.)
----------------------------
  NO LB      ZA    FRAG     MASS         X           Y           Z
   0 Au   19.0000*   0   196.966   13.380266    9.983536   13.833543
   1 Au   19.0000*   0   196.966   16.598793   11.651197   10.212449
   2 Au   19.0000*   0   196.966   13.525180   15.881058    8.922238
   3 Au   19.0000*   0   196.966   16.707848   19.736338   11.614354
   4 Au   19.0000*   0   196.966   18.758649   16.064939    8.518247
   5 Au   19.0000*   0   196.966   18.241759   11.357435   15.301368
   6 Au   19.0000*   0   196.966   20.009318   16.122268   13.757071
   7 Au   19.0000*   0   196.966   11.960363   16.073680   17.752755
   8 Au   19.0000*   0   196.966   15.137906   19.976716   16.540443
   9 Au   19.0000*   0   196.966   10.062297   13.969992   12.347730
  10 Au   19.0000*   0   196.966   14.364690   11.414339   18.959395
  11 Au   19.0000*   0   196.966    9.448919   11.556021   16.927910
  12 Au   19.0000*   0   196.966   17.449832   15.608927   18.341395
  13 Au   19.0000*   0   196.966   11.611019   18.921165   12.754630
  14 Fe   26.0000    0    55.850   15.006134   15.127990   13.779698
* core charge reduced due to ECP

--------------------------------
INTERNAL COORDINATES (ANGSTROEM)
--------------------------------
 Au     0   0   0     0.000000000000     0.00000000     0.00000000
 Au     1   0   0     2.711346922072     0.00000000     0.00000000
 Au     2   1   0     2.849876880186    93.80979381     0.00000000
 Au     3   2   1     3.004684975200    95.72732463   103.47717720
 Au     2   1   3     2.750521114757   140.15431648    44.38689124
 Au     1   2   3     2.783905851482    62.07612863   241.53178638
 Au     6   1   2     2.810760707497   117.43040960    51.26012943
 Au     1   2   3     3.905392723281   103.15451771   311.65992669
 Au     4   3   2     2.738913175026   108.22610883   273.01053078
 Au     3   2   1     2.768852508932    86.21616510   355.77022193
 Au     6   1   2     2.820869914449    61.45461105   157.02541448
 Au    10   3   2     2.758913964812   145.29647512    37.16194409
 Au    11   6   1     2.774756005325    59.98221925   230.80446459
 Au    10   3   2     2.753665610293    60.44259397   127.31530360
 Fe     8   1   2     2.696012911909    46.97414409   357.13402308

---------------------------
INTERNAL COORDINATES (A.U.)
---------------------------
 Au     0   0   0     0.000000000000     0.00000000     0.00000000
 Au     1   0   0     5.123703136767     0.00000000     0.00000000
 Au     2   1   0     5.385486818946    93.80979381     0.00000000
 Au     3   2   1     5.678031721837    95.72732463   103.47717720
 Au     2   1   3     5.197731632459   140.15431648    44.38689124
 Au     1   2   3     5.260819641922    62.07612863   241.53178638
 Au     6   1   2     5.311567965157   117.43040960    51.26012943
 Au     1   2   3     7.380122692410   103.15451771   311.65992669
 Au     4   3   2     5.175795805387   108.22610883   273.01053078
 Au     3   2   1     5.232372947101    86.21616510   355.77022193
 Au     6   1   2     5.330671597727    61.45461105   157.02541448
 Au    10   3   2     5.213591820545   145.29647512    37.16194409
 Au    11   6   1     5.243528938518    59.98221925   230.80446459
 Au    10   3   2     5.203673867851    60.44259397   127.31530360
 Fe     8   1   2     5.094726057024    46.97414409   357.13402308

---------------------
BASIS SET INFORMATION
---------------------
There are 2 groups of distinct atoms

 Group   1 Type Au  : 8s7p6d1f contracted to 6s4p3d1f pattern {311111/4111/411/1}
 Group   2 Type Fe  : 17s11p7d1f contracted to 6s4p4d1f pattern {842111/6311/4111/1}

Atom   0Au   basis set group =>   1
Atom   1Au   basis set group =>   1
Atom   2Au   basis set group =>   1
Atom   3Au   basis set group =>   1
Atom   4Au   basis set group =>   1
Atom   5Au   basis set group =>   1
Atom   6Au   basis set group =>   1
Atom   7Au   basis set group =>   1
Atom   8Au   basis set group =>   1
Atom   9Au   basis set group =>   1
Atom  10Au   basis set group =>   1
Atom  11Au   basis set group =>   1
Atom  12Au   basis set group =>   1
Atom  13Au   basis set group =>   1
Atom  14Fe   basis set group =>   2
---------------------------------
AUXILIARY/J BASIS SET INFORMATION
---------------------------------
There are 2 groups of distinct atoms

 Group   1 Type Au  : 11s5p5d3f3g contracted to 8s5p5d2f3g pattern {41111111/11111/11111/21/111}
 Group   2 Type Fe  : 19s5p5d3f3g contracted to 8s5p5d2f3g pattern {121111111/11111/11111/21/111}

Atom   0Au   basis set group =>   1
Atom   1Au   basis set group =>   1
Atom   2Au   basis set group =>   1
Atom   3Au   basis set group =>   1
Atom   4Au   basis set group =>   1
Atom   5Au   basis set group =>   1
Atom   6Au   basis set group =>   1
Atom   7Au   basis set group =>   1
Atom   8Au   basis set group =>   1
Atom   9Au   basis set group =>   1
Atom  10Au   basis set group =>   1
Atom  11Au   basis set group =>   1
Atom  12Au   basis set group =>   1
Atom  13Au   basis set group =>   1
Atom  14Fe   basis set group =>   2
-------------------------
ECP PARAMETER INFORMATION
-------------------------

 Group 1, Type Au ECP Def2-ECP (replacing 60 core electrons, lmax=3)

Atom   0Au   ECP group =>   1
Atom   1Au   ECP group =>   1
Atom   2Au   ECP group =>   1
Atom   3Au   ECP group =>   1
Atom   4Au   ECP group =>   1
Atom   5Au   ECP group =>   1
Atom   6Au   ECP group =>   1
Atom   7Au   ECP group =>   1
Atom   8Au   ECP group =>   1
Atom   9Au   ECP group =>   1
Atom  10Au   ECP group =>   1
Atom  11Au   ECP group =>   1
Atom  12Au   ECP group =>   1
Atom  13Au   ECP group =>   1



           ************************************************************
           *        Program running with 16 parallel MPI-processes    *
           *              working on a common directory               *
           ************************************************************
------------------------------------------------------------------------------
                           ORCA GTO INTEGRAL CALCULATION
                           -- RI-GTO INTEGRALS CHOSEN --
------------------------------------------------------------------------------
------------------------------------------------------------------------------
                   ___                                                        
                  /   \      - P O W E R E D   B Y -                         
                 /     \                                                     
                 |  |  |   _    _      __       _____    __    __             
                 |  |  |  | |  | |    /  \     |  _  \  |  |  /  |          
                  \  \/   | |  | |   /    \    | | | |  |  | /  /          
                 / \  \   | |__| |  /  /\  \   | |_| |  |  |/  /          
                |  |  |   |  __  | /  /__\  \  |    /   |      \           
                |  |  |   | |  | | |   __   |  |    \   |  |\   \          
                \     /   | |  | | |  |  |  |  | |\  \  |  | \   \       
                 \___/    |_|  |_| |__|  |__|  |_| \__\ |__|  \__/        
                                                                              
                      - O R C A' S   B I G   F R I E N D -                    
                                      &                                       
                       - I N T E G R A L  F E E D E R -                       
                                                                              
 v1 FN, 2020, v2 2021                                                         
------------------------------------------------------------------------------


Reading SHARK input file pbeSP.SHARKINP.tmp ... ok
----------------------
SHARK INTEGRAL PACKAGE
----------------------

Number of atoms                             ...     15
Number of basis functions                   ...    605
Number of shells                            ...    211
Maximum angular momentum                    ...      3
Integral batch strategy                     ... SHARK/LIBINT Hybrid
RI-J (if used) integral strategy            ... SPLIT-RIJ (Revised 2003 algorithm where possible)
Printlevel                                  ...      1
Contraction scheme used                     ... SEGMENTED contraction
Coulomb Range Separation                    ... NOT USED
Exchange Range Separation                   ... NOT USED
Finite Nucleus Model                        ... NOT USED
Auxiliary Coulomb fitting basis             ... AVAILABLE
   # of basis functions in Aux-J            ...   1335
   # of shells in Aux-J                     ...    345
   Maximum angular momentum in Aux-J        ...      4
Auxiliary J/K fitting basis                 ... NOT available
Auxiliary Correlation fitting basis         ... NOT available
Auxiliary 'external' fitting basis          ... NOT available
Integral threshold                          ...     1.000000e-10
Primitive cut-off                           ...     1.000000e-11
Primitive pair pre-selection threshold      ...     1.000000e-11

Calculating pre-screening integrals         ... done (  0.1 sec) Dimension = 211
Organizing shell pair data                  ... done (  0.8 sec)
Shell pair information
Total number of shell pairs                 ...     22366
Shell pairs after pre-screening             ...     17893
Total number of primitive shell pairs       ...     59609
Primitive shell pairs kept                  ...     34534
          la=0 lb=0:   2801 shell pairs
          la=1 lb=0:   4058 shell pairs
          la=1 lb=1:   1548 shell pairs
          la=2 lb=0:   3550 shell pairs
          la=2 lb=1:   2509 shell pairs
          la=2 lb=2:   1030 shell pairs
          la=3 lb=0:    937 shell pairs
          la=3 lb=1:    726 shell pairs
          la=3 lb=2:    634 shell pairs
          la=3 lb=3:    100 shell pairs

Calculating one electron integrals          ... done (  0.0 sec)
Calculating ECP integrals                   ... done ( 12.3 sec)
Calculating RI/J V-Matrix + Cholesky decomp.... done (  0.1 sec)
Calculating Nuclear repulsion               ... done (  0.0 sec) ENN=   5764.524537356722 Eh

SHARK setup successfully completed in  13.9 seconds

Maximum memory used throughout the entire GTOINT-calculation: 34.7 MB


           ************************************************************
           *        Program running with 16 parallel MPI-processes    *
           *              working on a common directory               *
           ************************************************************
-------------------------------------------------------------------------------
                                 ORCA SCF
-------------------------------------------------------------------------------

------------
SCF SETTINGS
------------
Hamiltonian:
 Density Functional     Method          .... DFT(GTOs)
 Exchange Functional    Exchange        .... PBE
   PBE kappa parameter   XKappa         ....  0.804000
   PBE mue parameter    XMuePBE         ....  0.219520
 Correlation Functional Correlation     .... PBE
   PBE beta parameter  CBetaPBE         ....  0.066725
 LDA part of GGA corr.  LDAOpt          .... PW91-LDA
 Gradients option       PostSCFGGA      .... off
   Density functional embedding theory  .... OFF
   NL short-range parameter             ....  6.400000
 RI-approximation to the Coulomb term is turned on
   Number of AuxJ basis functions       .... 1335


General Settings:
 Integral files         IntName         .... pbeSP
 Hartree-Fock type      HFTyp           .... UHF
 Total Charge           Charge          ....    0
 Multiplicity           Mult            ....    5
 Number of Electrons    NEL             ....  292
 Basis Dimension        Dim             ....  605
 Nuclear Repulsion      ENuc            ....   5764.5245373567 Eh

Convergence Acceleration:
 DIIS                   CNVDIIS         .... on
   Start iteration      DIISMaxIt       ....     0
   Startup error        DIISStart       ....  0.200000
   # of expansion vecs  DIISMaxEq       ....     5
   Bias factor          DIISBfac        ....   1.050
   Max. coefficient     DIISMaxC        ....  10.000
 Trust-Rad. Augm. Hess. CNVTRAH         .... auto
   Auto Start mean grad. ratio tolernc. ....  1.125000
   Auto Start start iteration           ....    20
   Auto Start num. interpolation iter.  ....    10
   Max. Number of Micro iterations      ....    16
   Max. Number of Macro iterations      .... Maxiter - #DIIS iter
   Number of Davidson start vectors     ....     2
   Converg. threshold I  (grad. norm)   ....   5.000e-05
   Converg. threshold II (energy diff.) ....   1.000e-06
   Grad. Scal. Fac. for Micro threshold ....   0.100
   Minimum threshold for Micro iter.    ....   0.010
   NR start threshold (gradient norm)   ....   0.001
   Initial trust radius                 ....   0.400
   Minimum AH scaling param. (alpha)    ....   1.000
   Maximum AH scaling param. (alpha)    .... 1000.000
   Orbital update algorithm             .... Taylor
   White noise on init. David. guess    .... on
   Maximum white noise                  ....   0.010
   Quad. conv. algorithm                .... NR
 SOSCF                  CNVSOSCF        .... off
 Level Shifting         CNVShift        .... on
   Level shift para.    LevelShift      ....    0.2500
   Turn off err/grad.   ShiftErr        ....    0.0000
 Zerner damping         CNVZerner       .... off
 Static damping         CNVDamp         .... on
   Fraction old density DampFac         ....    0.9200
   Max. Damping (<1)    DampMax         ....    0.9800
   Min. Damping (>=0)   DampMin         ....    0.0000
   Turn off err/grad.   DampErr         ....    0.0030
 Fernandez-Rico         CNVRico         .... off

SCF Procedure:
 Maximum # iterations   MaxIter         ....   125
 SCF integral mode      SCFMode         .... Direct
   Integral package                     .... SHARK and LIBINT hybrid scheme
 Reset frequency        DirectResetFreq ....    20
 Integral Threshold     Thresh          ....  1.000e-10 Eh
 Primitive CutOff       TCut            ....  1.000e-11 Eh

Convergence Tolerance:
 Convergence Check Mode ConvCheckMode   .... Total+1el-Energy
 Convergence forced     ConvForced      .... 0
 Energy Change          TolE            ....  1.000e-06 Eh
 1-El. energy change                    ....  1.000e-03 Eh
 DIIS Error             TolErr          ....  1.000e-06


Diagonalization of the overlap matrix:
Smallest eigenvalue                        ... 3.943e-04
Time for diagonalization                   ...    0.108 sec
Threshold for overlap eigenvalues          ... 1.000e-08
Number of eigenvalues below threshold      ... 0
Time for construction of square roots      ...    0.065 sec
Total time needed                          ...    0.174 sec

Time for model grid setup =    0.452 sec

------------------------------
INITIAL GUESS: MODEL POTENTIAL
------------------------------
Loading Hartree-Fock densities                     ... done
  calling /home/ehlert/src/miniconda3/envs/orca500/Programs/ORCA501/orca pbeSP_atom79.inp > pbeSP_atom79.out in order to generate an atomic fitting density for atom 0 (Au with ECP) on-the-fly... 
    atom 0 (Au), assumed electronic state with S=2: 1s2 2s2 2p6 3s2 3p6 4s2 3d10 4p6 5s2 4d10 5p6 6s1 4f14 5d10           ... done
Calculating cut-offs                               ... done
Initializing the effective Hamiltonian             ... done
Setting up the integral package (SHARK)            ... done
Starting the Coulomb interaction                   ... done (   0.2 sec)
Reading the grid                                   ... done
Mapping shells                                     ... done
Starting the XC term evaluation                    ... done (   0.2 sec)
  promolecular density results
     # of electrons  =   1132.014495888
     EX              =  -5175.654643800
     EC              =    -68.993361954
     EX+EC           =  -5244.648005753
Transforming the Hamiltonian                       ... done (   0.1 sec)
Diagonalizing the Hamiltonian                      ... done (   0.1 sec)
Back transforming the eigenvectors                 ... done (   0.0 sec)
Now organizing SCF variables                       ... done
                      ------------------
                      INITIAL GUESS DONE (   1.9 sec)
                      ------------------
-------------------
DFT GRID GENERATION
-------------------

General Integration Accuracy     IntAcc      ... 4.388
Radial Grid Type                 RadialGrid  ... OptM3 with GC (2021)
Angular Grid (max. ang.)         AngularGrid ... 4 (Lebedev-302)
Angular grid pruning method      GridPruning ... 4 (adaptive)
Weight generation scheme         WeightScheme... Becke
Basis function cutoff            BFCut       ... 1.0000e-10
Integration weight cutoff        WCut        ... 1.0000e-14
Angular grids for H and He will be reduced by one unit
Partially contracted basis set               ... off
Rotationally invariant grid construction     ... off

Total number of grid points                  ...   165618
Total number of batches                      ...     2595
Average number of points per batch           ...       63
Average number of grid points per atom       ...    11041
Time for grid setup =    1.591 sec

--------------
SCF ITERATIONS
--------------
ITER       Energy         Delta-E        Max-DP      RMS-DP      [F,P]     Damp
               ***  Starting incremental Fock matrix formation  ***
  0  -3161.5467304309   0.000000000000 0.11191178  0.00068080  0.5528512 0.9200
  1  -3162.9091423300  -1.362411899112 0.08935773  0.00062632  0.3510095 0.9200
                               ***Turning on DIIS***
  2  -3163.6424129551  -0.733270625016 0.07038443  0.00051598  0.2422752 0.9200
  3  -3163.9553237513  -0.312910796186 0.04264402  0.00041703  0.2220376 0.9200
  4  -3164.0400317583  -0.084708007061 0.04473020  0.00039033  0.2035827 0.9200
  5  -3164.0244563714   0.015575386913 0.05039021  0.00032973  0.1866445 0.9200
  6  -3164.0591675127  -0.034711141341 0.02578241  0.00026659  0.1710339 0.9200
  7  -3164.1789406203  -0.119773107561 0.02637657  0.00023061  0.1568129 0.9200
  8  -3164.2649993849  -0.086058764599 0.02827384  0.00020326  0.1442668 0.9200
  9  -3164.3198687026  -0.054869317706 0.02967805  0.00019952  0.1327468 0.9200
 10  -3164.3738807810  -0.054012078402 0.03635601  0.00020156  0.1219653 0.9200
 11  -3164.4114421554  -0.037561374407 0.01774839  0.00016306  0.1121154 0.9200
 12  -3164.4461601239  -0.034717968514 0.01745807  0.00015207  0.1031175 0.9200
 13  -3164.4998855779  -0.053725453923 0.02230697  0.00015423  0.0946932 0.9200
 14  -3164.5463235998  -0.046438021943 0.01804883  0.00014133  0.0869813 0.9200
 15  -3164.5830917381  -0.036768138261 0.01615910  0.00013559  0.0799675 0.9200
 16  -3164.6197553955  -0.036663657410 0.01441303  0.00013452  0.0734722 0.9200
 17  -3164.6527448078  -0.032989412376 0.01676653  0.00012617  0.0675508 0.9200
 18  -3164.6820347503  -0.029289942467 0.01933862  0.00011610  0.0621686 0.9200
 19  -3164.7119355878  -0.029900837483 0.01941123  0.00011105  0.0571369 0.9200
               *** Restarting incremental Fock matrix formation ***
                                   *** Resetting DIIS ***

 WARNING: the maximum gradient error descreased on average only by a factor   1.1
          during the last 20 iterations

                      *** Initiating the TRAH-SCF procedure ***


TRAH GRID
---------

General Integration Accuracy     IntAcc      ... 3.467
Radial Grid Type                 RadialGrid  ... OptM3 with GC (2021)
Angular Grid (max. ang.)         AngularGrid ... 1 (Lebedev-50)
Angular grid pruning method      GridPruning ... 4 (adaptive)
Weight generation scheme         WeightScheme... Becke
Basis function cutoff            BFCut       ... 1.0000e-10
Integration weight cutoff        WCut        ... 1.0000e-14
Angular grids for H and He will be reduced by one unit
Partially contracted basis set               ... off
Rotationally invariant grid construction     ... off

Total number of grid points                  ...    71426
Total number of batches                      ...     1124
Average number of points per batch           ...       63
Average number of grid points per atom       ...     4762

 --------------------------------------------------------------------------------------------
   Iter.        energy            ||Error||_2        Shift      TRadius  Mac/Mic        Rej.
 --------------------------------------------------------------------------------------------
WARNING: 442 diagonal Hessian elements are negative!
    0      -3164.843677304191     9.881573e-01                     0.400 (TRAH MAcro)   No
WARNING : negative HOMO - LUMO gap : (op = alpha) -0.395202
WARNING : negative HOMO - LUMO gap : (op =  beta) -0.293466
    0     dE    -1.637488e-01     4.943179e-01    -1.5959e-01      0.161 (TRAH MIcro)
    0     dE    -2.205231e-01     8.436259e-02    -2.0557e-01      0.270 (TRAH MIcro)
    0     dE    -2.228454e-01     5.450332e-02    -2.0790e-01      0.268 (TRAH MIcro)
    0     dE    -2.282246e-01     8.528263e-02    -2.1179e-01      0.279 (TRAH MIcro)
    0     dE    -2.387211e-01     5.530880e-02    -2.1499e-01      0.332 (TRAH MIcro)
    0     dE    -2.464545e-01     3.633989e-02    -2.1651e-01      0.372 (TRAH MIcro)
    0     dE    -2.532457e-01     6.188998e-02    -2.3176e-01      0.400 (TRAH MIcro)
    0     dE    -2.564776e-01     4.464005e-02    -2.8110e-01      0.399 (TRAH MIcro)
    0     dE    -2.440926e-01     2.125757e-02    -3.2064e-01      0.339 (TRAH MIcro)
    0     dE    -2.501693e-01     3.090746e-02    -3.2129e-01      0.364 (TRAH MIcro)
    0     dE    -2.280134e-01     1.789867e-02    -4.3753e-01      0.263 (TRAH MIcro)
    0     dE    -2.275982e-01     4.246080e-03    -4.3773e-01      0.261 (TRAH MIcro)
    1      -3165.062653662999     8.760037e-02                     0.480 (TRAH MAcro)   No
WARNING : small    HOMO - LUMO gap : (op = alpha) 0.014351
    1     dE    -2.756922e-03     7.660894e-02    -2.7542e-03      0.031 (TRAH MIcro)
    1     dE    -2.195435e-02     6.459161e-02    -2.2653e-02      0.480 (TRAH MIcro)
    1     dE    -2.372796e-02     3.214206e-02    -3.1801e-02      0.480 (TRAH MIcro)
    1     dE    -2.444603e-02     1.739753e-02    -3.4399e-02      0.480 (TRAH MIcro)
    1     dE    -2.458645e-02     9.665022e-03    -3.4578e-02      0.480 (TRAH MIcro)
    1     dE    -2.462736e-02     4.492844e-03    -3.4400e-02      0.480 (TRAH MIcro)
    2      -3165.077905474232     7.604956e-02                     0.480 (TRAH MAcro)   No
WARNING : small    HOMO - LUMO gap : (op = alpha) 0.018557
WARNING : small    HOMO - LUMO gap : (op =  beta) 0.005862
    2     dE    -1.093815e-03     6.186591e-02    -1.0936e-03      0.014 (TRAH MIcro)
    2     dE    -1.594786e-03     1.657848e-02    -1.5925e-03      0.038 (TRAH MIcro)
    2     dE    -2.722018e-03     2.078973e-02    -2.6648e-03      0.146 (TRAH MIcro)
    2     dE    -2.936424e-03     1.088722e-02    -2.8547e-03      0.169 (TRAH MIcro)
    2     dE    -2.993925e-03     6.307210e-03    -2.9024e-03      0.178 (TRAH MIcro)
    3      -3165.080457436069     1.339730e-02                     0.576 (TRAH MAcro)   No
WARNING : small    HOMO - LUMO gap : (op = alpha) 0.018572
    3     dE    -3.597284e-05     2.181175e-02    -3.5973e-05      0.003 (TRAH MIcro)
    3     dE    -1.389504e-04     1.425735e-02    -1.3887e-04      0.024 (TRAH MIcro)
    3     dE    -2.534418e-04     6.164879e-03    -2.5269e-04      0.054 (TRAH MIcro)
    3     dE    -2.685845e-04     3.002206e-03    -2.6763e-04      0.060 (TRAH MIcro)
    3     dE    -2.724470e-04     1.874161e-03    -2.7142e-04      0.062 (TRAH MIcro)
    3     dE    -2.738243e-04     8.799924e-04    -2.7277e-04      0.062 (TRAH MIcro)
    4      -3165.080742273721     2.256758e-03                     0.691 (TRAH MAcro)   No
WARNING : small    HOMO - LUMO gap : (op = alpha) 0.018486
    4     dE    -4.804591e-07     8.669329e-03    -4.8046e-07      0.000 (TRAH MIcro)
    4     dE    -1.535458e-06     1.194764e-03    -1.5355e-06      0.001 (TRAH MIcro)
    4     dE    -2.980771e-06     1.277344e-03    -2.9807e-06      0.004 (TRAH MIcro)
    4     dE    -4.066874e-06     8.637697e-04    -4.0666e-06      0.008 (TRAH MIcro)
    4     dE    -4.253617e-06     2.921273e-04    -4.2533e-06      0.009 (TRAH MIcro)
    4     dE    -4.288812e-06     1.966852e-04    -4.2885e-06      0.009 (TRAH MIcro)
    5      -3165.080746630527     2.018904e-04                           (NR   MAcro)
WARNING : small    HOMO - LUMO gap : (op = alpha) 0.018482
    5     dE    -9.923748e-09     1.710670e-04                           (NR   MIcro)
    5     dE    -1.832138e-08     1.235537e-04                           (NR   MIcro)
    5     dE    -3.190486e-08     9.848929e-05                           (NR   MIcro)
    5     dE    -3.734144e-08     4.313249e-05                           (NR   MIcro)
    5     dE    -3.799234e-08     3.269745e-05                           (NR   MIcro)
    5     dE    -3.858183e-08     1.453183e-05                           (NR   MIcro)
    5     dE    -3.867324e-08     6.622778e-06                           (NR   MIcro)
    5     dE    -3.870034e-08     3.633035e-06                           (NR   MIcro)
    6      -3165.080746669976     3.740834e-06                           (NR   MAcro)
WARNING : small    HOMO - LUMO gap : (op = alpha) 0.018480

               *****************************************************
               *                     SUCCESS                       *
               *           SCF CONVERGED AFTER  70 CYCLES          *
               *****************************************************


----------------
TOTAL SCF ENERGY
----------------

Total Energy       :        -3165.08074667 Eh          -86126.22569 eV

Components:
Nuclear Repulsion  :         5764.52453736 Eh          156860.68730 eV
Electronic Energy  :        -8929.60528403 Eh         -242986.91299 eV
One Electron Energy:       -16603.80789543 Eh         -451812.58254 eV
Two Electron Energy:         7674.20261140 Eh          208825.66955 eV

Virial components:
Potential Energy   :        -5067.68429310 Eh         -137898.70025 eV
Kinetic Energy     :         1902.60354643 Eh           51772.47456 eV
Virial Ratio       :            2.66355243


DFT components:
N(Alpha)           :      147.999947991139 electrons
N(Beta)            :      143.999935620063 electrons
N(Total)           :      291.999883611202 electrons
E(X)               :     -223.027071631064 Eh       
E(C)               :      -12.779423071660 Eh       
E(XC)              :     -235.806494702724 Eh       
DFET-embed. en.    :        0.000000000000 Eh       

---------------
SCF CONVERGENCE
---------------

  Last Energy change         ...   -3.9449e-08  Tolerance :   1.0000e-06
  Last Orbital Gradient      ...    3.7408e-06  Tolerance :   5.0000e-05
  Last Orbital Rotation      ...    9.6175e-04

             **** THE GBW FILE WAS UPDATED (pbeSP.gbw) ****
             **** DENSITY pbeSP.scfp WAS UPDATED ****
             **** ENERGY FILE WAS UPDATED (pbeSP.en.tmp) ****
----------------------
UHF SPIN CONTAMINATION
----------------------

Warning: in a DFT calculation there is little theoretical justification to 
         calculate <S**2> as in Hartree-Fock theory. We will do it anyways
         but you should keep in mind that the values have only limited relevance

Expectation value of <S**2>     :     6.382326
Ideal value S*(S+1) for S=2.0   :     6.000000
Deviation                       :     0.382326

             **** THE GBW FILE WAS UPDATED (pbeSP.gbw) ****
             **** DENSITY pbeSP.scfp WAS UPDATED ****
----------------
ORBITAL ENERGIES
----------------
                 SPIN UP ORBITALS
  NO   OCC          E(Eh)            E(eV) 
   0   1.0000    -254.776669     -6932.8256 
   1   1.0000     -29.616647      -805.9099 
   2   1.0000     -25.556684      -695.4327 
   3   1.0000     -25.549729      -695.2435 
   4   1.0000     -25.548045      -695.1976 
   5   1.0000      -4.034797      -109.7924 
   6   1.0000      -4.033008      -109.7437 
   7   1.0000      -4.032398      -109.7271 
   8   1.0000      -4.031893      -109.7134 
   9   1.0000      -4.031106      -109.6920 
  10   1.0000      -4.030484      -109.6750 
  11   1.0000      -4.028342      -109.6167 
  12   1.0000      -4.027656      -109.5981 
  13   1.0000      -4.026677      -109.5715 
  14   1.0000      -4.025187      -109.5309 
  15   1.0000      -4.025063      -109.5275 
  16   1.0000      -4.023658      -109.4893 
  17   1.0000      -4.019812      -109.3846 
  18   1.0000      -4.017914      -109.3330 
  19   1.0000      -3.396311       -92.4183 
  20   1.0000      -2.251609       -61.2694 
  21   1.0000      -2.248866       -61.1948 
  22   1.0000      -2.248459       -61.1837 
  23   1.0000      -2.248208       -61.1768 
  24   1.0000      -2.248060       -61.1728 
  25   1.0000      -2.246840       -61.1396 
  26   1.0000      -2.246660       -61.1347 
  27   1.0000      -2.246175       -61.1215 
  28   1.0000      -2.245730       -61.1094 
  29   1.0000      -2.245294       -61.0976 
  30   1.0000      -2.244980       -61.0890 
  31   1.0000      -2.244946       -61.0881 
  32   1.0000      -2.244183       -61.0673 
  33   1.0000      -2.243943       -61.0608 
  34   1.0000      -2.243540       -61.0498 
  35   1.0000      -2.243176       -61.0399 
  36   1.0000      -2.242813       -61.0301 
  37   1.0000      -2.242316       -61.0165 
  38   1.0000      -2.241363       -60.9906 
  39   1.0000      -2.241324       -60.9895 
  40   1.0000      -2.240665       -60.9716 
  41   1.0000      -2.240592       -60.9696 
  42   1.0000      -2.240424       -60.9650 
  43   1.0000      -2.240270       -60.9608 
  44   1.0000      -2.240001       -60.9535 
  45   1.0000      -2.239287       -60.9341 
  46   1.0000      -2.238488       -60.9123 
  47   1.0000      -2.238407       -60.9102 
  48   1.0000      -2.237567       -60.8873 
  49   1.0000      -2.237345       -60.8813 
  50   1.0000      -2.236858       -60.8680 
  51   1.0000      -2.236564       -60.8600 
  52   1.0000      -2.236505       -60.8584 
  53   1.0000      -2.235895       -60.8418 
  54   1.0000      -2.234145       -60.7942 
  55   1.0000      -2.234092       -60.7927 
  56   1.0000      -2.233122       -60.7663 
  57   1.0000      -2.232933       -60.7612 
  58   1.0000      -2.232582       -60.7517 
  59   1.0000      -2.231051       -60.7100 
  60   1.0000      -2.230088       -60.6838 
  61   1.0000      -2.229100       -60.6569 
  62   1.0000      -2.220323       -60.4181 
  63   1.0000      -2.205748       -60.0215 
  64   1.0000      -2.202596       -59.9357 
  65   1.0000      -0.438896       -11.9430 
  66   1.0000      -0.392283       -10.6746 
  67   1.0000      -0.387351       -10.5403 
  68   1.0000      -0.385234       -10.4827 
  69   1.0000      -0.383357       -10.4317 
  70   1.0000      -0.380278       -10.3479 
  71   1.0000      -0.375339       -10.2135 
  72   1.0000      -0.372132       -10.1262 
  73   1.0000      -0.369078       -10.0431 
  74   1.0000      -0.364341        -9.9142 
  75   1.0000      -0.357795        -9.7361 
  76   1.0000      -0.356257        -9.6943 
  77   1.0000      -0.353916        -9.6305 
  78   1.0000      -0.353055        -9.6071 
  79   1.0000      -0.351931        -9.5765 
  80   1.0000      -0.348993        -9.4966 
  81   1.0000      -0.347448        -9.4545 
  82   1.0000      -0.346727        -9.4349 
  83   1.0000      -0.342652        -9.3240 
  84   1.0000      -0.341764        -9.2999 
  85   1.0000      -0.341296        -9.2871 
  86   1.0000      -0.336943        -9.1687 
  87   1.0000      -0.334438        -9.1005 
  88   1.0000      -0.333423        -9.0729 
  89   1.0000      -0.331126        -9.0104 
  90   1.0000      -0.328361        -8.9352 
  91   1.0000      -0.327574        -8.9137 
  92   1.0000      -0.323045        -8.7905 
  93   1.0000      -0.321967        -8.7612 
  94   1.0000      -0.320271        -8.7150 
  95   1.0000      -0.319253        -8.6873 
  96   1.0000      -0.315391        -8.5822 
  97   1.0000      -0.314869        -8.5680 
  98   1.0000      -0.312475        -8.5029 
  99   1.0000      -0.308090        -8.3836 
 100   1.0000      -0.305221        -8.3055 
 101   1.0000      -0.302862        -8.2413 
 102   1.0000      -0.300403        -8.1744 
 103   1.0000      -0.299377        -8.1465 
 104   1.0000      -0.295857        -8.0507 
 105   1.0000      -0.291988        -7.9454 
 106   1.0000      -0.287836        -7.8324 
 107   1.0000      -0.285938        -7.7808 
 108   1.0000      -0.283478        -7.7138 
 109   1.0000      -0.282287        -7.6814 
 110   1.0000      -0.279014        -7.5924 
 111   1.0000      -0.277528        -7.5519 
 112   1.0000      -0.276147        -7.5143 
 113   1.0000      -0.275322        -7.4919 
 114   1.0000      -0.274803        -7.4778 
 115   1.0000      -0.273496        -7.4422 
 116   1.0000      -0.271288        -7.3821 
 117   1.0000      -0.269879        -7.3438 
 118   1.0000      -0.268515        -7.3067 
 119   1.0000      -0.267500        -7.2790 
 120   1.0000      -0.265772        -7.2320 
 121   1.0000      -0.264568        -7.1993 
 122   1.0000      -0.264041        -7.1849 
 123   1.0000      -0.261553        -7.1172 
 124   1.0000      -0.260520        -7.0891 
 125   1.0000      -0.259950        -7.0736 
 126   1.0000      -0.259157        -7.0520 
 127   1.0000      -0.258177        -7.0253 
 128   1.0000      -0.256684        -6.9847 
 129   1.0000      -0.256286        -6.9739 
 130   1.0000      -0.255228        -6.9451 
 131   1.0000      -0.254082        -6.9139 
 132   1.0000      -0.252725        -6.8770 
 133   1.0000      -0.252440        -6.8692 
 134   1.0000      -0.250751        -6.8233 
 135   1.0000      -0.249443        -6.7877 
 136   1.0000      -0.248427        -6.7601 
 137   1.0000      -0.247485        -6.7344 
 138   1.0000      -0.246646        -6.7116 
 139   1.0000      -0.245803        -6.6886 
 140   1.0000      -0.245117        -6.6700 
 141   1.0000      -0.243790        -6.6339 
 142   1.0000      -0.237732        -6.4690 
 143   1.0000      -0.230785        -6.2800 
 144   1.0000      -0.222610        -6.0575 
 145   1.0000      -0.201883        -5.4935 
 146   1.0000      -0.199864        -5.4386 
 147   1.0000      -0.196950        -5.3593 
 148   0.0000      -0.178470        -4.8564 
 149   0.0000      -0.147213        -4.0059 
 150   0.0000      -0.136615        -3.7175 
 151   0.0000      -0.124181        -3.3791 
 152   0.0000      -0.117638        -3.2011 
 153   0.0000      -0.114769        -3.1230 
 154   0.0000      -0.109335        -2.9752 
 155   0.0000      -0.077690        -2.1141 
 156   0.0000      -0.073033        -1.9873 
 157   0.0000      -0.070420        -1.9162 
 158   0.0000      -0.065287        -1.7766 
 159   0.0000      -0.060247        -1.6394 
 160   0.0000      -0.040789        -1.1099 
 161   0.0000      -0.030904        -0.8409 
 162   0.0000      -0.021671        -0.5897 
 163   0.0000      -0.018966        -0.5161 
 164   0.0000      -0.007187        -0.1956 
 165   0.0000      -0.000187        -0.0051 
 166   0.0000       0.001026         0.0279 
 167   0.0000       0.013221         0.3598 
 168   0.0000       0.015556         0.4233 
 169   0.0000       0.027968         0.7610 
 170   0.0000       0.031908         0.8683 
 171   0.0000       0.039670         1.0795 
 172   0.0000       0.040722         1.1081 
 173   0.0000       0.043699         1.1891 
 174   0.0000       0.045788         1.2460 
 175   0.0000       0.050902         1.3851 
 176   0.0000       0.063778         1.7355 
 177   0.0000       0.064866         1.7651 
 178   0.0000       0.067426         1.8347 
 179   0.0000       0.070915         1.9297 
 180   0.0000       0.071897         1.9564 
 181   0.0000       0.075287         2.0487 
 182   0.0000       0.076705         2.0873 
 183   0.0000       0.082678         2.2498 
 184   0.0000       0.087662         2.3854 
 185   0.0000       0.091429         2.4879 
 186   0.0000       0.094465         2.5705 
 187   0.0000       0.099316         2.7025 
 188   0.0000       0.116492         3.1699 
 189   0.0000       0.121771         3.3136 
 190   0.0000       0.126576         3.4443 
 191   0.0000       0.128395         3.4938 
 192   0.0000       0.136883         3.7248 
 193   0.0000       0.138678         3.7736 
 194   0.0000       0.145927         3.9709 
 195   0.0000       0.149759         4.0751 
 196   0.0000       0.152835         4.1588 
 197   0.0000       0.156506         4.2587 
 198   0.0000       0.157479         4.2852 
 199   0.0000       0.161827         4.4035 
 200   0.0000       0.163455         4.4478 
 201   0.0000       0.167363         4.5542 
 202   0.0000       0.168846         4.5945 
 203   0.0000       0.172444         4.6924 
 204   0.0000       0.175016         4.7624 
 205   0.0000       0.177578         4.8321 
 206   0.0000       0.199612         5.4317 
 207   0.0000       0.205472         5.5912 
 208   0.0000       0.208972         5.6864 
 209   0.0000       0.212164         5.7733 
 210   0.0000       0.219305         5.9676 
 211   0.0000       0.221768         6.0346 
 212   0.0000       0.223825         6.0906 
 213   0.0000       0.226208         6.1554 
 214   0.0000       0.230373         6.2688 
 215   0.0000       0.241485         6.5711 
 216   0.0000       0.241633         6.5752 
 217   0.0000       0.245110         6.6698 
 218   0.0000       0.249841         6.7985 
 219   0.0000       0.253712         6.9038 
 220   0.0000       0.260480         7.0880 
 221   0.0000       0.267579         7.2812 
 222   0.0000       0.269955         7.3458 
 223   0.0000       0.272481         7.4146 
 224   0.0000       0.276831         7.5330 
 225   0.0000       0.282499         7.6872 
 226   0.0000       0.285642         7.7727 
 227   0.0000       0.293773         7.9940 
 228   0.0000       0.296426         8.0662 
 229   0.0000       0.298131         8.1126 
 230   0.0000       0.303178         8.2499 
 231   0.0000       0.306774         8.3478 
 232   0.0000       0.311811         8.4848 
 233   0.0000       0.319927         8.7057 
 234   0.0000       0.322532         8.7765 
 235   0.0000       0.330568         8.9952 
 236   0.0000       0.331653         9.0247 
 237   0.0000       0.336742         9.1632 
 238   0.0000       0.336937         9.1685 
 239   0.0000       0.341795         9.3007 
 240   0.0000       0.344999         9.3879 
 241   0.0000       0.355180         9.6649 
 242   0.0000       0.366728         9.9792 
 243   0.0000       0.367444         9.9986 
 244   0.0000       0.370027        10.0690 
 245   0.0000       0.377616        10.2755 
 246   0.0000       0.381746        10.3878 
 247   0.0000       0.382340        10.4040 
 248   0.0000       0.387766        10.5516 
 249   0.0000       0.392466        10.6795 
 250   0.0000       0.396851        10.7989 
 251   0.0000       0.403018        10.9667 
 252   0.0000       0.410486        11.1699 
 253   0.0000       0.413310        11.2467 
 254   0.0000       0.415908        11.3174 
 255   0.0000       0.423495        11.5239 
 256   0.0000       0.432701        11.7744 
 257   0.0000       0.433464        11.7951 
 258   0.0000       0.437673        11.9097 
 259   0.0000       0.441878        12.0241 
 260   0.0000       0.447205        12.1691 
 261   0.0000       0.449406        12.2290 
 262   0.0000       0.451617        12.2891 
 263   0.0000       0.458321        12.4716 
 264   0.0000       0.464851        12.6492 
 265   0.0000       0.467686        12.7264 
 266   0.0000       0.469523        12.7764 
 267   0.0000       0.479362        13.0441 
 268   0.0000       0.481627        13.1057 
 269   0.0000       0.484276        13.1778 
 270   0.0000       0.489015        13.3068 
 271   0.0000       0.493685        13.4339 
 272   0.0000       0.497125        13.5274 
 273   0.0000       0.501001        13.6329 
 274   0.0000       0.505457        13.7542 
 275   0.0000       0.509729        13.8704 
 276   0.0000       0.514192        13.9919 
 277   0.0000       0.516790        14.0626 
 278   0.0000       0.517389        14.0789 
 279   0.0000       0.522194        14.2096 
 280   0.0000       0.527746        14.3607 
 281   0.0000       0.531267        14.4565 
 282   0.0000       0.539975        14.6935 
 283   0.0000       0.545379        14.8405 
 284   0.0000       0.551148        14.9975 
 285   0.0000       0.557274        15.1642 
 286   0.0000       0.562229        15.2990 
 287   0.0000       0.574333        15.6284 
 288   0.0000       0.577658        15.7189 
 289   0.0000       0.594854        16.1868 
 290   0.0000       0.631215        17.1762 
 291   0.0000       0.635059        17.2808 
 292   0.0000       0.658800        17.9269 
 293   0.0000       0.666348        18.1323 
 294   0.0000       0.684023        18.6132 
 295   0.0000       0.691021        18.8036 
 296   0.0000       0.700682        19.0665 
 297   0.0000       0.708708        19.2849 
 298   0.0000       0.712419        19.3859 
 299   0.0000       0.719975        19.5915 
 300   0.0000       0.726219        19.7614 
 301   0.0000       0.738830        20.1046 
 302   0.0000       0.746064        20.3014 
 303   0.0000       0.750976        20.4351 
 304   0.0000       0.759487        20.6667 
 305   0.0000       0.767054        20.8726 
 306   0.0000       0.775540        21.1035 
 307   0.0000       0.780530        21.2393 
 308   0.0000       0.787819        21.4376 
 309   0.0000       0.799874        21.7657 
 310   0.0000       0.807314        21.9681 
 311   0.0000       0.813305        22.1312 
 312   0.0000       0.825158        22.4537 
 313   0.0000       0.828207        22.5367 
 314   0.0000       0.829409        22.5694 
 315   0.0000       0.844539        22.9811 
 316   0.0000       0.854315        23.2471 
 317   0.0000       0.860478        23.4148 
 318   0.0000       0.869700        23.6657 
 319   0.0000       0.879591        23.9349 
 320   0.0000       0.883245        24.0343 
 321   0.0000       0.890038        24.2192 
 322   0.0000       0.899337        24.4722 
 323   0.0000       0.903624        24.5889 
 324   0.0000       0.904903        24.6237 
 325   0.0000       0.921739        25.0818 
 326   0.0000       0.927946        25.2507 
 327   0.0000       0.942852        25.6563 
 328   0.0000       0.944072        25.6895 
 329   0.0000       0.981940        26.7199 
 330   0.0000       1.050055        28.5734 
 331   0.0000       1.076537        29.2941 
 332   0.0000       1.094580        29.7850 
 333   0.0000       1.149174        31.2706 
 334   0.0000       1.183585        32.2070 
 335   0.0000       1.192684        32.4546 
 336   0.0000       1.208275        32.8788 
 337   0.0000       1.209948        32.9244 
 338   0.0000       1.225704        33.3531 
 339   0.0000       1.239491        33.7283 
 340   0.0000       1.243384        33.8342 
 341   0.0000       1.254210        34.1288 
 342   0.0000       1.263782        34.3893 
 343   0.0000       1.271430        34.5974 
 344   0.0000       1.272023        34.6135 
 345   0.0000       1.282026        34.8857 
 346   0.0000       1.289915        35.1004 
 347   0.0000       1.299487        35.3608 
 348   0.0000       1.307480        35.5784 
 349   0.0000       1.315820        35.8053 
 350   0.0000       1.323300        36.0088 
 351   0.0000       1.339494        36.4495 
 352   0.0000       1.342579        36.5334 
 353   0.0000       1.344774        36.5932 
 354   0.0000       1.350835        36.7581 
 355   0.0000       1.369798        37.2741 
 356   0.0000       1.373183        37.3662 
 357   0.0000       1.377645        37.4876 
 358   0.0000       1.387097        37.7448 
 359   0.0000       1.395176        37.9647 
 360   0.0000       1.398863        38.0650 
 361   0.0000       1.402466        38.1630 
 362   0.0000       1.404828        38.2273 
 363   0.0000       1.407333        38.2955 
 364   0.0000       1.413296        38.4577 
 365   0.0000       1.416311        38.5398 
 366   0.0000       1.418167        38.5903 
 367   0.0000       1.419858        38.6363 
 368   0.0000       1.423648        38.7394 
 369   0.0000       1.426711        38.8228 
 370   0.0000       1.428731        38.8777 
 371   0.0000       1.430467        38.9250 
 372   0.0000       1.435577        39.0640 
 373   0.0000       1.440694        39.2033 
 374   0.0000       1.446634        39.3649 
 375   0.0000       1.448072        39.4040 
 376   0.0000       1.450917        39.4814 
 377   0.0000       1.454550        39.5803 
 378   0.0000       1.456994        39.6468 
 379   0.0000       1.458767        39.6951 
 380   0.0000       1.462573        39.7986 
 381   0.0000       1.467219        39.9250 
 382   0.0000       1.470630        40.0179 
 383   0.0000       1.471056        40.0295 
 384   0.0000       1.475713        40.1562 
 385   0.0000       1.477463        40.2038 
 386   0.0000       1.478985        40.2452 
 387   0.0000       1.482358        40.3370 
 388   0.0000       1.484270        40.3890 
 389   0.0000       1.487392        40.4740 
 390   0.0000       1.488821        40.5129 
 391   0.0000       1.489785        40.5391 
 392   0.0000       1.490865        40.5685 
 393   0.0000       1.492724        40.6191 
 394   0.0000       1.494449        40.6660 
 395   0.0000       1.495561        40.6963 
 396   0.0000       1.497230        40.7417 
 397   0.0000       1.499305        40.7982 
 398   0.0000       1.500058        40.8186 
 399   0.0000       1.500934        40.8425 
 400   0.0000       1.502201        40.8770 
 401   0.0000       1.503121        40.9020 
 402   0.0000       1.503887        40.9228 
 403   0.0000       1.507763        41.0283 
 404   0.0000       1.508788        41.0562 
 405   0.0000       1.509596        41.0782 
 406   0.0000       1.510403        41.1002 
 407   0.0000       1.511606        41.1329 
 408   0.0000       1.513606        41.1873 
 409   0.0000       1.514921        41.2231 
 410   0.0000       1.516218        41.2584 
 411   0.0000       1.518086        41.3092 
 412   0.0000       1.518360        41.3167 
 413   0.0000       1.519792        41.3556 
 414   0.0000       1.521301        41.3967 
 415   0.0000       1.521539        41.4032 
 416   0.0000       1.522974        41.4422 
 417   0.0000       1.526396        41.5353 
 418   0.0000       1.527244        41.5584 
 419   0.0000       1.528843        41.6019 
 420   0.0000       1.530882        41.6574 
 421   0.0000       1.531586        41.6766 
 422   0.0000       1.535603        41.7859 
 423   0.0000       1.536974        41.8232 
 424   0.0000       1.539171        41.8830 
 425   0.0000       1.539694        41.8972 
 426   0.0000       1.541569        41.9482 
 427   0.0000       1.542233        41.9663 
 428   0.0000       1.547202        42.1015 
 429   0.0000       1.548924        42.1484 
 430   0.0000       1.551769        42.2258 
 431   0.0000       1.553226        42.2654 
 432   0.0000       1.555394        42.3244 
 433   0.0000       1.558291        42.4032 
 434   0.0000       1.561256        42.4839 
 435   0.0000       1.563199        42.5368 
 436   0.0000       1.563835        42.5541 
 437   0.0000       1.569812        42.7168 
 438   0.0000       1.570599        42.7382 
 439   0.0000       1.573473        42.8164 
 440   0.0000       1.574494        42.8442 
 441   0.0000       1.576017        42.8856 
 442   0.0000       1.577003        42.9124 
 443   0.0000       1.578780        42.9608 
 444   0.0000       1.580002        42.9940 
 445   0.0000       1.583627        43.0927 
 446   0.0000       1.586232        43.1636 
 447   0.0000       1.587595        43.2006 
 448   0.0000       1.589929        43.2642 
 449   0.0000       1.593916        43.3727 
 450   0.0000       1.594907        43.3996 
 451   0.0000       1.600599        43.5545 
 452   0.0000       1.603486        43.6331 
 453   0.0000       1.610873        43.8341 
 454   0.0000       1.611509        43.8514 
 455   0.0000       1.615359        43.9562 
 456   0.0000       1.617139        44.0046 
 457   0.0000       1.622183        44.1418 
 458   0.0000       1.624271        44.1987 
 459   0.0000       1.626461        44.2583 
 460   0.0000       1.628144        44.3041 
 461   0.0000       1.634010        44.4637 
 462   0.0000       1.637734        44.5650 
 463   0.0000       1.640165        44.6312 
 464   0.0000       1.642520        44.6952 
 465   0.0000       1.647539        44.8318 
 466   0.0000       1.655087        45.0372 
 467   0.0000       1.659135        45.1474 
 468   0.0000       1.668517        45.4027 
 469   0.0000       1.673549        45.5396 
 470   0.0000       1.680924        45.7403 
 471   0.0000       1.684415        45.8353 
 472   0.0000       1.693489        46.0822 
 473   0.0000       1.699953        46.2581 
 474   0.0000       1.706129        46.4261 
 475   0.0000       1.716843        46.7177 
 476   0.0000       1.738611        47.3100 
 477   0.0000       1.748489        47.5788 
 478   0.0000       1.749473        47.6056 
 479   0.0000       1.756547        47.7981 
 480   0.0000       1.769058        48.1385 
 481   0.0000       1.771970        48.2178 
 482   0.0000       1.781629        48.4806 
 483   0.0000       1.786753        48.6200 
 484   0.0000       1.794139        48.8210 
 485   0.0000       1.797563        48.9142 
 486   0.0000       1.804411        49.1005 
 487   0.0000       1.805330        49.1255 
 488   0.0000       1.812237        49.3135 
 489   0.0000       1.818442        49.4823 
 490   0.0000       1.825351        49.6703 
 491   0.0000       1.830674        49.8152 
 492   0.0000       1.836835        49.9828 
 493   0.0000       1.838652        50.0323 
 494   0.0000       1.845668        50.2232 
 495   0.0000       1.852847        50.4185 
 496   0.0000       1.875149        51.0254 
 497   0.0000       1.894307        51.5467 
 498   0.0000       1.905136        51.8414 
 499   0.0000       1.914126        52.0860 
 500   0.0000       1.928000        52.4636 
 501   0.0000       1.995238        54.2932 
 502   0.0000       2.048301        55.7371 
 503   0.0000       2.057045        55.9750 
 504   0.0000       2.156952        58.6936 
 505   0.0000       2.188189        59.5436 
 506   0.0000       2.257133        61.4197 
 507   0.0000       2.271419        61.8085 
 508   0.0000       2.285838        62.2008 
 509   0.0000       2.368946        64.4623 
 510   0.0000       2.410639        65.5968 
 511   0.0000       2.432272        66.1855 
 512   0.0000       2.449024        66.6413 
 513   0.0000       2.462973        67.0209 
 514   0.0000       2.471985        67.2661 
 515   0.0000       2.484307        67.6014 
 516   0.0000       2.501371        68.0658 
 517   0.0000       2.514389        68.4200 
 518   0.0000       2.518762        68.5390 
 519   0.0000       2.537504        69.0490 
 520   0.0000       2.551356        69.4259 
 521   0.0000       2.557646        69.5971 
 522   0.0000       3.353706        91.2590 
 523   0.0000       3.566650        97.0535 
 524   0.0000       3.632118        98.8350 
 525   0.0000       3.698904       100.6523 
 526   0.0000       3.730891       101.5227 
 527   0.0000       3.746481       101.9469 
 528   0.0000       3.883353       105.6714 
 529   0.0000       3.886739       105.7636 
 530   0.0000       3.890594       105.8684 
 531   0.0000       3.894533       105.9756 
 532   0.0000       3.895944       106.0140 
 533   0.0000       3.901381       106.1620 
 534   0.0000       3.902562       106.1941 
 535   0.0000      23.721009       645.4815 
 536   0.0000      23.782132       647.1447 
 537   0.0000      23.913111       650.7088 
 538   0.0000      24.211790       658.8363 
 539   0.0000      24.355120       662.7365 
 540   0.0000      24.603520       669.4958 
 541   0.0000      24.637023       670.4075 
 542   0.0000      24.711625       672.4375 
 543   0.0000      24.955061       679.0617 
 544   0.0000      25.201580       685.7699 
 545   0.0000      25.316651       688.9011 
 546   0.0000      25.366396       690.2547 
 547   0.0000      25.479663       693.3369 
 548   0.0000      25.570385       695.8056 
 549   0.0000      25.646301       697.8713 
 550   0.0000      25.737250       700.3462 
 551   0.0000      25.860133       703.6900 
 552   0.0000      25.940433       705.8751 
 553   0.0000      26.028234       708.2643 
 554   0.0000      26.207353       713.1383 
 555   0.0000      26.225339       713.6277 
 556   0.0000      26.319539       716.1911 
 557   0.0000      26.431764       719.2449 
 558   0.0000      26.537887       722.1326 
 559   0.0000      26.595648       723.7044 
 560   0.0000      26.665863       725.6150 
 561   0.0000      26.709038       726.7899 
 562   0.0000      26.860424       730.9093 
 563   0.0000      26.908256       732.2109 
 564   0.0000      27.113728       737.8021 
 565   0.0000      27.249563       741.4983 
 566   0.0000      27.262181       741.8417 
 567   0.0000      27.581044       750.5184 
 568   0.0000      27.694330       753.6010 
 569   0.0000      27.863225       758.1969 
 570   0.0000      27.872107       758.4386 
 571   0.0000      27.917705       759.6794 
 572   0.0000      28.026894       762.6506 
 573   0.0000      29.196152       794.4677 
 574   0.0000      29.745179       809.4075 
 575   0.0000      30.784891       837.6995 
 576   0.0000      31.278472       851.1305 
 577   0.0000      43.916612      1195.0318 
 578   0.0000      44.014391      1197.6925 
 579   0.0000      44.051676      1198.7070 
 580   0.0000      44.060394      1198.9443 
 581   0.0000      44.083420      1199.5708 
 582   0.0000      44.122958      1200.6467 
 583   0.0000      44.141641      1201.1551 
 584   0.0000      44.151089      1201.4122 
 585   0.0000      44.161121      1201.6852 
 586   0.0000      44.171601      1201.9704 
 587   0.0000      44.195671      1202.6253 
 588   0.0000      44.199371      1202.7260 
 589   0.0000      44.223918      1203.3940 
 590   0.0000      44.246487      1204.0081 
 591   0.0000     205.092565      5580.8524 
 592   0.0000     205.136641      5582.0518 
 593   0.0000     205.149290      5582.3960 
 594   0.0000     205.152507      5582.4835 
 595   0.0000     205.166640      5582.8681 
 596   0.0000     205.183971      5583.3397 
 597   0.0000     205.190196      5583.5091 
 598   0.0000     205.194843      5583.6355 
 599   0.0000     205.199194      5583.7539 
 600   0.0000     205.200957      5583.8019 
 601   0.0000     205.209643      5584.0383 
 602   0.0000     205.214669      5584.1751 
 603   0.0000     205.221780      5584.3685 
 604   0.0000     205.232695      5584.6655 

                 SPIN DOWN ORBITALS
  NO   OCC          E(Eh)            E(eV) 
   0   1.0000    -254.775938     -6932.8057 
   1   1.0000     -29.554548      -804.2201 
   2   1.0000     -25.507079      -694.0829 
   3   1.0000     -25.503740      -693.9921 
   4   1.0000     -25.502937      -693.9702 
   5   1.0000      -4.033696      -109.7624 
   6   1.0000      -4.032640      -109.7337 
   7   1.0000      -4.031985      -109.7159 
   8   1.0000      -4.031686      -109.7078 
   9   1.0000      -4.030512      -109.6758 
  10   1.0000      -4.029865      -109.6582 
  11   1.0000      -4.027885      -109.6043 
  12   1.0000      -4.027150      -109.5843 
  13   1.0000      -4.026643      -109.5705 
  14   1.0000      -4.024612      -109.5152 
  15   1.0000      -4.024277      -109.5061 
  16   1.0000      -4.023871      -109.4951 
  17   1.0000      -4.019985      -109.3893 
  18   1.0000      -4.017745      -109.3284 
  19   1.0000      -3.256669       -88.6185 
  20   1.0000      -2.250361       -61.2354 
  21   1.0000      -2.248317       -61.1798 
  22   1.0000      -2.247777       -61.1651 
  23   1.0000      -2.247516       -61.1580 
  24   1.0000      -2.246588       -61.1328 
  25   1.0000      -2.246410       -61.1279 
  26   1.0000      -2.246205       -61.1223 
  27   1.0000      -2.245471       -61.1024 
  28   1.0000      -2.245309       -61.0980 
  29   1.0000      -2.244867       -61.0859 
  30   1.0000      -2.244547       -61.0772 
  31   1.0000      -2.243939       -61.0607 
  32   1.0000      -2.243800       -61.0569 
  33   1.0000      -2.243616       -61.0519 
  34   1.0000      -2.243148       -61.0392 
  35   1.0000      -2.242713       -61.0273 
  36   1.0000      -2.242206       -61.0135 
  37   1.0000      -2.241839       -61.0035 
  38   1.0000      -2.240676       -60.9719 
  39   1.0000      -2.240642       -60.9710 
  40   1.0000      -2.240402       -60.9644 
  41   1.0000      -2.240035       -60.9544 
  42   1.0000      -2.239844       -60.9492 
  43   1.0000      -2.239493       -60.9397 
  44   1.0000      -2.239313       -60.9348 
  45   1.0000      -2.239069       -60.9282 
  46   1.0000      -2.237844       -60.8948 
  47   1.0000      -2.237584       -60.8878 
  48   1.0000      -2.237489       -60.8852 
  49   1.0000      -2.237023       -60.8725 
  50   1.0000      -2.236905       -60.8693 
  51   1.0000      -2.236752       -60.8651 
  52   1.0000      -2.236310       -60.8531 
  53   1.0000      -2.235922       -60.8425 
  54   1.0000      -2.233993       -60.7900 
  55   1.0000      -2.233723       -60.7827 
  56   1.0000      -2.233122       -60.7663 
  57   1.0000      -2.232940       -60.7614 
  58   1.0000      -2.232485       -60.7490 
  59   1.0000      -2.231332       -60.7176 
  60   1.0000      -2.229967       -60.6805 
  61   1.0000      -2.228813       -60.6491 
  62   1.0000      -2.075705       -56.4828 
  63   1.0000      -2.071766       -56.3756 
  64   1.0000      -2.071277       -56.3623 
  65   1.0000      -0.434269       -11.8171 
  66   1.0000      -0.390968       -10.6388 
  67   1.0000      -0.385769       -10.4973 
  68   1.0000      -0.384308       -10.4576 
  69   1.0000      -0.374228       -10.1833 
  70   1.0000      -0.370801       -10.0900 
  71   1.0000      -0.367747       -10.0069 
  72   1.0000      -0.366028        -9.9601 
  73   1.0000      -0.363249        -9.8845 
  74   1.0000      -0.357731        -9.7344 
  75   1.0000      -0.355490        -9.6734 
  76   1.0000      -0.353676        -9.6240 
  77   1.0000      -0.351514        -9.5652 
  78   1.0000      -0.351224        -9.5573 
  79   1.0000      -0.348725        -9.4893 
  80   1.0000      -0.346963        -9.4413 
  81   1.0000      -0.346095        -9.4177 
  82   1.0000      -0.344939        -9.3863 
  83   1.0000      -0.341141        -9.2829 
  84   1.0000      -0.340496        -9.2654 
  85   1.0000      -0.339899        -9.2491 
  86   1.0000      -0.335503        -9.1295 
  87   1.0000      -0.332836        -9.0569 
  88   1.0000      -0.332009        -9.0344 
  89   1.0000      -0.329474        -8.9654 
  90   1.0000      -0.327168        -8.9027 
  91   1.0000      -0.323199        -8.7947 
  92   1.0000      -0.321573        -8.7505 
  93   1.0000      -0.317053        -8.6274 
  94   1.0000      -0.316019        -8.5993 
  95   1.0000      -0.314425        -8.5560 
  96   1.0000      -0.310887        -8.4597 
  97   1.0000      -0.308025        -8.3818 
  98   1.0000      -0.306397        -8.3375 
  99   1.0000      -0.300639        -8.1808 
 100   1.0000      -0.298462        -8.1216 
 101   1.0000      -0.296876        -8.0784 
 102   1.0000      -0.293033        -7.9738 
 103   1.0000      -0.290308        -7.8997 
 104   1.0000      -0.287908        -7.8344 
 105   1.0000      -0.286095        -7.7850 
 106   1.0000      -0.284204        -7.7336 
 107   1.0000      -0.281948        -7.6722 
 108   1.0000      -0.281437        -7.6583 
 109   1.0000      -0.279312        -7.6005 
 110   1.0000      -0.277730        -7.5574 
 111   1.0000      -0.275244        -7.4898 
 112   1.0000      -0.274051        -7.4573 
 113   1.0000      -0.272975        -7.4280 
 114   1.0000      -0.271964        -7.4005 
 115   1.0000      -0.271154        -7.3785 
 116   1.0000      -0.267969        -7.2918 
 117   1.0000      -0.266845        -7.2612 
 118   1.0000      -0.265994        -7.2381 
 119   1.0000      -0.264317        -7.1924 
 120   1.0000      -0.261052        -7.1036 
 121   1.0000      -0.260563        -7.0903 
 122   1.0000      -0.259047        -7.0490 
 123   1.0000      -0.257222        -6.9994 
 124   1.0000      -0.257040        -6.9944 
 125   1.0000      -0.255756        -6.9595 
 126   1.0000      -0.254874        -6.9355 
 127   1.0000      -0.253759        -6.9051 
 128   1.0000      -0.252099        -6.8600 
 129   1.0000      -0.250095        -6.8054 
 130   1.0000      -0.249214        -6.7814 
 131   1.0000      -0.249047        -6.7769 
 132   1.0000      -0.247356        -6.7309 
 133   1.0000      -0.247106        -6.7241 
 134   1.0000      -0.245769        -6.6877 
 135   1.0000      -0.244175        -6.6443 
 136   1.0000      -0.243707        -6.6316 
 137   1.0000      -0.237982        -6.4758 
 138   1.0000      -0.231001        -6.2859 
 139   1.0000      -0.225680        -6.1411 
 140   1.0000      -0.211507        -5.7554 
 141   1.0000      -0.210226        -5.7205 
 142   1.0000      -0.206013        -5.6059 
 143   1.0000      -0.198393        -5.3985 
 144   0.0000      -0.173361        -4.7174 
 145   0.0000      -0.169255        -4.6057 
 146   0.0000      -0.168233        -4.5779 
 147   0.0000      -0.162122        -4.4116 
 148   0.0000      -0.157944        -4.2979 
 149   0.0000      -0.141032        -3.8377 
 150   0.0000      -0.134655        -3.6642 
 151   0.0000      -0.121338        -3.3018 
 152   0.0000      -0.113888        -3.0990 
 153   0.0000      -0.111196        -3.0258 
 154   0.0000      -0.108239        -2.9453 
 155   0.0000      -0.075412        -2.0521 
 156   0.0000      -0.069462        -1.8902 
 157   0.0000      -0.067533        -1.8377 
 158   0.0000      -0.061819        -1.6822 
 159   0.0000      -0.059541        -1.6202 
 160   0.0000      -0.037839        -1.0296 
 161   0.0000      -0.026974        -0.7340 
 162   0.0000      -0.018359        -0.4996 
 163   0.0000      -0.016035        -0.4363 
 164   0.0000      -0.004068        -0.1107 
 165   0.0000       0.004721         0.1285 
 166   0.0000       0.005406         0.1471 
 167   0.0000       0.017310         0.4710 
 168   0.0000       0.019361         0.5268 
 169   0.0000       0.030266         0.8236 
 170   0.0000       0.037635         1.0241 
 171   0.0000       0.041216         1.1215 
 172   0.0000       0.042423         1.1544 
 173   0.0000       0.045190         1.2297 
 174   0.0000       0.047945         1.3047 
 175   0.0000       0.052274         1.4225 
 176   0.0000       0.066605         1.8124 
 177   0.0000       0.067256         1.8301 
 178   0.0000       0.069963         1.9038 
 179   0.0000       0.073667         2.0046 
 180   0.0000       0.074139         2.0174 
 181   0.0000       0.077655         2.1131 
 182   0.0000       0.079977         2.1763 
 183   0.0000       0.085235         2.3194 
 184   0.0000       0.090366         2.4590 
 185   0.0000       0.093955         2.5566 
 186   0.0000       0.096915         2.6372 
 187   0.0000       0.101383         2.7588 
 188   0.0000       0.118329         3.2199 
 189   0.0000       0.123629         3.3641 
 190   0.0000       0.129593         3.5264 
 191   0.0000       0.131020         3.5652 
 192   0.0000       0.138456         3.7676 
 193   0.0000       0.144671         3.9367 
 194   0.0000       0.150204         4.0873 
 195   0.0000       0.153405         4.1744 
 196   0.0000       0.157780         4.2934 
 197   0.0000       0.161170         4.3857 
 198   0.0000       0.161534         4.3956 
 199   0.0000       0.166003         4.5172 
 200   0.0000       0.168687         4.5902 
 201   0.0000       0.173608         4.7241 
 202   0.0000       0.174222         4.7408 
 203   0.0000       0.178037         4.8446 
 204   0.0000       0.178758         4.8643 
 205   0.0000       0.180458         4.9105 
 206   0.0000       0.201277         5.4770 
 207   0.0000       0.207068         5.6346 
 208   0.0000       0.210483         5.7275 
 209   0.0000       0.213778         5.8172 
 210   0.0000       0.221023         6.0143 
 211   0.0000       0.223216         6.0740 
 212   0.0000       0.225837         6.1453 
 213   0.0000       0.227970         6.2034 
 214   0.0000       0.231756         6.3064 
 215   0.0000       0.242573         6.6007 
 216   0.0000       0.242759         6.6058 
 217   0.0000       0.246865         6.7175 
 218   0.0000       0.251177         6.8349 
 219   0.0000       0.255370         6.9490 
 220   0.0000       0.262390         7.1400 
 221   0.0000       0.269078         7.3220 
 222   0.0000       0.271688         7.3930 
 223   0.0000       0.273749         7.4491 
 224   0.0000       0.279623         7.6089 
 225   0.0000       0.283796         7.7225 
 226   0.0000       0.287581         7.8255 
 227   0.0000       0.295704         8.0465 
 228   0.0000       0.299623         8.1532 
 229   0.0000       0.300340         8.1727 
 230   0.0000       0.305081         8.3017 
 231   0.0000       0.308487         8.3944 
 232   0.0000       0.313840         8.5400 
 233   0.0000       0.321279         8.7424 
 234   0.0000       0.325130         8.8472 
 235   0.0000       0.332120         9.0375 
 236   0.0000       0.333332         9.0704 
 237   0.0000       0.338405         9.2085 
 238   0.0000       0.338962         9.2236 
 239   0.0000       0.343852         9.3567 
[...]
      f+2     :     0.000638
      f-2     :     0.000710
      f+3     :     0.000956
      f-3     :     0.000595
  5 Aus       :     2.511971  s :     2.511971
      pz      :     2.219100  p :     6.534836
      px      :     2.153940
      py      :     2.161796
      dz2     :     1.970313  d :     9.882370
      dxz     :     1.988829
      dyz     :     1.976422
      dx2y2   :     1.998399
      dxy     :     1.948408
      f0      :     0.000996  f :     0.006522
      f+1     :     0.000976
      f-1     :     0.000735
      f+2     :     0.001223
      f-2     :     0.000756
      f+3     :     0.000996
      f-3     :     0.000840
  6 Aus       :     2.595474  s :     2.595474
      pz      :     2.222679  p :     6.479289
      px      :     2.092957
      py      :     2.163653
      dz2     :     1.957415  d :     9.862808
      dxz     :     1.989801
      dyz     :     1.982740
      dx2y2   :     1.942056
      dxy     :     1.990797
      f0      :     0.001086  f :     0.005372
      f+1     :     0.001040
      f-1     :     0.000584
      f+2     :     0.000646
      f-2     :     0.000639
      f+3     :     0.000758
      f-3     :     0.000618
  7 Aus       :     2.532221  s :     2.532221
      pz      :     2.141852  p :     6.568705
      px      :     2.180275
      py      :     2.246578
      dz2     :     1.984663  d :     9.884254
      dxz     :     1.952667
      dyz     :     1.982014
      dx2y2   :     1.981919
      dxy     :     1.982991
      f0      :     0.000735  f :     0.006357
      f+1     :     0.000762
      f-1     :     0.000958
      f+2     :     0.000557
      f-2     :     0.000848
      f+3     :     0.001623
      f-3     :     0.000875
  8 Aus       :     2.596158  s :     2.596158
      pz      :     2.174757  p :     6.455607
      px      :     2.154446
      py      :     2.126405
      dz2     :     1.971400  d :     9.858084
      dxz     :     1.966824
      dyz     :     1.967855
      dx2y2   :     1.976762
      dxy     :     1.975244
      f0      :     0.000978  f :     0.005848
      f+1     :     0.001025
      f-1     :     0.000786
      f+2     :     0.000656
      f-2     :     0.000846
      f+3     :     0.000895
      f-3     :     0.000663
  9 Aus       :     2.568062  s :     2.568062
      pz      :     2.196236  p :     6.523548
      px      :     2.114740
      py      :     2.212572
      dz2     :     1.978229  d :     9.865077
      dxz     :     1.962016
      dyz     :     1.983372
      dx2y2   :     1.954135
      dxy     :     1.987324
      f0      :     0.000816  f :     0.006089
      f+1     :     0.000794
      f-1     :     0.001151
      f+2     :     0.000680
      f-2     :     0.000898
      f+3     :     0.000929
      f-3     :     0.000822
 10 Aus       :     2.566440  s :     2.566440
      pz      :     2.131718  p :     6.497423
      px      :     2.224820
      py      :     2.140885
      dz2     :     1.995976  d :     9.918762
      dxz     :     1.993328
      dyz     :     1.978917
      dx2y2   :     1.981735
      dxy     :     1.968805
      f0      :     0.000877  f :     0.005484
      f+1     :     0.000841
      f-1     :     0.000625
      f+2     :     0.000825
      f-2     :     0.000602
      f+3     :     0.001066
      f-3     :     0.000649
 11 Aus       :     2.661190  s :     2.661190
      pz      :     2.152863  p :     6.374174
      px      :     2.111502
      py      :     2.109809
      dz2     :     1.971587  d :     9.878010
      dxz     :     1.982067
      dyz     :     1.974862
      dx2y2   :     1.974773
      dxy     :     1.974721
      f0      :     0.000704  f :     0.005087
      f+1     :     0.000704
      f-1     :     0.000782
      f+2     :     0.000821
      f-2     :     0.000629
      f+3     :     0.000876
      f-3     :     0.000572
 12 Aus       :     2.527407  s :     2.527407
      pz      :     2.136974  p :     6.552472
      px      :     2.193405
      py      :     2.222094
      dz2     :     1.976029  d :     9.865668
      dxz     :     1.960026
      dyz     :     1.980672
      dx2y2   :     1.969842
      dxy     :     1.979100
      f0      :     0.000937  f :     0.006513
      f+1     :     0.001035
      f-1     :     0.000872
      f+2     :     0.000921
      f-2     :     0.000795
      f+3     :     0.001192
      f-3     :     0.000761
 13 Aus       :     2.517979  s :     2.517979
      pz      :     2.202032  p :     6.515083
      px      :     2.155311
      py      :     2.157739
      dz2     :     1.970434  d :     9.880544
      dxz     :     1.987597
      dyz     :     1.980886
      dx2y2   :     1.994758
      dxy     :     1.946869
      f0      :     0.000673  f :     0.006387
      f+1     :     0.000901
      f-1     :     0.000978
      f+2     :     0.000949
      f-2     :     0.000840
      f+3     :     0.001129
      f-3     :     0.000916
 14 Fes       :     6.260276  s :     6.260276
      pz      :     4.173977  p :    12.539743
      px      :     4.190130
      py      :     4.175635
      dz2     :     1.461414  d :     7.844942
      dxz     :     1.602528
      dyz     :     1.779524
      dx2y2   :     1.442710
      dxy     :     1.558766
      f0      :     0.000070  f :     0.000511
      f+1     :     0.000095
      f-1     :     0.000065
      f+2     :     0.000067
      f-2     :     0.000069
      f+3     :     0.000082
      f-3     :     0.000063

SPIN
  0 Aus       :    -0.012155  s :    -0.012155
      pz      :    -0.024847  p :    -0.039252
      px      :    -0.011875
      py      :    -0.002530
      dz2     :    -0.006110  d :    -0.012346
      dxz     :    -0.007681
      dyz     :    -0.003186
      dx2y2   :     0.003407
      dxy     :     0.001225
      f0      :    -0.000015  f :    -0.000001
      f+1     :     0.000003
      f-1     :     0.000024
      f+2     :    -0.000036
      f-2     :    -0.000023
      f+3     :     0.000028
      f-3     :     0.000018
  1 Aus       :     0.003317  s :     0.003317
      pz      :    -0.000835  p :    -0.022245
      px      :    -0.028093
      py      :     0.006683
      dz2     :    -0.005346  d :     0.006470
      dxz     :    -0.002978
      dyz     :     0.015111
      dx2y2   :    -0.001561
      dxy     :     0.001244
      f0      :     0.000014  f :     0.000052
      f+1     :    -0.000025
      f-1     :     0.000021
      f+2     :     0.000046
      f-2     :    -0.000006
      f+3     :    -0.000003
      f-3     :     0.000005
  2 Aus       :    -0.011027  s :    -0.011027
      pz      :     0.004435  p :    -0.021051
      px      :     0.005293
      py      :    -0.030779
      dz2     :     0.014131  d :     0.000370
      dxz     :     0.007468
      dyz     :    -0.008568
      dx2y2   :    -0.008084
      dxy     :    -0.004577
      f0      :     0.000109  f :     0.000095
      f+1     :     0.000048
      f-1     :     0.000005
      f+2     :    -0.000029
      f-2     :    -0.000023
      f+3     :    -0.000012
      f-3     :    -0.000003
  3 Aus       :    -0.072664  s :    -0.072664
      pz      :    -0.003940  p :    -0.025865
      px      :    -0.007987
      py      :    -0.013938
      dz2     :    -0.007704  d :    -0.023683
      dxz     :    -0.004096
      dyz     :    -0.000213
      dx2y2   :    -0.010853
      dxy     :    -0.000817
      f0      :    -0.000012  f :    -0.000054
      f+1     :    -0.000017
      f-1     :     0.000007
      f+2     :     0.000002
      f-2     :     0.000017
      f+3     :    -0.000039
      f-3     :    -0.000011
  4 Aus       :     0.002143  s :     0.002143
      pz      :     0.002788  p :    -0.028268
      px      :    -0.011292
      py      :    -0.019764
      dz2     :    -0.003079  d :    -0.035383
      dxz     :    -0.001549
      dyz     :    -0.010345
      dx2y2   :    -0.003777
      dxy     :    -0.016632
      f0      :    -0.000011  f :    -0.000115
      f+1     :    -0.000003
      f-1     :    -0.000015
      f+2     :    -0.000010
      f-2     :    -0.000025
      f+3     :    -0.000025
      f-3     :    -0.000026
  5 Aus       :    -0.042356  s :    -0.042356
      pz      :    -0.011869  p :    -0.032319
      px      :    -0.008913
      py      :    -0.011536
      dz2     :     0.003332  d :     0.010272
      dxz     :    -0.000905
      dyz     :    -0.001813
      dx2y2   :    -0.002803
      dxy     :     0.012461
      f0      :     0.000013  f :     0.000103
      f+1     :     0.000017
      f-1     :     0.000014
      f+2     :    -0.000022
      f-2     :     0.000023
      f+3     :     0.000049
      f-3     :     0.000009
  6 Aus       :    -0.002153  s :    -0.002153
      pz      :    -0.007243  p :    -0.022978
      px      :     0.003299
      py      :    -0.019033
      dz2     :     0.001647  d :     0.006877
      dxz     :    -0.000115
      dyz     :    -0.008048
      dx2y2   :     0.013951
      dxy     :    -0.000558
      f0      :    -0.000010  f :     0.000109
      f+1     :     0.000037
      f-1     :    -0.000007
      f+2     :    -0.000015
      f-2     :    -0.000022
      f+3     :     0.000073
      f-3     :     0.000053
  7 Aus       :    -0.039538  s :    -0.039538
      pz      :     0.004366  p :    -0.015941
      px      :    -0.017802
      py      :    -0.002505
      dz2     :     0.004204  d :    -0.002726
      dxz     :     0.013123
      dyz     :    -0.011422
      dx2y2   :    -0.002931
      dxy     :    -0.005699
      f0      :     0.000026  f :     0.000082
      f+1     :     0.000075
      f-1     :    -0.000040
      f+2     :     0.000062
      f-2     :    -0.000051
      f+3     :     0.000019
      f-3     :    -0.000008
  8 Aus       :     0.013667  s :     0.013667
      pz      :    -0.028558  p :    -0.061511
      px      :    -0.030629
      py      :    -0.002324
      dz2     :    -0.024389  d :    -0.033116
      dxz     :    -0.001128
      dyz     :     0.005016
      dx2y2   :    -0.002000
      dxy     :    -0.010615
      f0      :    -0.000001  f :    -0.000074
      f+1     :    -0.000016
      f-1     :    -0.000002
      f+2     :     0.000019
      f-2     :    -0.000013
      f+3     :    -0.000020
      f-3     :    -0.000039
  9 Aus       :    -0.011654  s :    -0.011654
      pz      :    -0.009887  p :    -0.023312
      px      :     0.005219
      py      :    -0.018644
      dz2     :     0.001660  d :    -0.001190
      dxz     :     0.006857
      dyz     :    -0.011963
      dx2y2   :     0.004903
      dxy     :    -0.002647
      f0      :     0.000027  f :     0.000051
      f+1     :     0.000013
      f-1     :    -0.000035
      f+2     :     0.000032
      f-2     :    -0.000029
      f+3     :     0.000034
      f-3     :     0.000008
 10 Aus       :    -0.073021  s :    -0.073021
      pz      :     0.000020  p :    -0.025178
      px      :     0.001643
      py      :    -0.026841
      dz2     :    -0.003792  d :    -0.031520
      dxz     :    -0.005324
      dyz     :    -0.008229
      dx2y2   :    -0.008259
      dxy     :    -0.005917
      f0      :    -0.000011  f :    -0.000066
      f+1     :    -0.000012
      f-1     :    -0.000009
      f+2     :    -0.000010
      f-2     :    -0.000008
      f+3     :    -0.000011
      f-3     :    -0.000005
 11 Aus       :     0.004864  s :     0.004864
      pz      :    -0.009341  p :    -0.046102
      px      :    -0.007078
      py      :    -0.029683
      dz2     :    -0.015392  d :    -0.049550
      dxz     :    -0.002860
      dyz     :    -0.001374
      dx2y2   :    -0.018571
      dxy     :    -0.011352
      f0      :    -0.000019  f :    -0.000129
      f+1     :    -0.000027
      f-1     :    -0.000015
      f+2     :    -0.000004
      f-2     :    -0.000012
      f+3     :    -0.000038
      f-3     :    -0.000014
 12 Aus       :    -0.029370  s :    -0.029370
      pz      :     0.004670  p :    -0.014565
      px      :     0.006764
      py      :    -0.025999
      dz2     :     0.005100  d :    -0.004825
      dxz     :     0.008529
      dyz     :    -0.002554
      dx2y2   :    -0.007820
      dxy     :    -0.008081
      f0      :     0.000004  f :     0.000071
      f+1     :     0.000064
      f-1     :     0.000006
      f+2     :     0.000014
      f-2     :     0.000000
      f+3     :    -0.000005
      f-3     :    -0.000012
 13 Aus       :    -0.059321  s :    -0.059321
      pz      :    -0.014937  p :    -0.042835
      px      :    -0.012974
      py      :    -0.014924
      dz2     :     0.001347  d :     0.002796
      dxz     :    -0.001230
      dyz     :    -0.005350
      dx2y2   :    -0.003492
      dxy     :     0.011521
      f0      :    -0.000004  f :     0.000088
      f+1     :     0.000008
      f-1     :     0.000017
      f+2     :    -0.000022
      f-2     :     0.000018
      f+3     :     0.000036
      f-3     :     0.000036
 14 Fes       :     0.008755  s :     0.008755
      pz      :     0.003873  p :     0.015250
      px      :     0.005937
      py      :     0.005440
      dz2     :     0.749734  d :     2.893993
      dxz     :     0.577972
      dyz     :     0.278273
      dx2y2   :     0.718397
      dxy     :     0.569617
      f0      :     0.000001  f :     0.000029
      f+1     :     0.000003
      f-1     :     0.000005
      f+2     :     0.000003
      f-2     :     0.000012
      f+3     :     0.000006
      f-3     :    -0.000000


                      *****************************
                      * MAYER POPULATION ANALYSIS *
                      *****************************

  NA   - Mulliken gross atomic population
  ZA   - Total nuclear charge
  QA   - Mulliken gross atomic charge
  VA   - Mayer's total valence
  BVA  - Mayer's bonded valence
  FA   - Mayer's free valence

  ATOM       NA         ZA         QA         VA         BVA        FA
  0 Au    18.9382    19.0000     0.0618     1.8757     1.8728     0.0030
  1 Au    18.8645    19.0000     0.1355     1.7641     1.7603     0.0038
  2 Au    18.8179    19.0000     0.1821     1.7349     1.7305     0.0044
  3 Au    18.8387    19.0000     0.1613     1.7543     1.7259     0.0284
  4 Au    18.6945    19.0000     0.3055     1.5822     1.5796     0.0025
  5 Au    18.7130    19.0000     0.2870     1.6607     1.6509     0.0098
  6 Au    18.8711    19.0000     0.1289     1.6907     1.6859     0.0047
  7 Au    19.0566    19.0000    -0.0566     2.0069     1.9922     0.0146
  8 Au    18.7180    19.0000     0.2820     1.6482     1.6413     0.0069
  9 Au    18.9208    19.0000     0.0792     1.7874     1.7825     0.0048
 10 Au    18.8429    19.0000     0.1571     1.7066     1.6738     0.0328
 11 Au    18.6462    19.0000     0.3538     1.5520     1.5491     0.0029
 12 Au    18.7685    19.0000     0.2315     1.7167     1.7079     0.0088
 13 Au    18.6880    19.0000     0.3120     1.6260     1.6095     0.0165
 14 Fe    28.6209    26.0000    -2.6209     7.6773     5.3113     2.3660

  Mayer bond orders larger than 0.100000
B(  0-Au,  1-Au) :   0.3425 B(  0-Au,  5-Au) :   0.1922 B(  0-Au,  9-Au) :   0.1947 
B(  0-Au, 10-Au) :   0.2034 B(  0-Au, 11-Au) :   0.2974 B(  0-Au, 14-Fe) :   0.3893 
B(  1-Au,  2-Au) :   0.1779 B(  1-Au,  4-Au) :   0.3051 B(  1-Au,  5-Au) :   0.1558 
B(  1-Au, 14-Fe) :   0.4766 B(  2-Au,  3-Au) :   0.1302 B(  2-Au,  4-Au) :   0.2993 
B(  2-Au,  9-Au) :   0.2409 B(  2-Au, 13-Au) :   0.2025 B(  2-Au, 14-Fe) :   0.4365 
B(  3-Au,  4-Au) :   0.2895 B(  3-Au,  6-Au) :   0.2401 B(  3-Au,  8-Au) :   0.2844 
B(  3-Au, 13-Au) :   0.1962 B(  3-Au, 14-Fe) :   0.3324 B(  4-Au,  6-Au) :   0.2319 
B(  4-Au, 14-Fe) :   0.1463 B(  5-Au,  6-Au) :   0.2010 B(  5-Au, 10-Au) :   0.2310 
B(  5-Au, 12-Au) :   0.1836 B(  5-Au, 14-Fe) :   0.4808 B(  6-Au, 12-Au) :   0.1855 
B(  6-Au, 14-Fe) :   0.5010 B(  7-Au,  8-Au) :   0.3112 B(  7-Au,  9-Au) :   0.1082 
B(  7-Au, 10-Au) :   0.2853 B(  7-Au, 11-Au) :   0.3241 B(  7-Au, 12-Au) :   0.1538 
B(  7-Au, 13-Au) :   0.1101 B(  7-Au, 14-Fe) :   0.4796 B(  8-Au, 12-Au) :   0.1990 
B(  8-Au, 13-Au) :   0.1880 B(  8-Au, 14-Fe) :   0.3797 B(  9-Au, 11-Au) :   0.2936 
B(  9-Au, 13-Au) :   0.2373 B(  9-Au, 14-Fe) :   0.4808 B( 10-Au, 11-Au) :   0.2379 
B( 10-Au, 12-Au) :   0.3062 B( 10-Au, 14-Fe) :   0.1824 B( 12-Au, 14-Fe) :   0.4612 
B( 13-Au, 14-Fe) :   0.4719 

-------
TIMINGS
-------

Total SCF time: 0 days 0 hours 3 min 51 sec 

Total time                  ....     231.966 sec
Sum of individual times     ....     224.882 sec  ( 96.9%)

Fock matrix formation       ....     185.606 sec  ( 80.0%)
  Split-RI-J                ....      75.710 sec  ( 40.8% of F)
  XC integration            ....     108.459 sec  ( 58.4% of F)
    Basis function eval.    ....       9.416 sec  (  8.7% of XC)
    Density eval.           ....      46.908 sec  ( 43.2% of XC)
    XC-Functional eval.     ....       0.586 sec  (  0.5% of XC)
    XC-Potential eval.      ....      41.595 sec  ( 38.4% of XC)
Diagonalization             ....      13.974 sec  (  6.0%)
Density matrix formation    ....       2.176 sec  (  0.9%)
Population analysis         ....       0.537 sec  (  0.2%)
Initial guess               ....       0.741 sec  (  0.3%)
Orbital Transformation      ....      13.895 sec  (  6.0%)
Orbital Orthonormalization  ....       0.665 sec  (  0.3%)
DIIS solution               ....       5.497 sec  (  2.4%)
Grid generation             ....       2.425 sec  (  1.0%)

Maximum memory used throughout the entire SCF-calculation: 103.9 MB

-------------------------   --------------------
FINAL SINGLE POINT ENERGY     -3165.059009997692
-------------------------   --------------------


                            ***************************************
                            *     ORCA property calculations      *
                            ***************************************

                                    ---------------------
                                    Active property flags
                                    ---------------------
   (+) Dipole Moment


------------------------------------------------------------------------------
                       ORCA ELECTRIC PROPERTIES CALCULATION
------------------------------------------------------------------------------

Dipole Moment Calculation                       ... on
Quadrupole Moment Calculation                   ... off
Polarizability Calculation                      ... off
GBWName                                         ... pbeSP_job2.gbw
Electron density                                ... pbeSP_job2.scfp
The origin for moment calculation is the CENTER OF MASS  = (14.808071, 14.884756 13.980471)

-------------
DIPOLE MOMENT
-------------
                                X             Y             Z
Electronic contribution:     -4.11664      -4.89857       4.18571
Nuclear contribution   :      4.08258       5.01367      -4.13844
                        -----------------------------------------
Total Dipole Moment    :     -0.03406       0.11510       0.04727
                        -----------------------------------------
Magnitude (a.u.)       :      0.12901
Magnitude (Debye)      :      0.32791



--------------------
Rotational spectrum 
--------------------
 
Rotational constants in cm-1:     0.001254     0.000970     0.000958 
Rotational constants in MHz :    37.594930    29.086374    28.731432 

 Dipole components along the rotational axes: 
x,y,z [a.u.] :    -0.009035     0.127600    -0.016718 
x,y,z [Debye]:    -0.022964     0.324334    -0.042493 

 

Timings for individual modules:

Sum of individual times         ...      258.664 sec (=   4.311 min)
GTO integral calculation        ...       26.197 sec (=   0.437 min)  10.1 %
SCF iterations                  ...      232.467 sec (=   3.874 min)  89.9 %



                             ****ORCA TERMINATED NORMALLY****
TOTAL RUN TIME: 0 days 0 hours 8 minutes 22 seconds 925 msec
