
                                 *****************
                                 * O   R   C   A *
                                 *****************

                                            #,                                       
                                            ###                                      
                                            ####                                     
                                            #####                                    
                                            ######                                   
                                           ########,                                 
                                     ,,################,,,,,                         
                               ,,#################################,,                 
                          ,,##########################################,,             
                       ,#########################################, ''#####,          
                    ,#############################################,,   '####,        
                  ,##################################################,,,,####,       
                ,###########''''           ''''###############################       
              ,#####''   ,,,,##########,,,,          '''####'''          '####       
            ,##' ,,,,###########################,,,                        '##       
           ' ,,###''''                  '''############,,,                           
         ,,##''                                '''############,,,,        ,,,,,,###''
      ,#''                                            '''#######################'''  
     '                                                          ''''####''''         
             ,#######,   #######,   ,#######,      ##                                
            ,#'     '#,  ##    ##  ,#'     '#,    #''#        ######   ,####,        
            ##       ##  ##   ,#'  ##            #'  '#       #        #'  '#        
            ##       ##  #######   ##           ,######,      #####,   #    #        
            '#,     ,#'  ##    ##  '#,     ,#' ,#      #,         ##   #,  ,#        
             '#######'   ##     ##  '#######'  #'      '#     #####' # '####'        



                  #######################################################
                  #                        -***-                        #
                  #          Department of theory and spectroscopy      #
                  #    Directorship and core code : Frank Neese         #
                  #        Max Planck Institute fuer Kohlenforschung    #
                  #                Kaiser Wilhelm Platz 1               #
                  #                 D-45470 Muelheim/Ruhr               #
                  #                      Germany                        #
                  #                                                     #
                  #                  All rights reserved                #
                  #                        -***-                        #
                  #######################################################


                         Program Version 5.0.3 -  RELEASE  -


 With contributions from (in alphabetic order):
   Daniel Aravena         : Magnetic Suceptibility
   Michael Atanasov       : Ab Initio Ligand Field Theory (pilot matlab implementation)
   Alexander A. Auer      : GIAO ZORA, VPT2 properties, NMR spectrum
   Ute Becker             : Parallelization
   Giovanni Bistoni       : ED, misc. LED, open-shell LED, HFLD
   Martin Brehm           : Molecular dynamics
   Dmytro Bykov           : SCF Hessian
   Vijay G. Chilkuri      : MRCI spin determinant printing, contributions to CSF-ICE
   Dipayan Datta          : RHF DLPNO-CCSD density
   Achintya Kumar Dutta   : EOM-CC, STEOM-CC
   Dmitry Ganyushin       : Spin-Orbit,Spin-Spin,Magnetic field MRCI
   Miquel Garcia          : C-PCM and meta-GGA Hessian, CC/C-PCM, Gaussian charge scheme
   Yang Guo               : DLPNO-NEVPT2, F12-NEVPT2, CIM, IAO-localization
   Andreas Hansen         : Spin unrestricted coupled pair/coupled cluster methods
   Benjamin Helmich-Paris : MC-RPA, TRAH-SCF, COSX integrals
   Lee Huntington         : MR-EOM, pCC
   Robert Izsak           : Overlap fitted RIJCOSX, COSX-SCS-MP3, EOM
   Marcus Kettner         : VPT2
   Christian Kollmar      : KDIIS, OOCD, Brueckner-CCSD(T), CCSD density, CASPT2, CASPT2-K
   Simone Kossmann        : Meta GGA functionals, TD-DFT gradient, OOMP2, MP2 Hessian
   Martin Krupicka        : Initial AUTO-CI
   Lucas Lang             : DCDCAS
   Marvin Lechner         : AUTO-CI (C++ implementation), FIC-MRCC
   Dagmar Lenk            : GEPOL surface, SMD
   Dimitrios Liakos       : Extrapolation schemes; Compound Job, initial MDCI parallelization
   Dimitrios Manganas     : Further ROCIS development; embedding schemes
   Dimitrios Pantazis     : SARC Basis sets
   Anastasios Papadopoulos: AUTO-CI, single reference methods and gradients
   Taras Petrenko         : DFT Hessian,TD-DFT gradient, ASA, ECA, R-Raman, ABS, FL, XAS/XES, NRVS
   Peter Pinski           : DLPNO-MP2, DLPNO-MP2 Gradient
   Christoph Reimann      : Effective Core Potentials
   Marius Retegan         : Local ZFS, SOC
   Christoph Riplinger    : Optimizer, TS searches, QM/MM, DLPNO-CCSD(T), (RO)-DLPNO pert. Triples
   Tobias Risthaus        : Range-separated hybrids, TD-DFT gradient, RPA, STAB
   Michael Roemelt        : Original ROCIS implementation
   Masaaki Saitow         : Open-shell DLPNO-CCSD energy and density
   Barbara Sandhoefer     : DKH picture change effects
   Avijit Sen             : IP-ROCIS
   Kantharuban Sivalingam : CASSCF convergence, NEVPT2, FIC-MRCI
   Bernardo de Souza      : ESD, SOC TD-DFT
   Georgi Stoychev        : AutoAux, RI-MP2 NMR, DLPNO-MP2 response
   Willem Van den Heuvel  : Paramagnetic NMR
   Boris Wezisla          : Elementary symmetry handling
   Frank Wennmohs         : Technical directorship


 We gratefully acknowledge several colleagues who have allowed us to
 interface, adapt or use parts of their codes:
   Stefan Grimme, W. Hujo, H. Kruse, P. Pracht,  : VdW corrections, initial TS optimization,
                  C. Bannwarth, S. Ehlert          DFT functionals, gCP, sTDA/sTD-DF
   Ed Valeev, F. Pavosevic, A. Kumar             : LibInt (2-el integral package), F12 methods
   Garnet Chan, S. Sharma, J. Yang, R. Olivares  : DMRG
   Ulf Ekstrom                                   : XCFun DFT Library
   Mihaly Kallay                                 : mrcc  (arbitrary order and MRCC methods)
   Jiri Pittner, Ondrej Demel                    : Mk-CCSD
   Frank Weinhold                                : gennbo (NPA and NBO analysis)
   Christopher J. Cramer and Donald G. Truhlar   : smd solvation model
   Lars Goerigk                                  : TD-DFT with DH, B97 family of functionals
   V. Asgeirsson, H. Jonsson                     : NEB implementation
   FAccTs GmbH                                   : IRC, NEB, NEB-TS, DLPNO-Multilevel, CI-OPT
                                                   MM, QMMM, 2- and 3-layer-ONIOM, Crystal-QMMM,
                                                   LR-CPCM, SF, NACMEs, symmetry and pop. for TD-DFT,
                                                   nearIR, NL-DFT gradient (VV10), updates on ESD,
                                                   ML-optimized integration grids
   S Lehtola, MJT Oliveira, MAL Marques          : LibXC Library
   Liviu Ungur et al                             : ANISO software


 Your calculation uses the libint2 library for the computation of 2-el integrals
 For citations please refer to: http://libint.valeyev.net

 Your ORCA version has been built with support for libXC version: 5.1.0
 For citations please refer to: https://tddft.org/programs/libxc/

 This ORCA versions uses:
   CBLAS   interface :  Fast vector & matrix operations
   LAPACKE interface :  Fast linear algebra routines
   SCALAPACK package :  Parallel linear algebra routines
   Shared memory     :  Shared parallel matrices
   BLAS/LAPACK       :  OpenBLAS 0.3.15  USE64BITINT DYNAMIC_ARCH NO_AFFINITY Sandybridge SINGLE_THREADED
        Core in use  :  Sandybridge
   Copyright (c) 2011-2014, The OpenBLAS Project




***************************************
The coordinates will be read from file: pbe.xyz
***************************************


================================================================================

cite the ECPs for Au [Def2-ECP] as follows:
Ce-Yb(ecp-28): M. Dolg, H. Stoll, H.Preuss, J. Chem. Phys., 1989, 90, 1730-1734.
Y-Cd(ecp-28), Hf-Hg(ecp-46): D. Andrae,U. Haeussermann, M. Dolg, H. Stoll, H. Preuss, Theor. Chim. Acta, 1990, 77, 123-141.
In-Sb(ecp-28), Tl-Bi(ecp-46): B. Metz, H. Stoll, M. Dolg, J. Chem. Phys., 2000, 113, 2563-2569.
Te-Xe(ecp-28), Po-Rn(ecp-46): K. A. Peterson, D. Figgen, E. Goll, H. Stoll, M. Dolg, J. Chem. Phys., 2003, 119, 11113-11123.
Rb(ecp-28), Cs(ecp-46): T. Leininger, A. Nicklass, W. Kuechle, H. Stoll, M. Dolg, A. Bergner, Chem. Phys. Lett., 1996, 255, 274-280.
Sr(ecp-28), Ba(ecp-46): M. Kaupp, P. V. Schleyer, H. Stoll and H. Preuss, J. Chem. Phys., 1991, 94, 1360-1366.
La(ecp-46): M. Dolg, H. Stoll, A. Savin, H. Preuss, Theor. Chim. Acta, 1989, 75, 173-194.
Lu(ecp-28): X. Cao, M. Dolg, J. Chem. Phys., 2001, 115, 7348-7355.

ECP parameters for Au [Def2-ECP] have been obtained from:
TURBOMOLE (7.0.2)

----- Orbital basis set information -----
Your calculation utilizes the basis: def2-TZVP
   F. Weigend and R. Ahlrichs, Phys. Chem. Chem. Phys. 7, 3297 (2005).

----- AuxJ basis set information -----
Your calculation utilizes the auxiliary basis: def2/J
   F. Weigend, Phys. Chem. Chem. Phys. 8, 1057 (2006).

================================================================================
                                        WARNINGS
                       Please study these warnings very carefully!
================================================================================

Using LibXC functional ID 497 : Re-regularized SCAN exchange by Furness et al
[ 1]  J. W. Furness, A. D. Kaplan, J. Ning, J. P. Perdew, and J. Sun, J. Phys. Chem. Lett. 11, 8208 (2020)
[ 2]  J. W. Furness, A. D. Kaplan, J. Ning, J. P. Perdew, and J. Sun, J. Phys. Chem. Lett. 11, 9248 (2020)
Using LibXC functional ID 498 : Re-regularized SCAN correlation by Furness et al
[ 1]  J. W. Furness, A. D. Kaplan, J. Ning, J. P. Perdew, and J. Sun, J. Phys. Chem. Lett. 11, 8208 (2020)
[ 2]  J. W. Furness, A. D. Kaplan, J. Ning, J. P. Perdew, and J. Sun, J. Phys. Chem. Lett. 11, 9248 (2020)
Using LibXC functional ID 497 : Re-regularized SCAN exchange by Furness et al
[ 1]  J. W. Furness, A. D. Kaplan, J. Ning, J. P. Perdew, and J. Sun, J. Phys. Chem. Lett. 11, 8208 (2020)
[ 2]  J. W. Furness, A. D. Kaplan, J. Ning, J. P. Perdew, and J. Sun, J. Phys. Chem. Lett. 11, 9248 (2020)
Using LibXC functional ID 498 : Re-regularized SCAN correlation by Furness et al
[ 1]  J. W. Furness, A. D. Kaplan, J. Ning, J. P. Perdew, and J. Sun, J. Phys. Chem. Lett. 11, 8208 (2020)
[ 2]  J. W. Furness, A. D. Kaplan, J. Ning, J. P. Perdew, and J. Sun, J. Phys. Chem. Lett. 11, 9248 (2020)

WARNING: your system is open-shell and RHF/RKS was chosen
  ===> : WILL SWITCH to UHF/UKS


INFO   : the flag for use of the SHARK integral package has been found!



***************************************
The coordinates will be read from file: pbe.xyz
***************************************


================================================================================

cite the ECPs for Au [Def2-ECP] as follows:
Ce-Yb(ecp-28): M. Dolg, H. Stoll, H.Preuss, J. Chem. Phys., 1989, 90, 1730-1734.
Y-Cd(ecp-28), Hf-Hg(ecp-46): D. Andrae,U. Haeussermann, M. Dolg, H. Stoll, H. Preuss, Theor. Chim. Acta, 1990, 77, 123-141.
In-Sb(ecp-28), Tl-Bi(ecp-46): B. Metz, H. Stoll, M. Dolg, J. Chem. Phys., 2000, 113, 2563-2569.
Te-Xe(ecp-28), Po-Rn(ecp-46): K. A. Peterson, D. Figgen, E. Goll, H. Stoll, M. Dolg, J. Chem. Phys., 2003, 119, 11113-11123.
Rb(ecp-28), Cs(ecp-46): T. Leininger, A. Nicklass, W. Kuechle, H. Stoll, M. Dolg, A. Bergner, Chem. Phys. Lett., 1996, 255, 274-280.
Sr(ecp-28), Ba(ecp-46): M. Kaupp, P. V. Schleyer, H. Stoll and H. Preuss, J. Chem. Phys., 1991, 94, 1360-1366.
La(ecp-46): M. Dolg, H. Stoll, A. Savin, H. Preuss, Theor. Chim. Acta, 1989, 75, 173-194.
Lu(ecp-28): X. Cao, M. Dolg, J. Chem. Phys., 2001, 115, 7348-7355.

ECP parameters for Au [Def2-ECP] have been obtained from:
TURBOMOLE (7.0.2)

----- Orbital basis set information -----
Your calculation utilizes the basis: def2-TZVP
   F. Weigend and R. Ahlrichs, Phys. Chem. Chem. Phys. 7, 3297 (2005).

----- AuxJ basis set information -----
Your calculation utilizes the auxiliary basis: def2/J
   F. Weigend, Phys. Chem. Chem. Phys. 8, 1057 (2006).

================================================================================
                                        WARNINGS
                       Please study these warnings very carefully!
================================================================================

Using LibXC functional ID 497 : Re-regularized SCAN exchange by Furness et al
[ 1]  J. W. Furness, A. D. Kaplan, J. Ning, J. P. Perdew, and J. Sun, J. Phys. Chem. Lett. 11, 8208 (2020)
[ 2]  J. W. Furness, A. D. Kaplan, J. Ning, J. P. Perdew, and J. Sun, J. Phys. Chem. Lett. 11, 9248 (2020)
Using LibXC functional ID 498 : Re-regularized SCAN correlation by Furness et al
[ 1]  J. W. Furness, A. D. Kaplan, J. Ning, J. P. Perdew, and J. Sun, J. Phys. Chem. Lett. 11, 8208 (2020)
[ 2]  J. W. Furness, A. D. Kaplan, J. Ning, J. P. Perdew, and J. Sun, J. Phys. Chem. Lett. 11, 9248 (2020)
Using LibXC functional ID 497 : Re-regularized SCAN exchange by Furness et al
[ 1]  J. W. Furness, A. D. Kaplan, J. Ning, J. P. Perdew, and J. Sun, J. Phys. Chem. Lett. 11, 8208 (2020)
[ 2]  J. W. Furness, A. D. Kaplan, J. Ning, J. P. Perdew, and J. Sun, J. Phys. Chem. Lett. 11, 9248 (2020)
Using LibXC functional ID 498 : Re-regularized SCAN correlation by Furness et al
[ 1]  J. W. Furness, A. D. Kaplan, J. Ning, J. P. Perdew, and J. Sun, J. Phys. Chem. Lett. 11, 8208 (2020)
[ 2]  J. W. Furness, A. D. Kaplan, J. Ning, J. P. Perdew, and J. Sun, J. Phys. Chem. Lett. 11, 9248 (2020)

INFO   : the flag for use of the SHARK integral package has been found!

================================================================================
                                       INPUT FILE
================================================================================
NAME = scan.inp
|  1> !R2SCAN def2-TZVP VERYSLOWCONV
|  2> 
|  3> %pal nprocs 16 end 
|  4> 
|  5> %scf 
|  6>   AutoTRAHIter 200
|  7>   maxiter 400
|  8> end
|  9> 
| 10> *xyzfile 0 5 pbe.xyz
| 11> 
| 12> $new_job
| 13> 
| 14> !R2SCAN def2-TZVP VERYSLOWCONV
| 15> 
| 16> 
| 17> %pal nprocs 16 end 
| 18> 
| 19> %scf
| 20>   AutoTRAHIter 200
| 21>   maxiter 400
| 22> end
| 23> 
| 24> *xyzfile 0 3 pbe.xyz
| 25> 
| 26> 
| 27> 
| 28> 
| 29> 
| 30>                          ****END OF INPUT****
================================================================================


                 $$$$$$$$$$$$$$$$$$$$$$$$$$$$$$$$$$$$$$$$$$$$$$ 
                 $ THERE ARE  2 JOBS TO BE PROCESSED THIS RUN $
                 $$$$$$$$$$$$$$$$$$$$$$$$$$$$$$$$$$$$$$$$$$$$$$ 




                 $$$$$$$$$$$$$$$$  JOB NUMBER  1 $$$$$$$$$$$$$$


                       ****************************
                       * Single Point Calculation *
                       ****************************

---------------------------------
CARTESIAN COORDINATES (ANGSTROEM)
---------------------------------
  Au     7.080532    5.283059    7.320395
  Au     8.783703    6.165548    5.404195
  Au     7.157217    8.403894    4.721445
  Au     8.841413   10.444020    6.146051
  Au     9.926650    8.501200    4.507662
  Au     9.653123    6.010096    8.097135
  Au    10.588475    8.531537    7.279928
  Au     6.329151    8.505825    9.394353
  Au     8.010635   10.571223    8.752826
  Au     5.324738    7.392601    6.534137
  Au     7.601467    6.040208   10.032880
  Au     5.000152    6.115183    8.957864
  Au     9.234053    8.259889    9.705848
  Au     6.144287   10.012649    6.749460
  Fe     7.940904    8.005388    7.291902

----------------------------
CARTESIAN COORDINATES (A.U.)
----------------------------
  NO LB      ZA    FRAG     MASS         X           Y           Z
   0 Au   19.0000*   0   196.966   13.380266    9.983536   13.833543
   1 Au   19.0000*   0   196.966   16.598793   11.651197   10.212449
   2 Au   19.0000*   0   196.966   13.525180   15.881058    8.922238
   3 Au   19.0000*   0   196.966   16.707848   19.736338   11.614354
   4 Au   19.0000*   0   196.966   18.758649   16.064939    8.518247
   5 Au   19.0000*   0   196.966   18.241759   11.357435   15.301368
   6 Au   19.0000*   0   196.966   20.009318   16.122268   13.757071
   7 Au   19.0000*   0   196.966   11.960363   16.073680   17.752755
   8 Au   19.0000*   0   196.966   15.137906   19.976716   16.540443
   9 Au   19.0000*   0   196.966   10.062297   13.969992   12.347730
  10 Au   19.0000*   0   196.966   14.364690   11.414339   18.959395
  11 Au   19.0000*   0   196.966    9.448919   11.556021   16.927910
  12 Au   19.0000*   0   196.966   17.449832   15.608927   18.341395
  13 Au   19.0000*   0   196.966   11.611019   18.921165   12.754630
  14 Fe   26.0000    0    55.850   15.006134   15.127990   13.779698
* core charge reduced due to ECP

--------------------------------
INTERNAL COORDINATES (ANGSTROEM)
--------------------------------
 Au     0   0   0     0.000000000000     0.00000000     0.00000000
 Au     1   0   0     2.711346922072     0.00000000     0.00000000
 Au     2   1   0     2.849876880186    93.80979381     0.00000000
 Au     3   2   1     3.004684975200    95.72732463   103.47717720
 Au     2   1   3     2.750521114757   140.15431648    44.38689124
 Au     1   2   3     2.783905851482    62.07612863   241.53178638
 Au     6   1   2     2.810760707497   117.43040960    51.26012943
 Au     1   2   3     3.905392723281   103.15451771   311.65992669
 Au     4   3   2     2.738913175026   108.22610883   273.01053078
 Au     3   2   1     2.768852508932    86.21616510   355.77022193
 Au     6   1   2     2.820869914449    61.45461105   157.02541448
 Au    10   3   2     2.758913964812   145.29647512    37.16194409
 Au    11   6   1     2.774756005325    59.98221925   230.80446459
 Au    10   3   2     2.753665610293    60.44259397   127.31530360
 Fe     8   1   2     2.696012911909    46.97414409   357.13402308

---------------------------
INTERNAL COORDINATES (A.U.)
---------------------------
 Au     0   0   0     0.000000000000     0.00000000     0.00000000
 Au     1   0   0     5.123703136767     0.00000000     0.00000000
 Au     2   1   0     5.385486818946    93.80979381     0.00000000
 Au     3   2   1     5.678031721837    95.72732463   103.47717720
 Au     2   1   3     5.197731632459   140.15431648    44.38689124
 Au     1   2   3     5.260819641922    62.07612863   241.53178638
 Au     6   1   2     5.311567965157   117.43040960    51.26012943
 Au     1   2   3     7.380122692410   103.15451771   311.65992669
 Au     4   3   2     5.175795805387   108.22610883   273.01053078
 Au     3   2   1     5.232372947101    86.21616510   355.77022193
 Au     6   1   2     5.330671597727    61.45461105   157.02541448
 Au    10   3   2     5.213591820545   145.29647512    37.16194409
 Au    11   6   1     5.243528938518    59.98221925   230.80446459
 Au    10   3   2     5.203673867851    60.44259397   127.31530360
 Fe     8   1   2     5.094726057024    46.97414409   357.13402308

---------------------
BASIS SET INFORMATION
---------------------
There are 2 groups of distinct atoms

 Group   1 Type Au  : 8s7p6d1f contracted to 6s4p3d1f pattern {311111/4111/411/1}
 Group   2 Type Fe  : 17s11p7d1f contracted to 6s4p4d1f pattern {842111/6311/4111/1}

Atom   0Au   basis set group =>   1
Atom   1Au   basis set group =>   1
Atom   2Au   basis set group =>   1
Atom   3Au   basis set group =>   1
Atom   4Au   basis set group =>   1
Atom   5Au   basis set group =>   1
Atom   6Au   basis set group =>   1
Atom   7Au   basis set group =>   1
Atom   8Au   basis set group =>   1
Atom   9Au   basis set group =>   1
Atom  10Au   basis set group =>   1
Atom  11Au   basis set group =>   1
Atom  12Au   basis set group =>   1
Atom  13Au   basis set group =>   1
Atom  14Fe   basis set group =>   2
---------------------------------
AUXILIARY/J BASIS SET INFORMATION
---------------------------------
There are 2 groups of distinct atoms

 Group   1 Type Au  : 11s5p5d3f3g contracted to 8s5p5d2f3g pattern {41111111/11111/11111/21/111}
 Group   2 Type Fe  : 19s5p5d3f3g contracted to 8s5p5d2f3g pattern {121111111/11111/11111/21/111}

Atom   0Au   basis set group =>   1
Atom   1Au   basis set group =>   1
Atom   2Au   basis set group =>   1
Atom   3Au   basis set group =>   1
Atom   4Au   basis set group =>   1
Atom   5Au   basis set group =>   1
Atom   6Au   basis set group =>   1
Atom   7Au   basis set group =>   1
Atom   8Au   basis set group =>   1
Atom   9Au   basis set group =>   1
Atom  10Au   basis set group =>   1
Atom  11Au   basis set group =>   1
Atom  12Au   basis set group =>   1
Atom  13Au   basis set group =>   1
Atom  14Fe   basis set group =>   2
-------------------------
ECP PARAMETER INFORMATION
-------------------------

 Group 1, Type Au ECP Def2-ECP (replacing 60 core electrons, lmax=3)

Atom   0Au   ECP group =>   1
Atom   1Au   ECP group =>   1
Atom   2Au   ECP group =>   1
Atom   3Au   ECP group =>   1
Atom   4Au   ECP group =>   1
Atom   5Au   ECP group =>   1
Atom   6Au   ECP group =>   1
Atom   7Au   ECP group =>   1
Atom   8Au   ECP group =>   1
Atom   9Au   ECP group =>   1
Atom  10Au   ECP group =>   1
Atom  11Au   ECP group =>   1
Atom  12Au   ECP group =>   1
Atom  13Au   ECP group =>   1



           ************************************************************
           *        Program running with 16 parallel MPI-processes    *
           *              working on a common directory               *
           ************************************************************
------------------------------------------------------------------------------
                           ORCA GTO INTEGRAL CALCULATION
                           -- RI-GTO INTEGRALS CHOSEN --
------------------------------------------------------------------------------
------------------------------------------------------------------------------
                   ___                                                        
                  /   \      - P O W E R E D   B Y -                         
                 /     \                                                     
                 |  |  |   _    _      __       _____    __    __             
                 |  |  |  | |  | |    /  \     |  _  \  |  |  /  |          
                  \  \/   | |  | |   /    \    | | | |  |  | /  /          
                 / \  \   | |__| |  /  /\  \   | |_| |  |  |/  /          
                |  |  |   |  __  | /  /__\  \  |    /   |      \           
                |  |  |   | |  | | |   __   |  |    \   |  |\   \          
                \     /   | |  | | |  |  |  |  | |\  \  |  | \   \       
                 \___/    |_|  |_| |__|  |__|  |_| \__\ |__|  \__/        
                                                                              
                      - O R C A' S   B I G   F R I E N D -                    
                                      &                                       
                       - I N T E G R A L  F E E D E R -                       
                                                                              
 v1 FN, 2020, v2 2021                                                         
------------------------------------------------------------------------------


Reading SHARK input file scan.SHARKINP.tmp ... ok
----------------------
SHARK INTEGRAL PACKAGE
----------------------

Number of atoms                             ...     15
Number of basis functions                   ...    605
Number of shells                            ...    211
Maximum angular momentum                    ...      3
Integral batch strategy                     ... SHARK/LIBINT Hybrid
RI-J (if used) integral strategy            ... SPLIT-RIJ (Revised 2003 algorithm where possible)
Printlevel                                  ...      1
Contraction scheme used                     ... SEGMENTED contraction
Coulomb Range Separation                    ... NOT USED
Exchange Range Separation                   ... NOT USED
Finite Nucleus Model                        ... NOT USED
Auxiliary Coulomb fitting basis             ... AVAILABLE
   # of basis functions in Aux-J            ...   1335
   # of shells in Aux-J                     ...    345
   Maximum angular momentum in Aux-J        ...      4
Auxiliary J/K fitting basis                 ... NOT available
Auxiliary Correlation fitting basis         ... NOT available
Auxiliary 'external' fitting basis          ... NOT available
Integral threshold                          ...     1.000000e-10
Primitive cut-off                           ...     1.000000e-11
Primitive pair pre-selection threshold      ...     1.000000e-11

Calculating pre-screening integrals         ... done (  0.2 sec) Dimension = 211
Organizing shell pair data                  ... done (  0.8 sec)
Shell pair information
Total number of shell pairs                 ...     22366
Shell pairs after pre-screening             ...     17893
Total number of primitive shell pairs       ...     59609
Primitive shell pairs kept                  ...     34534
          la=0 lb=0:   2801 shell pairs
          la=1 lb=0:   4058 shell pairs
          la=1 lb=1:   1548 shell pairs
          la=2 lb=0:   3550 shell pairs
          la=2 lb=1:   2509 shell pairs
          la=2 lb=2:   1030 shell pairs
          la=3 lb=0:    937 shell pairs
          la=3 lb=1:    726 shell pairs
          la=3 lb=2:    634 shell pairs
          la=3 lb=3:    100 shell pairs

Calculating one electron integrals          ... done (  0.0 sec)
Calculating ECP integrals                   ... done ( 22.8 sec)
Calculating RI/J V-Matrix + Cholesky decomp.... done (  0.2 sec)
Calculating Nuclear repulsion               ... done (  0.0 sec) ENN=   5764.524537356722 Eh

SHARK setup successfully completed in  24.6 seconds

Maximum memory used throughout the entire GTOINT-calculation: 34.7 MB


           ************************************************************
           *        Program running with 16 parallel MPI-processes    *
           *              working on a common directory               *
           ************************************************************
-------------------------------------------------------------------------------
                                 ORCA SCF
-------------------------------------------------------------------------------

------------
SCF SETTINGS
------------
Hamiltonian:
 Density Functional     Method          .... DFT(GTOs)
  Functional kind                       .... Exchange
  Functional name                       .... Re-regularized SCAN exchange by Furness et al
  Functional family                     .... MGGA
  Functional refs                              
    [ 0] J. W. Furness, A. D. Kaplan, J. Ning, J. P. Perdew, and J. Sun, J. Phys. Chem. Lett. 11, 8208 (2020)
    [ 1] J. W. Furness, A. D. Kaplan, J. Ning, J. P. Perdew, and J. Sun, J. Phys. Chem. Lett. 11, 9248 (2020)
  Functional external parameters         .... 8
 Parameter  0 :         c1 parameter
 Parameter  1 :         c2 parameter
 Parameter  2 :          d parameter
 Parameter  3 :         k1 parameter
 Parameter  4 :       taur parameter
 Parameter  5 :     alphar parameter
 Parameter  6 :        eta parameter
 Parameter  7 :        dp2 parameter
  Functional kind                       .... Correlation
  Functional name                       .... Re-regularized SCAN correlation by Furness et al
  Functional family                     .... MGGA
  Functional refs                              
    [ 0] J. W. Furness, A. D. Kaplan, J. Ning, J. P. Perdew, and J. Sun, J. Phys. Chem. Lett. 11, 8208 (2020)
    [ 1] J. W. Furness, A. D. Kaplan, J. Ning, J. P. Perdew, and J. Sun, J. Phys. Chem. Lett. 11, 9248 (2020)
  Functional external parameters         .... 0
 Gradients option       PostSCFGGA      .... off
   Density functional embedding theory  .... OFF
   NL short-range parameter             .... 12.300000
 RI-approximation to the Coulomb term is turned on
   Number of AuxJ basis functions       .... 1335


General Settings:
 Integral files         IntName         .... scan
 Hartree-Fock type      HFTyp           .... UHF
 Total Charge           Charge          ....    0
 Multiplicity           Mult            ....    5
 Number of Electrons    NEL             ....  292
 Basis Dimension        Dim             ....  605
 Nuclear Repulsion      ENuc            ....   5764.5245373567 Eh

Convergence Acceleration:
 DIIS                   CNVDIIS         .... on
   Start iteration      DIISMaxIt       ....     0
   Startup error        DIISStart       ....  0.200000
   # of expansion vecs  DIISMaxEq       ....     5
   Bias factor          DIISBfac        ....   1.050
   Max. coefficient     DIISMaxC        ....  10.000
 Trust-Rad. Augm. Hess. CNVTRAH         .... auto
   Auto Start mean grad. ratio tolernc. ....  1.125000
   Auto Start start iteration           ....   200
   Auto Start num. interpolation iter.  ....    10
   Max. Number of Micro iterations      ....    16
   Max. Number of Macro iterations      .... Maxiter - #DIIS iter
   Number of Davidson start vectors     ....     2
   Converg. threshold I  (grad. norm)   ....   5.000e-05
   Converg. threshold II (energy diff.) ....   1.000e-06
   Grad. Scal. Fac. for Micro threshold ....   0.100
   Minimum threshold for Micro iter.    ....   0.010
   NR start threshold (gradient norm)   ....   0.001
   Initial trust radius                 ....   0.400
   Minimum AH scaling param. (alpha)    ....   1.000
   Maximum AH scaling param. (alpha)    .... 1000.000
   Orbital update algorithm             .... Taylor
   White noise on init. David. guess    .... on
   Maximum white noise                  ....   0.010
   Quad. conv. algorithm                .... NR
 SOSCF                  CNVSOSCF        .... off
 Level Shifting         CNVShift        .... on
   Level shift para.    LevelShift      ....    0.2500
   Turn off err/grad.   ShiftErr        ....    0.0000
 Zerner damping         CNVZerner       .... off
 Static damping         CNVDamp         .... on
   Fraction old density DampFac         ....    0.9200
   Max. Damping (<1)    DampMax         ....    0.9800
   Min. Damping (>=0)   DampMin         ....    0.0000
   Turn off err/grad.   DampErr         ....    0.0030
 Fernandez-Rico         CNVRico         .... off

SCF Procedure:
 Maximum # iterations   MaxIter         ....   400
 SCF integral mode      SCFMode         .... Direct
   Integral package                     .... SHARK and LIBINT hybrid scheme
 Reset frequency        DirectResetFreq ....    20
 Integral Threshold     Thresh          ....  1.000e-10 Eh
 Primitive CutOff       TCut            ....  1.000e-11 Eh

Convergence Tolerance:
 Convergence Check Mode ConvCheckMode   .... Total+1el-Energy
 Convergence forced     ConvForced      .... 0
 Energy Change          TolE            ....  1.000e-06 Eh
 1-El. energy change                    ....  1.000e-03 Eh
 DIIS Error             TolErr          ....  1.000e-06


Diagonalization of the overlap matrix:
Smallest eigenvalue                        ... 3.943e-04
Time for diagonalization                   ...    0.179 sec
Threshold for overlap eigenvalues          ... 1.000e-08
Number of eigenvalues below threshold      ... 0
Time for construction of square roots      ...    0.112 sec
Total time needed                          ...    0.294 sec

Time for model grid setup =    0.816 sec

------------------------------
INITIAL GUESS: MODEL POTENTIAL
------------------------------
Loading Hartree-Fock densities                     ... done
  calling /home/ehlert/src/miniconda3/envs/orca500/Programs/ORCA501/orca scan_atom79.inp > scan_atom79.out in order to generate an atomic fitting density for atom 0 (Au with ECP) on-the-fly... 
    atom 0 (Au), assumed electronic state with S=2: 1s2 2s2 2p6 3s2 3p6 4s2 3d10 4p6 5s2 4d10 5p6 6s1 4f14 5d10           ... done
Calculating cut-offs                               ... done
Initializing the effective Hamiltonian             ... done
Setting up the integral package (SHARK)            ... done
Starting the Coulomb interaction                   ... done (   0.4 sec)
Reading the grid                                   ... done
Mapping shells                                     ... done
Starting the XC term evaluation                    ... done (   0.4 sec)
  promolecular density results
     # of electrons  =   1132.014495888
     EX              =  -5175.654643800
     EC              =    -68.993361954
     EX+EC           =  -5244.648005753
Transforming the Hamiltonian                       ... done (   0.1 sec)
Diagonalizing the Hamiltonian                      ... done (   0.2 sec)
Back transforming the eigenvectors                 ... done (   0.0 sec)
Now organizing SCF variables                       ... done
                      ------------------
                      INITIAL GUESS DONE (   3.4 sec)
                      ------------------
-------------------
DFT GRID GENERATION
-------------------

General Integration Accuracy     IntAcc      ... 4.388
Radial Grid Type                 RadialGrid  ... OptM3 with GC (2021)
Angular Grid (max. ang.)         AngularGrid ... 4 (Lebedev-302)
Angular grid pruning method      GridPruning ... 4 (adaptive)
Weight generation scheme         WeightScheme... Becke
Basis function cutoff            BFCut       ... 1.0000e-10
Integration weight cutoff        WCut        ... 1.0000e-14
Angular grids for H and He will be reduced by one unit
Partially contracted basis set               ... off
Rotationally invariant grid construction     ... off

Total number of grid points                  ...   165618
Total number of batches                      ...     2595
Average number of points per batch           ...       63
Average number of grid points per atom       ...    11041
Time for grid setup =    2.389 sec

--------------
SCF ITERATIONS
--------------
ITER       Energy         Delta-E        Max-DP      RMS-DP      [F,P]     Damp
               ***  Starting incremental Fock matrix formation  ***
  0  -3161.9701635183   0.000000000000 0.13407658  0.00078224  0.5469545 0.9200
  1  -3163.3123965287  -1.342233010389 0.11033803  0.00071317  0.3489393 0.9200
                               ***Turning on DIIS***
  2  -3164.0497101377  -0.737313608964 0.08152650  0.00059097  0.2530469 0.9200
  3  -3164.3745098022  -0.324799664565 0.05500215  0.00046442  0.2322028 0.9200
  4  -3164.4671515609  -0.092641758674 0.03874461  0.00038854  0.2131386 0.9200
  5  -3164.4714095836  -0.004258022734 0.02502294  0.00028603  0.1956133 0.9200
  6  -3164.5628755108  -0.091465927115 0.03086831  0.00026002  0.1794411 0.9200
  7  -3164.6522510913  -0.089375580583 0.03185683  0.00023518  0.1648728 0.9200
  8  -3164.7024157784  -0.050164687052 0.02853301  0.00021346  0.1518010 0.9200
  9  -3164.7572463012  -0.054830522819 0.03877905  0.00022884  0.1396440 0.9200
 10  -3164.8187025331  -0.061456231882 0.01868411  0.00019596  0.1283593 0.9200
 11  -3164.8595442499  -0.040841716836 0.01865322  0.00017017  0.1181188 0.9200
 12  -3164.9082902511  -0.048746001165 0.02195624  0.00017349  0.1085886 0.9200
 13  -3164.9582922830  -0.050002031919 0.02095155  0.00016030  0.0997181 0.9200
 14  -3164.9961583535  -0.037866070494 0.01913055  0.00014862  0.0917005 0.9200
 15  -3165.0358252796  -0.039666926133 0.01631647  0.00014776  0.0843118 0.9200
 16  -3165.0763119760  -0.040486696339 0.01658278  0.00013972  0.0775194 0.9200
 17  -3165.1106179938  -0.034306017846 0.01951380  0.00012780  0.0713604 0.9200
 18  -3165.1434057055  -0.032787711704 0.01904475  0.00012050  0.0656377 0.9200
 19  -3165.1739425115  -0.030536805925 0.01797271  0.00011219  0.0603026 0.9200
               *** Restarting incremental Fock matrix formation ***
                                   *** Resetting DIIS ***
 20  -3165.2014268637  -0.027484352253 0.01539660  0.00010497  0.0554374 0.9200
 21  -3165.2284121318  -0.026985268053 0.01426408  0.00009980  0.0509284 0.9200
 22  -3165.2540934025  -0.025681270762 0.01358575  0.00009297  0.0468103 0.9200
 23  -3165.2775756067  -0.023482204178 0.01517401  0.00008736  0.0430478 0.9200
 24  -3165.2990739822  -0.021498375458 0.01465007  0.00008293  0.0395970 0.9200
 25  -3165.3193096850  -0.020235702808 0.01308253  0.00007914  0.0364297 0.9200
 26  -3165.3383771359  -0.019067450933 0.01235155  0.00007504  0.0335068 0.9200
 27  -3165.3560576898  -0.017680553883 0.01208977  0.00007003  0.0308149 0.9200
 28  -3165.3723092294  -0.016251539605 0.01149080  0.00006526  0.0283386 0.9200
 29  -3165.3873239641  -0.015014734688 0.01034826  0.00006144  0.0260647 0.9200
 30  -3165.4014443506  -0.014120386486 0.00946493  0.00005821  0.0239781 0.9200
 31  -3165.4146199176  -0.013175567047 0.00911174  0.00005418  0.0220577 0.9200
 32  -3165.4267681167  -0.012148199092 0.00857080  0.00004999  0.0202871 0.9200
 33  -3165.4379579028  -0.011189786152 0.00790430  0.00004640  0.0186563 0.9200
 34  -3165.4483544980  -0.010396595160 0.00712014  0.00004364  0.0171592 0.9200
 35  -3165.4580714896  -0.009716991551 0.00673730  0.00004093  0.0157852 0.9200
 36  -3165.4670695327  -0.008998043107 0.00642913  0.00003772  0.0145210 0.9200
 37  -3165.4753570642  -0.008287531502 0.00596026  0.00003469  0.0133554 0.9200
 38  -3165.4830002302  -0.007643166035 0.00538737  0.00003225  0.0122822 0.9200
 39  -3165.4901087735  -0.007108543342 0.00432865  0.00003017  0.0112971 0.9200
               *** Restarting incremental Fock matrix formation ***
                                   *** Resetting DIIS ***
 40  -3165.4967124434  -0.006603669804 0.00363015  0.00002752  0.0103925 0.9200
 41  -3165.5028216660  -0.006109222695 0.00332216  0.00002489  0.0095517 0.9200
 42  -3165.5084469988  -0.005625332798 0.00363635  0.00002267  0.0087792 0.9200
 43  -3165.5136206699  -0.005173671027 0.00376001  0.00002113  0.0080708 0.9200
 44  -3165.5183993026  -0.004778632726 0.00354614  0.00001998  0.0074232 0.9200
 45  -3165.5228282960  -0.004428993437 0.00314219  0.00001900  0.0068296 0.9200
 46  -3165.5269279089  -0.004099612906 0.00306006  0.00001769  0.0062831 0.9200
 47  -3165.5307032009  -0.003775291917 0.00288804  0.00001628  0.0057791 0.9200
 48  -3165.5341737070  -0.003470506154 0.00260310  0.00001510  0.0053143 0.9200
 49  -3165.5373830430  -0.003209335939 0.00229507  0.00001422  0.0048878 0.9200
 50  -3165.5403566617  -0.002973618756 0.00217575  0.00001337  0.0044963 0.9200
 51  -3165.5431003703  -0.002743708555 0.00209197  0.00001233  0.0041364 0.9200
 52  -3165.5456237907  -0.002523420438 0.00193934  0.00001132  0.0038045 0.9200
 53  -3165.5479443279  -0.002320537194 0.00170065  0.00001050  0.0034987 0.9200
 54  -3165.5500917039  -0.002147376004 0.00153100  0.00000992  0.0032181 0.9200
 55  -3165.5520781032  -0.001986399333 0.01894532  0.00011559  0.0029603 0.0000
 56  -3165.5751829314  -0.023104828143 0.00297539  0.00001687  0.0018227 0.0000
 57  -3165.5749957338   0.000187197605 0.00006021  0.00000045  0.0039820 0.9200
 58  -3165.5750057377  -0.000010003941 0.00006551  0.00000063  0.0038272 0.9200
 59  -3165.5750194601  -0.000013722342 0.00007076  0.00000073  0.0036221 0.9200
               *** Restarting incremental Fock matrix formation ***
                                   *** Resetting DIIS ***
 60  -3165.5750312440  -0.000011783975 0.00046084  0.00000418  0.0033932 0.9200
 61  -3165.5751008197  -0.000069575713 0.00420337  0.00004295  0.0018966 0.0000
 62  -3165.5746849318   0.000415887934 0.00012475  0.00000078  0.0101930 0.9200
 63  -3165.5747153969  -0.000030465102 0.00015429  0.00000108  0.0099373 0.9200
 64  -3165.5747580247  -0.000042627747 0.00015498  0.00000122  0.0095755 0.9200
 65  -3165.5748047874  -0.000046762758 0.00014801  0.00000130  0.0091634 0.9200
 66  -3165.5748518064  -0.000047018945 0.00073999  0.00000623  0.0087274 0.9200
 67  -3165.5750148490  -0.000163042610 0.00050302  0.00000545  0.0064549 0.9200
 68  -3165.5751040197  -0.000089170772 0.00048073  0.00000466  0.0048074 0.9200
 69  -3165.5751483565  -0.000044336711 0.00042785  0.00000392  0.0035659 0.9200
 70  -3165.5751681102  -0.000019753758 0.00454878  0.00004032  0.0026093 0.0000
 71  -3165.5746520947   0.000516015490 0.00003854  0.00000041  0.0066283 0.9200
 72  -3165.5746680636  -0.000015968888 0.00006834  0.00000073  0.0065078 0.9200
 73  -3165.5746940520  -0.000025988344 0.00009466  0.00000096  0.0063085 0.9200
 74  -3165.5747260600  -0.000032008015 0.00011511  0.00000114  0.0060579 0.9200
 75  -3165.5747612879  -0.000035227944 0.00047700  0.00000484  0.0057742 0.9200
 76  -3165.5749003542  -0.000139066247 0.00044010  0.00000444  0.0041397 0.9200
 77  -3165.5749956233  -0.000095269123 0.00533048  0.00005011  0.0029558 0.0000
 78  -3165.5748720942   0.000123529092 0.00006570  0.00000045  0.0085183 0.9200
 79  -3165.5748864624  -0.000014368216 0.00008591  0.00000067  0.0083763 0.9200
               *** Restarting incremental Fock matrix formation ***
                                   *** Resetting DIIS ***
 80  -3165.5749084389  -0.000021976445 0.00121445  0.00000976  0.0081588 0.9200
 81  -3165.5750834964  -0.000175057535 0.00076565  0.00000807  0.0046297 0.9200
 82  -3165.5751362987  -0.000052802292 0.00882592  0.00008195  0.0023029 0.0000
 83  -3165.5723929650   0.002743333676 0.00011281  0.00000098  0.0170288 0.9200
 84  -3165.5724835164  -0.000090551435 0.00014140  0.00000155  0.0167132 0.9200
 85  -3165.5726225577  -0.000139041281 0.00017898  0.00000192  0.0162262 0.9200
 86  -3165.5727866206  -0.000164062924 0.00020416  0.00000218  0.0156394 0.9200
 87  -3165.5729613460  -0.000174725376 0.00133738  0.00001240  0.0149952 0.9200
 88  -3165.5737432100  -0.000781863976 0.00107938  0.00001095  0.0106776 0.9200
 89  -3165.5742398791  -0.000496669107 0.00104292  0.00000967  0.0076259 0.9200
 90  -3165.5745515380  -0.000311658898 0.00094260  0.00000841  0.0053002 0.9200
 91  -3165.5747484399  -0.000196901919 0.00081717  0.00000718  0.0034775 0.9200
 92  -3165.5748732029  -0.000124762954 0.00861076  0.00007540  0.0020444 0.0000
 93  -3165.5743996735   0.000473529351 0.00006220  0.00000058  0.0119673 0.9200
 94  -3165.5744243777  -0.000024704177 0.00011378  0.00000103  0.0118123 0.9200
 95  -3165.5744652633  -0.000040885608 0.00015438  0.00000137  0.0115521 0.9200
 96  -3165.5745157915  -0.000050528179 0.00018505  0.00000162  0.0112213 0.9200
 97  -3165.5745712916  -0.000055500153 0.00113965  0.00001030  0.0108443 0.9200
 98  -3165.5748919985  -0.000320706869 0.00091547  0.00000883  0.0072625 0.9200
 99  -3165.5750471215  -0.000155122962 0.00087897  0.00000778  0.0048967 0.9200
               *** Restarting incremental Fock matrix formation ***
                                   *** Resetting DIIS ***
100  -3165.5751166432  -0.000069521751 0.00104909  0.00000978  0.0031363 0.9200
101  -3165.5751174630  -0.000000819743 0.01160721  0.00010098  0.0006613 0.0000
102  -3165.5713708543   0.003746608691 0.00010720  0.00000098  0.0203530 0.9200
103  -3165.5714797291  -0.000108874875 0.00014595  0.00000157  0.0200251 0.9200
104  -3165.5716459691  -0.000166239915 0.00018403  0.00000198  0.0195262 0.9200
105  -3165.5718421233  -0.000196154262 0.00020912  0.00000226  0.0189287 0.9200
106  -3165.5720517191  -0.000209595757 0.00173510  0.00001609  0.0182745 0.9200
107  -3165.5732120911  -0.001160372025 0.00140214  0.00001385  0.0126638 0.9200
108  -3165.5739132717  -0.000701180636 0.00134718  0.00001214  0.0088466 0.9200
109  -3165.5743375494  -0.000424277669 0.00121259  0.00001052  0.0059742 0.9200
110  -3165.5745964234  -0.000258874030 0.00104686  0.00000895  0.0037394 0.9200
111  -3165.5747544135  -0.000157990030 0.01099496  0.00009367  0.0019920 0.0000
112  -3165.5738347313   0.000919682137 0.00007995  0.00000072  0.0150252 0.9200
113  -3165.5738731395  -0.000038408202 0.00014519  0.00000128  0.0148405 0.9200
114  -3165.5739365884  -0.000063448831 0.00019594  0.00000170  0.0145301 0.9200
115  -3165.5740152611  -0.000078672726 0.00023391  0.00000201  0.0141350 0.9200
116  -3165.5741020424  -0.000086781294 0.00146817  0.00001320  0.0136839 0.9200
117  -3165.5746352910  -0.000533248589 0.00118498  0.00001129  0.0090744 0.9200
118  -3165.5748972793  -0.000261988282 0.00113738  0.00000996  0.0060593 0.9200
119  -3165.5750173303  -0.000120051062 0.00102871  0.00000869  0.0038237 0.9200
               *** Restarting incremental Fock matrix formation ***
                                   *** Resetting DIIS ***
120  -3165.5750634231  -0.000046092796 0.01349777  0.00011812  0.0020979 0.0000
121  -3165.5696959983   0.005367424843 0.00023821  0.00000140  0.0260649 0.9200
122  -3165.5698815646  -0.000185566310 0.00027677  0.00000197  0.0255161 0.9200
123  -3165.5701472786  -0.000265713978 0.00027682  0.00000231  0.0247583 0.9200
124  -3165.5704493784  -0.000302099857 0.00026266  0.00000254  0.0238994 0.9200
125  -3165.5707645003  -0.000315121890 0.00208972  0.00001864  0.0229911 0.9200
126  -3165.5723908511  -0.001626350816 0.00160109  0.00001593  0.0164058 0.9200
127  -3165.5733835069  -0.000992655757 0.00153707  0.00001383  0.0118222 0.9200
128  -3165.5739848296  -0.000601322747 0.00137668  0.00001188  0.0083609 0.9200
129  -3165.5743518164  -0.000366986766 0.00117889  0.00001000  0.0056705 0.9200
130  -3165.5745763979  -0.000224581503 0.00097872  0.00000827  0.0035719 0.9200
131  -3165.5747147599  -0.000138362013 0.00994781  0.00008409  0.0019455 0.0000
132  -3165.5741077207   0.000607039212 0.00009328  0.00000080  0.0137305 0.9200
133  -3165.5741418580  -0.000034137335 0.00016692  0.00000142  0.0135481 0.9200
134  -3165.5741987221  -0.000056864097 0.00022329  0.00000188  0.0132382 0.9200
135  -3165.5742695677  -0.000070845596 0.00026510  0.00000222  0.0128398 0.9200
136  -3165.5743479251  -0.000078357398 0.00119379  0.00001148  0.0123813 0.9200
137  -3165.5747630226  -0.000415097520 0.00108412  0.00001011  0.0084115 0.9200
138  -3165.5749727178  -0.000209695160 0.00104702  0.00000906  0.0057372 0.9200
139  -3165.5750708808  -0.000098162966 0.00095369  0.00000801  0.0037211 0.9200
               *** Restarting incremental Fock matrix formation ***
                                   *** Resetting DIIS ***
140  -3165.5751079936  -0.000037112814 0.01275987  0.00011137  0.0021430 0.0000
141  -3165.5703397017   0.004768291860 0.00023690  0.00000133  0.0246149 0.9200
142  -3165.5705025980  -0.000162896245 0.00026938  0.00000184  0.0240961 0.9200
143  -3165.5707338229  -0.000231224908 0.00026943  0.00000211  0.0233869 0.9200
144  -3165.5709953115  -0.000261488631 0.00025563  0.00000230  0.0225889 0.9200
145  -3165.5712671088  -0.000271797246 0.00199099  0.00001759  0.0217494 0.9200
146  -3165.5727144070  -0.001447298222 0.00149864  0.00001492  0.0154957 0.9200
147  -3165.5735934190  -0.000879012024 0.00143456  0.00001288  0.0111696 0.9200
148  -3165.5741245524  -0.000531133436 0.00127979  0.00001101  0.0079160 0.9200
149  -3165.5744485827  -0.000324030219 0.00109098  0.00000922  0.0053959 0.9200
150  -3165.5746473219  -0.000198739213 0.00090091  0.00000758  0.0034367 0.9200
151  -3165.5747704164  -0.000123094554 0.00909672  0.00007653  0.0019236 0.0000
152  -3165.5743106040   0.000459812420 0.00008999  0.00000077  0.0126008 0.9200
153  -3165.5743400364  -0.000029432366 0.00016094  0.00000136  0.0124269 0.9200
154  -3165.5743890642  -0.000049027832 0.00021519  0.00000181  0.0121313 0.9200
155  -3165.5744500597  -0.000060995459 0.00025540  0.00000214  0.0117510 0.9200
156  -3165.5745173733  -0.000067313640 0.00105213  0.00001033  0.0113132 0.9200
157  -3165.5748547168  -0.000337343458 0.00099274  0.00000919  0.0077550 0.9200
158  -3165.5750259642  -0.000171247477 0.00096121  0.00000828  0.0053299 0.9200
159  -3165.5751057779  -0.000079813712 0.00087875  0.00000735  0.0034912 0.9200
               *** Restarting incremental Fock matrix formation ***
                                   *** Resetting DIIS ***
160  -3165.5751349499  -0.000029171912 0.01186028  0.00010330  0.0020456 0.0000
161  -3165.5709791932   0.004155756630 0.00022592  0.00000125  0.0229028 0.9200
162  -3165.5711207436  -0.000141550419 0.00025504  0.00000171  0.0224165 0.9200
163  -3165.5713210032  -0.000200259578 0.00025508  0.00000196  0.0217544 0.9200
164  -3165.5715470549  -0.000226051691 0.00024202  0.00000212  0.0210113 0.9200
165  -3165.5717816954  -0.000234640512 0.00185746  0.00001632  0.0202311 0.9200
166  -3165.5730366649  -0.001254969506 0.00138961  0.00001382  0.0144167 0.9200
167  -3165.5738000658  -0.000763400813 0.00132883  0.00001191  0.0103989 0.9200
168  -3165.5742622671  -0.000462201337 0.00118378  0.00001016  0.0073814 0.9200
169  -3165.5745451670  -0.000282899900 0.00100709  0.00000849  0.0050471 0.9200
170  -3165.5747195184  -0.000174351384 0.00083003  0.00000696  0.0032347 0.9200
171  -3165.5748282072  -0.000108688858 0.00835947  0.00007012  0.0018366 0.0000
172  -3165.5744789789   0.000349228317 0.00008432  0.00000072  0.0115620 0.9200
173  -3165.5745037988  -0.000024819894 0.00015073  0.00000127  0.0113997 0.9200
174  -3165.5745451428  -0.000041344005 0.00020149  0.00000169  0.0111238 0.9200
175  -3165.5745965041  -0.000051361264 0.00023910  0.00000200  0.0107688 0.9200
176  -3165.5746531410  -0.000056636917 0.00094813  0.00000941  0.0103601 0.9200
177  -3165.5749299118  -0.000276770826 0.00091211  0.00000841  0.0071296 0.9200
178  -3165.5750696396  -0.000139727779 0.00088414  0.00000759  0.0049161 0.9200
179  -3165.5751336592  -0.000064019637 0.00080867  0.00000675  0.0032334 0.9200
               *** Restarting incremental Fock matrix formation ***
                                   *** Resetting DIIS ***
180  -3165.5751555913  -0.000021932095 0.01095710  0.00009530  0.0019077 0.0000
181  -3165.5715718905   0.003583700876 0.00021066  0.00000116  0.0211519 0.9200
182  -3165.5716933328  -0.000121442375 0.00023750  0.00000159  0.0207008 0.9200
183  -3165.5718648767  -0.000171543920 0.00023755  0.00000181  0.0200875 0.9200
184  -3165.5720583936  -0.000193516843 0.00022539  0.00000195  0.0194001 0.9200
185  -3165.5722592073  -0.000200813664 0.00172028  0.00001506  0.0186791 0.9200
186  -3165.5733354997  -0.001076292398 0.00128304  0.00001274  0.0133097 0.9200
187  -3165.5739918546  -0.000656354966 0.00122601  0.00001097  0.0096023 0.9200
188  -3165.5743904236  -0.000398569014 0.00109138  0.00000935  0.0068205 0.9200
189  -3165.5746353382  -0.000244914522 0.00092774  0.00000781  0.0046705 0.9200
190  -3165.5747870752  -0.000151737077 0.00076367  0.00000639  0.0030024 0.9200
191  -3165.5748822652  -0.000095190005 0.00768024  0.00006428  0.0017167 0.0000
192  -3165.5746211662   0.000261099062 0.00007815  0.00000066  0.0105939 0.9200
193  -3165.5746418214  -0.000020655228 0.00013963  0.00000118  0.0104439 0.9200
194  -3165.5746762430  -0.000034421631 0.00018657  0.00000156  0.0101889 0.9200
195  -3165.5747189700  -0.000042726927 0.00022134  0.00000185  0.0098608 0.9200
196  -3165.5747660313  -0.000047061312 0.00086013  0.00000859  0.0094829 0.9200
197  -3165.5749928408  -0.000226809553 0.00083815  0.00000770  0.0065396 0.9200
198  -3165.5751060844  -0.000113243556 0.00081262  0.00000696  0.0045170 0.9200
199  -3165.5751566354  -0.000050551048 0.00928647  0.00007734  0.0029770 0.0000
               *** Restarting incremental Fock matrix formation ***
                                   *** Resetting DIIS ***

 WARNING: the maximum gradient error descreased on average only by a factor   1.0
          during the last 200 iterations

                      *** Initiating the TRAH-SCF procedure ***


TRAH GRID
---------

General Integration Accuracy     IntAcc      ... 3.467
Radial Grid Type                 RadialGrid  ... OptM3 with GC (2021)
Angular Grid (max. ang.)         AngularGrid ... 1 (Lebedev-50)
Angular grid pruning method      GridPruning ... 4 (adaptive)
Weight generation scheme         WeightScheme... Becke
Basis function cutoff            BFCut       ... 1.0000e-10
Integration weight cutoff        WCut        ... 1.0000e-14
Angular grids for H and He will be reduced by one unit
Partially contracted basis set               ... off
Rotationally invariant grid construction     ... off

Total number of grid points                  ...    71426
Total number of batches                      ...     1124
Average number of points per batch           ...       63
Average number of grid points per atom       ...     4762

 --------------------------------------------------------------------------------------------
   Iter.        energy            ||Error||_2        Shift      TRadius  Mac/Mic        Rej.
 --------------------------------------------------------------------------------------------
    0      -3165.573739009432     6.043165e-02                     0.400 (TRAH MAcro)   No
    0     dE    -7.105922e-04     3.659490e-02    -7.1049e-04      0.012 (TRAH MIcro)
    0     dE    -1.137783e-03     3.449593e-03    -1.1366e-03      0.033 (TRAH MIcro)
    1      -3165.575172767212     3.558979e-03                     0.480 (TRAH MAcro)   No
    1     dE    -2.606170e-06     7.945372e-03    -2.6062e-06      0.001 (TRAH MIcro)
    1     dE    -4.747822e-06     3.548523e-03    -4.7478e-06      0.003 (TRAH MIcro)
    1     dE    -7.014005e-06     2.707690e-03    -7.0137e-06      0.006 (TRAH MIcro)
    1     dE    -7.818603e-06     2.555223e-03    -7.8180e-06      0.009 (TRAH MIcro)
    1     dE    -8.374090e-06     7.333208e-04    -8.3731e-06      0.011 (TRAH MIcro)
    1     dE    -8.657660e-06     9.001726e-04    -8.6563e-06      0.013 (TRAH MIcro)
    1     dE    -8.788790e-06     5.609528e-04    -8.7872e-06      0.013 (TRAH MIcro)
    1     dE    -8.839376e-06     2.564825e-04    -8.8377e-06      0.014 (TRAH MIcro)
    2      -3165.575215883007     2.647644e-04                           (NR   MAcro)
    2     dE    -1.882678e-08     2.492149e-04                           (NR   MIcro)
    2     dE    -4.322035e-08     1.692357e-04                           (NR   MIcro)
    2     dE    -7.777146e-08     1.834418e-04                           (NR   MIcro)
    2     dE    -9.754755e-08     1.366495e-04                           (NR   MIcro)
    2     dE    -1.028743e-07     9.325158e-05                           (NR   MIcro)
    2     dE    -1.052025e-07     5.608267e-05                           (NR   MIcro)
    2     dE    -1.067354e-07     2.429356e-05                           (NR   MIcro)
    2     dE    -1.069225e-07     1.616706e-05                           (NR   MIcro)
    2     dE    -1.069877e-07     7.017515e-06                           (NR   MIcro)
    2     dE    -1.070009e-07     4.437721e-06                           (NR   MIcro)
    3      -3165.575213699793     1.924694e-05                           (NR   MAcro)
    3     dE    -4.978021e-10     3.852083e-05                           (NR   MIcro)
    3     dE    -2.351298e-09     3.276219e-05                           (NR   MIcro)
    3     dE    -2.755419e-09     2.388898e-05                           (NR   MIcro)
    3     dE    -3.015244e-09     1.162502e-05                           (NR   MIcro)
    3     dE    -3.063896e-09     5.011096e-06                           (NR   MIcro)
    3     dE    -3.073677e-09     2.709502e-06                           (NR   MIcro)
    4      -3165.575213967561     5.040597e-06                           (NR   MAcro)

               *****************************************************
               *                     SUCCESS                       *
               *           SCF CONVERGED AFTER 231 CYCLES          *
               *****************************************************


----------------
TOTAL SCF ENERGY
----------------

Total Energy       :        -3165.57521397 Eh          -86139.68083 eV

Components:
Nuclear Repulsion  :         5764.52453736 Eh          156860.68730 eV
Electronic Energy  :        -8930.09975132 Eh         -243000.36813 eV
One Electron Energy:       -16607.08550096 Eh         -451901.77072 eV
Two Electron Energy:         7676.98574964 Eh          208901.40259 eV

Virial components:
Potential Energy   :        -5069.59275008 Eh         -137950.63200 eV
Kinetic Energy     :         1904.01753611 Eh           51810.95118 eV
Virial Ratio       :            2.66257671


DFT components:
N(Alpha)           :      147.999949007069 electrons
N(Beta)            :      143.999937109132 electrons
N(Total)           :      291.999886116201 electrons
E(X)               :     -224.533533007728 Eh       
E(C)               :      -12.150985484768 Eh       
E(XC)              :     -236.684518492496 Eh       
DFET-embed. en.    :        0.000000000000 Eh       

---------------
SCF CONVERGENCE
---------------

  Last Energy change         ...   -2.6777e-07  Tolerance :   1.0000e-06
  Last Orbital Gradient      ...    5.0406e-06  Tolerance :   5.0000e-05
  Last Orbital Rotation      ...    3.9091e-04

             **** THE GBW FILE WAS UPDATED (scan.gbw) ****
             **** DENSITY scan.scfp WAS UPDATED ****
             **** ENERGY FILE WAS UPDATED (scan.en.tmp) ****
----------------------
UHF SPIN CONTAMINATION
----------------------

Warning: in a DFT calculation there is little theoretical justification to 
         calculate <S**2> as in Hartree-Fock theory. We will do it anyways
         but you should keep in mind that the values have only limited relevance

Expectation value of <S**2>     :     6.386570
Ideal value S*(S+1) for S=2.0   :     6.000000
Deviation                       :     0.386570

             **** THE GBW FILE WAS UPDATED (scan.gbw) ****
             **** DENSITY scan.scfp WAS UPDATED ****
----------------
ORBITAL ENERGIES
----------------
                 SPIN UP ORBITALS
  NO   OCC          E(Eh)            E(eV) 
   0   1.0000    -255.664545     -6956.9860 
   1   1.0000     -29.966707      -815.4356 
   2   1.0000     -25.802167      -702.1127 
   3   1.0000     -25.794530      -701.9049 
   4   1.0000     -25.792095      -701.8386 
   5   1.0000      -4.126060      -112.2758 
   6   1.0000      -4.124223      -112.2258 
   7   1.0000      -4.123442      -112.2046 
   8   1.0000      -4.123066      -112.1943 
   9   1.0000      -4.122392      -112.1760 
  10   1.0000      -4.121577      -112.1538 
  11   1.0000      -4.119465      -112.0963 
  12   1.0000      -4.118391      -112.0671 
  13   1.0000      -4.117386      -112.0398 
  14   1.0000      -4.115968      -112.0012 
  15   1.0000      -4.115955      -112.0008 
  16   1.0000      -4.114539      -111.9623 
  17   1.0000      -4.110277      -111.8463 
  18   1.0000      -4.107767      -111.7780 
  19   1.0000      -3.548085       -96.5483 
  20   1.0000      -2.325506       -63.2802 
  21   1.0000      -2.315646       -63.0119 
  22   1.0000      -2.313318       -62.9486 
  23   1.0000      -2.312820       -62.9350 
  24   1.0000      -2.312384       -62.9232 
  25   1.0000      -2.312014       -62.9131 
  26   1.0000      -2.310908       -62.8830 
  27   1.0000      -2.310873       -62.8821 
  28   1.0000      -2.310208       -62.8640 
  29   1.0000      -2.309856       -62.8544 
  30   1.0000      -2.309354       -62.8407 
  31   1.0000      -2.309182       -62.8360 
  32   1.0000      -2.308804       -62.8258 
  33   1.0000      -2.308217       -62.8098 
  34   1.0000      -2.307960       -62.8028 
  35   1.0000      -2.307716       -62.7961 
  36   1.0000      -2.307285       -62.7844 
  37   1.0000      -2.306748       -62.7698 
  38   1.0000      -2.306582       -62.7653 
  39   1.0000      -2.306048       -62.7508 
  40   1.0000      -2.305193       -62.7275 
  41   1.0000      -2.304953       -62.7210 
  42   1.0000      -2.304780       -62.7163 
  43   1.0000      -2.304238       -62.7015 
  44   1.0000      -2.304160       -62.6994 
  45   1.0000      -2.303948       -62.6936 
  46   1.0000      -2.303452       -62.6801 
  47   1.0000      -2.302919       -62.6656 
  48   1.0000      -2.302597       -62.6569 
  49   1.0000      -2.301850       -62.6365 
  50   1.0000      -2.301665       -62.6315 
  51   1.0000      -2.301325       -62.6222 
  52   1.0000      -2.300719       -62.6057 
  53   1.0000      -2.300442       -62.5982 
  54   1.0000      -2.300050       -62.5876 
  55   1.0000      -2.299935       -62.5844 
  56   1.0000      -2.299413       -62.5702 
  57   1.0000      -2.297717       -62.5241 
  58   1.0000      -2.297582       -62.5204 
  59   1.0000      -2.296265       -62.4845 
  60   1.0000      -2.296114       -62.4804 
  61   1.0000      -2.295022       -62.4507 
  62   1.0000      -2.294256       -62.4299 
  63   1.0000      -2.292650       -62.3862 
  64   1.0000      -2.291847       -62.3643 
  65   1.0000      -0.444732       -12.1018 
  66   1.0000      -0.399663       -10.8754 
  67   1.0000      -0.397449       -10.8151 
  68   1.0000      -0.395239       -10.7550 
  69   1.0000      -0.393761       -10.7148 
  70   1.0000      -0.391511       -10.6535 
  71   1.0000      -0.389084       -10.5875 
  72   1.0000      -0.386416       -10.5149 
  73   1.0000      -0.378387       -10.2964 
  74   1.0000      -0.377202       -10.2642 
  75   1.0000      -0.368278       -10.0214 
  76   1.0000      -0.365955        -9.9582 
  77   1.0000      -0.363866        -9.9013 
  78   1.0000      -0.363134        -9.8814 
  79   1.0000      -0.362394        -9.8612 
  80   1.0000      -0.358641        -9.7591 
  81   1.0000      -0.356767        -9.7081 
  82   1.0000      -0.356140        -9.6911 
  83   1.0000      -0.352736        -9.5984 
  84   1.0000      -0.351180        -9.5561 
  85   1.0000      -0.350810        -9.5460 
  86   1.0000      -0.346851        -9.4383 
  87   1.0000      -0.344179        -9.3656 
  88   1.0000      -0.343744        -9.3538 
  89   1.0000      -0.341535        -9.2937 
  90   1.0000      -0.339644        -9.2422 
  91   1.0000      -0.337184        -9.1752 
  92   1.0000      -0.336406        -9.1541 
  93   1.0000      -0.333260        -9.0685 
  94   1.0000      -0.331253        -9.0138 
  95   1.0000      -0.330283        -8.9875 
  96   1.0000      -0.325183        -8.8487 
  97   1.0000      -0.324619        -8.8333 
  98   1.0000      -0.323265        -8.7965 
  99   1.0000      -0.321092        -8.7373 
 100   1.0000      -0.318408        -8.6643 
 101   1.0000      -0.313683        -8.5358 
 102   1.0000      -0.312050        -8.4913 
 103   1.0000      -0.309331        -8.4173 
 104   1.0000      -0.306202        -8.3322 
 105   1.0000      -0.301455        -8.2030 
 106   1.0000      -0.296929        -8.0798 
 107   1.0000      -0.295084        -8.0297 
 108   1.0000      -0.292489        -7.9590 
 109   1.0000      -0.291728        -7.9383 
 110   1.0000      -0.288042        -7.8380 
 111   1.0000      -0.287553        -7.8247 
 112   1.0000      -0.285642        -7.7727 
 113   1.0000      -0.284610        -7.7446 
 114   1.0000      -0.284342        -7.7374 
 115   1.0000      -0.282878        -7.6975 
 116   1.0000      -0.281238        -7.6529 
 117   1.0000      -0.280324        -7.6280 
 118   1.0000      -0.279281        -7.5996 
 119   1.0000      -0.278213        -7.5705 
 120   1.0000      -0.276266        -7.5176 
 121   1.0000      -0.274706        -7.4751 
 122   1.0000      -0.273224        -7.4348 
 123   1.0000      -0.271938        -7.3998 
 124   1.0000      -0.270745        -7.3673 
 125   1.0000      -0.269811        -7.3419 
 126   1.0000      -0.268562        -7.3079 
 127   1.0000      -0.266760        -7.2589 
 128   1.0000      -0.265569        -7.2265 
 129   1.0000      -0.264769        -7.2047 
 130   1.0000      -0.263539        -7.1712 
 131   1.0000      -0.262277        -7.1369 
 132   1.0000      -0.261729        -7.1220 
 133   1.0000      -0.260396        -7.0857 
 134   1.0000      -0.258028        -7.0213 
 135   1.0000      -0.256682        -6.9847 
 136   1.0000      -0.255811        -6.9610 
 137   1.0000      -0.254626        -6.9287 
 138   1.0000      -0.253751        -6.9049 
 139   1.0000      -0.252972        -6.8837 
 140   1.0000      -0.251582        -6.8459 
 141   1.0000      -0.250674        -6.8212 
 142   1.0000      -0.244341        -6.6489 
 143   1.0000      -0.237118        -6.4523 
 144   1.0000      -0.225346        -6.1320 
 145   1.0000      -0.203769        -5.5448 
 146   1.0000      -0.202388        -5.5073 
 147   1.0000      -0.198475        -5.4008 
 148   0.0000      -0.176847        -4.8122 
 149   0.0000      -0.143552        -3.9062 
 150   0.0000      -0.132908        -3.6166 
 151   0.0000      -0.120605        -3.2818 
 152   0.0000      -0.113547        -3.0898 
 153   0.0000      -0.110887        -3.0174 
 154   0.0000      -0.104607        -2.8465 
 155   0.0000      -0.070024        -1.9054 
 156   0.0000      -0.064769        -1.7624 
 157   0.0000      -0.062606        -1.7036 
 158   0.0000      -0.056570        -1.5393 
 159   0.0000      -0.052672        -1.4333 
 160   0.0000      -0.030962        -0.8425 
 161   0.0000      -0.021548        -0.5863 
 162   0.0000      -0.012408        -0.3376 
 163   0.0000      -0.009822        -0.2673 
 164   0.0000       0.003348         0.0911 
 165   0.0000       0.010913         0.2970 
 166   0.0000       0.011856         0.3226 
 167   0.0000       0.024804         0.6749 
 168   0.0000       0.026999         0.7347 
 169   0.0000       0.039193         1.0665 
 170   0.0000       0.045824         1.2469 
 171   0.0000       0.052084         1.4173 
 172   0.0000       0.053357         1.4519 
 173   0.0000       0.056361         1.5337 
 174   0.0000       0.059297         1.6135 
 175   0.0000       0.063831         1.7369 
 176   0.0000       0.078708         2.1417 
 177   0.0000       0.079796         2.1714 
 178   0.0000       0.081718         2.2237 
 179   0.0000       0.086203         2.3457 
 180   0.0000       0.087575         2.3830 
 181   0.0000       0.089240         2.4283 
 182   0.0000       0.090961         2.4752 
 183   0.0000       0.097239         2.6460 
 184   0.0000       0.101640         2.7658 
 185   0.0000       0.105414         2.8685 
 186   0.0000       0.108712         2.9582 
 187   0.0000       0.113246         3.0816 
 188   0.0000       0.130537         3.5521 
 189   0.0000       0.136186         3.7058 
 190   0.0000       0.141307         3.8452 
 191   0.0000       0.143270         3.8986 
 192   0.0000       0.151971         4.1353 
 193   0.0000       0.153731         4.1832 
 194   0.0000       0.160983         4.3806 
 195   0.0000       0.165709         4.5092 
 196   0.0000       0.168445         4.5836 
 197   0.0000       0.171204         4.6587 
 198   0.0000       0.173472         4.7204 
 199   0.0000       0.177304         4.8247 
 200   0.0000       0.178464         4.8563 
 201   0.0000       0.182638         4.9698 
 202   0.0000       0.184328         5.0158 
 203   0.0000       0.188371         5.1258 
 204   0.0000       0.190432         5.1819 
 205   0.0000       0.194172         5.2837 
 206   0.0000       0.216807         5.8996 
 207   0.0000       0.222847         6.0640 
 208   0.0000       0.226267         6.1570 
 209   0.0000       0.229640         6.2488 
 210   0.0000       0.237334         6.4582 
 211   0.0000       0.239364         6.5134 
 212   0.0000       0.241019         6.5585 
 213   0.0000       0.243638         6.6297 
 214   0.0000       0.248096         6.7510 
 215   0.0000       0.258919         7.0455 
 216   0.0000       0.259988         7.0746 
 217   0.0000       0.263686         7.1753 
 218   0.0000       0.268254         7.2996 
 219   0.0000       0.272227         7.4077 
 220   0.0000       0.279008         7.5922 
 221   0.0000       0.286381         7.7928 
 222   0.0000       0.289676         7.8825 
 223   0.0000       0.292346         7.9552 
 224   0.0000       0.296192         8.0598 
 225   0.0000       0.302874         8.2416 
 226   0.0000       0.305123         8.3028 
 227   0.0000       0.313218         8.5231 
 228   0.0000       0.316506         8.6126 
 229   0.0000       0.318542         8.6680 
 230   0.0000       0.323291         8.7972 
 231   0.0000       0.327572         8.9137 
 232   0.0000       0.332162         9.0386 
 233   0.0000       0.340798         9.2736 
 234   0.0000       0.343304         9.3418 
 235   0.0000       0.351594         9.5673 
 236   0.0000       0.352396         9.5892 
 237   0.0000       0.358071         9.7436 
 238   0.0000       0.358149         9.7457 
 239   0.0000       0.363685         9.8964 
 240   0.0000       0.366530         9.9738 
 241   0.0000       0.376788        10.2529 
 242   0.0000       0.388398        10.5688 
 243   0.0000       0.390111        10.6155 
 244   0.0000       0.392254        10.6738 
 245   0.0000       0.399923        10.8824 
 246   0.0000       0.405040        11.0217 
 247   0.0000       0.405482        11.0337 
 248   0.0000       0.411779        11.2051 
 249   0.0000       0.416180        11.3248 
 250   0.0000       0.421596        11.4722 
 251   0.0000       0.427572        11.6348 
 252   0.0000       0.435327        11.8459 
 253   0.0000       0.438362        11.9284 
 254   0.0000       0.440552        11.9880 
 255   0.0000       0.448250        12.1975 
 256   0.0000       0.458147        12.4668 
 257   0.0000       0.459102        12.4928 
 258   0.0000       0.463719        12.6184 
 259   0.0000       0.467465        12.7204 
 260   0.0000       0.473208        12.8766 
 261   0.0000       0.475225        12.9315 
 262   0.0000       0.477539        12.9945 
 263   0.0000       0.484976        13.1969 
 264   0.0000       0.491646        13.3784 
 265   0.0000       0.495128        13.4731 
 266   0.0000       0.496122        13.5002 
 267   0.0000       0.506751        13.7894 
 268   0.0000       0.508738        13.8435 
 269   0.0000       0.511705        13.9242 
 270   0.0000       0.516722        14.0607 
 271   0.0000       0.521247        14.1839 
 272   0.0000       0.525080        14.2881 
 273   0.0000       0.528749        14.3880 
 274   0.0000       0.533359        14.5134 
 275   0.0000       0.537891        14.6368 
 276   0.0000       0.542607        14.7651 
 277   0.0000       0.545270        14.8376 
 278   0.0000       0.546183        14.8624 
 279   0.0000       0.551479        15.0065 
 280   0.0000       0.557050        15.1581 
 281   0.0000       0.560628        15.2555 
 282   0.0000       0.569341        15.4925 
 283   0.0000       0.575213        15.6523 
 284   0.0000       0.581149        15.8139 
 285   0.0000       0.588021        16.0009 
 286   0.0000       0.592676        16.1275 
 287   0.0000       0.605232        16.4692 
 288   0.0000       0.608978        16.5711 
 289   0.0000       0.626472        17.0472 
 290   0.0000       0.663795        18.0628 
 291   0.0000       0.668557        18.1924 
 292   0.0000       0.692339        18.8395 
 293   0.0000       0.700131        19.0515 
 294   0.0000       0.718887        19.5619 
 295   0.0000       0.725814        19.7504 
 296   0.0000       0.735133        20.0040 
 297   0.0000       0.744715        20.2647 
 298   0.0000       0.747612        20.3436 
 299   0.0000       0.755895        20.5689 
 300   0.0000       0.762690        20.7538 
 301   0.0000       0.775240        21.0954 
 302   0.0000       0.783935        21.3319 
 303   0.0000       0.788363        21.4524 
 304   0.0000       0.797464        21.7001 
 305   0.0000       0.805756        21.9257 
 306   0.0000       0.814440        22.1620 
 307   0.0000       0.820064        22.3151 
 308   0.0000       0.827450        22.5161 
 309   0.0000       0.839493        22.8438 
 310   0.0000       0.847256        23.0550 
 311   0.0000       0.853443        23.2234 
 312   0.0000       0.865053        23.5393 
 313   0.0000       0.869634        23.6639 
 314   0.0000       0.870390        23.6845 
 315   0.0000       0.885938        24.1076 
 316   0.0000       0.896657        24.3993 
 317   0.0000       0.902629        24.5618 
 318   0.0000       0.912080        24.8190 
 319   0.0000       0.922806        25.1108 
 320   0.0000       0.926422        25.2092 
 321   0.0000       0.933620        25.4051 
 322   0.0000       0.944162        25.6919 
 323   0.0000       0.947826        25.7917 
 324   0.0000       0.949389        25.8342 
 325   0.0000       0.965110        26.2620 
 326   0.0000       0.972237        26.4559 
 327   0.0000       0.986222        26.8365 
 328   0.0000       0.988903        26.9094 
 329   0.0000       1.028073        27.9753 
 330   0.0000       1.098982        29.9048 
 331   0.0000       1.124913        30.6105 
 332   0.0000       1.145250        31.1638 
 333   0.0000       1.199500        32.6400 
 334   0.0000       1.234943        33.6045 
 335   0.0000       1.244280        33.8586 
 336   0.0000       1.259631        34.2763 
 337   0.0000       1.261625        34.3306 
 338   0.0000       1.277891        34.7732 
 339   0.0000       1.292638        35.1745 
 340   0.0000       1.296225        35.2721 
 341   0.0000       1.308098        35.5952 
 342   0.0000       1.317850        35.8605 
 343   0.0000       1.325299        36.0632 
 344   0.0000       1.326899        36.1068 
 345   0.0000       1.336646        36.3720 
 346   0.0000       1.344377        36.5823 
 347   0.0000       1.354015        36.8446 
 348   0.0000       1.363147        37.0931 
 349   0.0000       1.371632        37.3240 
 350   0.0000       1.379894        37.5488 
 351   0.0000       1.396535        38.0017 
 352   0.0000       1.400147        38.0999 
 353   0.0000       1.402405        38.1614 
 354   0.0000       1.407677        38.3049 
 355   0.0000       1.427247        38.8374 
 356   0.0000       1.430273        38.9197 
 357   0.0000       1.435679        39.0668 
 358   0.0000       1.444741        39.3134 
 359   0.0000       1.452233        39.5173 
 360   0.0000       1.457527        39.6613 
 361   0.0000       1.460935        39.7541 
 362   0.0000       1.463214        39.8161 
 363   0.0000       1.465750        39.8851 
 364   0.0000       1.472545        40.0700 
 365   0.0000       1.476067        40.1658 
 366   0.0000       1.477575        40.2069 
 367   0.0000       1.479382        40.2560 
 368   0.0000       1.483802        40.3763 
 369   0.0000       1.486648        40.4538 
 370   0.0000       1.488319        40.4992 
 371   0.0000       1.490212        40.5507 
 372   0.0000       1.495410        40.6922 
 373   0.0000       1.501106        40.8472 
 374   0.0000       1.507006        41.0077 
 375   0.0000       1.508970        41.0612 
 376   0.0000       1.511958        41.1425 
 377   0.0000       1.514860        41.2214 
 378   0.0000       1.518161        41.3113 
 379   0.0000       1.519947        41.3599 
 380   0.0000       1.524173        41.4749 
 381   0.0000       1.528639        41.5964 
 382   0.0000       1.532631        41.7050 
 383   0.0000       1.532884        41.7119 
 384   0.0000       1.537675        41.8423 
 385   0.0000       1.539402        41.8893 
 386   0.0000       1.541328        41.9417 
 387   0.0000       1.544644        42.0319 
 388   0.0000       1.546997        42.0959 
 389   0.0000       1.550379        42.1880 
 390   0.0000       1.552008        42.2323 
 391   0.0000       1.552546        42.2469 
 392   0.0000       1.554126        42.2899 
 393   0.0000       1.555879        42.3376 
 394   0.0000       1.557321        42.3769 
 395   0.0000       1.558770        42.4163 
 396   0.0000       1.560662        42.4678 
 397   0.0000       1.562056        42.5057 
 398   0.0000       1.563460        42.5439 
 399   0.0000       1.564078        42.5607 
 400   0.0000       1.565892        42.6101 
 401   0.0000       1.566838        42.6358 
 402   0.0000       1.567439        42.6522 
 403   0.0000       1.571580        42.7649 
 404   0.0000       1.572552        42.7913 
 405   0.0000       1.573464        42.8161 
 406   0.0000       1.574182        42.8357 
 407   0.0000       1.575281        42.8656 
 408   0.0000       1.577150        42.9164 
 409   0.0000       1.579023        42.9674 
 410   0.0000       1.580409        43.0051 
 411   0.0000       1.581792        43.0427 
 412   0.0000       1.582497        43.0619 
 413   0.0000       1.583795        43.0973 
 414   0.0000       1.585184        43.1350 
 415   0.0000       1.585824        43.1525 
 416   0.0000       1.587114        43.1876 
 417   0.0000       1.590583        43.2820 
 418   0.0000       1.591869        43.3169 
 419   0.0000       1.593157        43.3520 
 420   0.0000       1.595354        43.4118 
 421   0.0000       1.596300        43.4375 
 422   0.0000       1.600780        43.5594 
 423   0.0000       1.601814        43.5876 
 424   0.0000       1.604150        43.6511 
 425   0.0000       1.604810        43.6691 
 426   0.0000       1.606815        43.7237 
 427   0.0000       1.607458        43.7412 
 428   0.0000       1.612439        43.8767 
 429   0.0000       1.614517        43.9332 
 430   0.0000       1.617012        44.0011 
 431   0.0000       1.619011        44.0555 
 432   0.0000       1.621365        44.1196 
 433   0.0000       1.624375        44.2015 
 434   0.0000       1.627538        44.2876 
 435   0.0000       1.629077        44.3295 
 436   0.0000       1.630567        44.3700 
 437   0.0000       1.636709        44.5371 
 438   0.0000       1.637032        44.5459 
 439   0.0000       1.639801        44.6213 
 440   0.0000       1.641368        44.6639 
 441   0.0000       1.643068        44.7101 
 442   0.0000       1.644259        44.7426 
 443   0.0000       1.645919        44.7877 
 444   0.0000       1.647225        44.8233 
 445   0.0000       1.650908        44.9235 
 446   0.0000       1.653551        44.9954 
 447   0.0000       1.654925        45.0328 
 448   0.0000       1.657506        45.1030 
 449   0.0000       1.661125        45.2015 
 450   0.0000       1.662880        45.2493 
 451   0.0000       1.668734        45.4086 
 452   0.0000       1.672175        45.5022 
 453   0.0000       1.679070        45.6898 
 454   0.0000       1.679843        45.7108 
 455   0.0000       1.684095        45.8266 
 456   0.0000       1.685564        45.8665 
 457   0.0000       1.690886        46.0113 
 458   0.0000       1.692226        46.0478 
 459   0.0000       1.695082        46.1255 
 460   0.0000       1.696913        46.1754 
 461   0.0000       1.702969        46.3401 
 462   0.0000       1.706861        46.4460 
 463   0.0000       1.709383        46.5147 
 464   0.0000       1.712274        46.5933 
 465   0.0000       1.717150        46.7260 
 466   0.0000       1.724165        46.9169 
 467   0.0000       1.728857        47.0446 
 468   0.0000       1.738492        47.3068 
 469   0.0000       1.744462        47.4692 
 470   0.0000       1.751007        47.6473 
 471   0.0000       1.754774        47.7498 
 472   0.0000       1.762855        47.9697 
 473   0.0000       1.770147        48.1682 
[...]
      f-1     :     0.000609
      f+2     :     0.000624
      f-2     :     0.000691
      f+3     :     0.000934
      f-3     :     0.000581
  5 Aus       :     2.511651  s :     2.511651
      pz      :     2.214698  p :     6.525425
      px      :     2.150555
      py      :     2.160172
      dz2     :     1.974116  d :     9.896701
      dxz     :     1.991796
      dyz     :     1.978147
      dx2y2   :     1.999472
      dxy     :     1.953171
      f0      :     0.000972  f :     0.006322
      f+1     :     0.000947
      f-1     :     0.000714
      f+2     :     0.001190
      f-2     :     0.000727
      f+3     :     0.000960
      f-3     :     0.000811
  6 Aus       :     2.598823  s :     2.598823
      pz      :     2.219604  p :     6.470774
      px      :     2.089506
      py      :     2.161663
      dz2     :     1.962822  d :     9.876507
      dxz     :     1.991577
      dyz     :     1.983631
      dx2y2   :     1.946912
      dxy     :     1.991566
      f0      :     0.001065  f :     0.005212
      f+1     :     0.001016
      f-1     :     0.000568
      f+2     :     0.000622
      f-2     :     0.000615
      f+3     :     0.000732
      f-3     :     0.000593
  7 Aus       :     2.534733  s :     2.534733
      pz      :     2.138485  p :     6.558936
      px      :     2.177979
      py      :     2.242473
      dz2     :     1.986415  d :     9.897271
      dxz     :     1.957272
      dyz     :     1.984953
      dx2y2   :     1.984582
      dxy     :     1.984049
      f0      :     0.000709  f :     0.006169
      f+1     :     0.000740
      f-1     :     0.000931
      f+2     :     0.000529
      f-2     :     0.000829
      f+3     :     0.001587
      f-3     :     0.000844
  8 Aus       :     2.596825  s :     2.596825
      pz      :     2.172828  p :     6.449341
      px      :     2.153190
      py      :     2.123322
      dz2     :     1.973098  d :     9.871251
      dxz     :     1.969605
      dyz     :     1.971706
      dx2y2   :     1.978944
      dxy     :     1.977897
      f0      :     0.000951  f :     0.005692
      f+1     :     0.001002
      f-1     :     0.000764
      f+2     :     0.000630
      f-2     :     0.000830
      f+3     :     0.000874
      f-3     :     0.000642
  9 Aus       :     2.569548  s :     2.569548
      pz      :     2.193754  p :     6.515852
      px      :     2.110963
      py      :     2.211136
      dz2     :     1.981363  d :     9.878162
      dxz     :     1.965246
      dyz     :     1.985261
      dx2y2   :     1.957198
      dxy     :     1.989096
      f0      :     0.000795  f :     0.005921
      f+1     :     0.000773
      f-1     :     0.001126
      f+2     :     0.000659
      f-2     :     0.000869
      f+3     :     0.000900
      f-3     :     0.000799
 10 Aus       :     2.563702  s :     2.563702
      pz      :     2.127606  p :     6.486794
      px      :     2.220444
      py      :     2.138745
      dz2     :     1.998453  d :     9.933370
      dxz     :     1.995995
      dyz     :     1.981878
      dx2y2   :     1.984706
      dxy     :     1.972339
      f0      :     0.000854  f :     0.005336
      f+1     :     0.000816
      f-1     :     0.000604
      f+2     :     0.000804
      f-2     :     0.000584
      f+3     :     0.001043
      f-3     :     0.000630
 11 Aus       :     2.660923  s :     2.660923
      pz      :     2.148832  p :     6.362692
      px      :     2.106822
      py      :     2.107038
      dz2     :     1.974379  d :     9.891536
      dxz     :     1.984822
      dyz     :     1.976925
      dx2y2   :     1.977563
      dxy     :     1.977847
      f0      :     0.000687  f :     0.004962
      f+1     :     0.000683
      f-1     :     0.000768
      f+2     :     0.000800
      f-2     :     0.000613
      f+3     :     0.000853
      f-3     :     0.000558
 12 Aus       :     2.530848  s :     2.530848
      pz      :     2.134641  p :     6.542519
      px      :     2.190956
      py      :     2.216921
      dz2     :     1.978443  d :     9.878116
      dxz     :     1.963264
      dyz     :     1.982930
      dx2y2   :     1.972545
      dxy     :     1.980934
      f0      :     0.000911  f :     0.006315
      f+1     :     0.000992
      f-1     :     0.000843
      f+2     :     0.000894
      f-2     :     0.000771
      f+3     :     0.001165
      f-3     :     0.000739
 13 Aus       :     2.518243  s :     2.518243
      pz      :     2.197443  p :     6.506674
      px      :     2.152907
      py      :     2.156324
      dz2     :     1.973810  d :     9.892995
      dxz     :     1.989453
      dyz     :     1.982564
      dx2y2   :     1.996146
      dxy     :     1.951022
      f0      :     0.000652  f :     0.006189
      f+1     :     0.000874
      f-1     :     0.000953
      f+2     :     0.000919
      f-2     :     0.000815
      f+3     :     0.001091
      f-3     :     0.000886
 14 Fes       :     6.253583  s :     6.253583
      pz      :     4.170902  p :    12.532286
      px      :     4.188409
      py      :     4.172974
      dz2     :     1.442683  d :     7.785270
      dxz     :     1.595899
      dyz     :     1.795882
      dx2y2   :     1.422959
      dxy     :     1.527847
      f0      :     0.000072  f :     0.000535
      f+1     :     0.000099
      f-1     :     0.000073
      f+2     :     0.000070
      f-2     :     0.000077
      f+3     :     0.000082
      f-3     :     0.000063

SPIN
  0 Aus       :    -0.015553  s :    -0.015553
      pz      :    -0.027874  p :    -0.044734
      px      :    -0.014682
      py      :    -0.002178
      dz2     :    -0.005193  d :    -0.014579
      dxz     :    -0.009561
      dyz     :    -0.003172
      dx2y2   :     0.002695
      dxy     :     0.000652
      f0      :    -0.000019  f :    -0.000027
      f+1     :     0.000004
      f-1     :     0.000022
      f+2     :    -0.000036
      f-2     :    -0.000024
      f+3     :     0.000019
      f-3     :     0.000008
  1 Aus       :    -0.001728  s :    -0.001728
      pz      :    -0.002412  p :    -0.028493
      px      :    -0.031666
      py      :     0.005585
      dz2     :    -0.005414  d :     0.004545
      dxz     :    -0.002812
      dyz     :     0.012558
      dx2y2   :    -0.001080
      dxy     :     0.001293
      f0      :     0.000008  f :    -0.000004
      f+1     :    -0.000030
      f-1     :     0.000008
      f+2     :     0.000040
      f-2     :    -0.000023
      f+3     :    -0.000006
      f-3     :    -0.000001
  2 Aus       :    -0.016597  s :    -0.016597
      pz      :     0.003361  p :    -0.026184
      px      :     0.005074
      py      :    -0.034619
      dz2     :     0.012713  d :    -0.003637
      dxz     :     0.005151
      dyz     :    -0.009840
      dx2y2   :    -0.007265
      dxy     :    -0.004395
      f0      :     0.000088  f :     0.000042
      f+1     :     0.000024
      f-1     :    -0.000002
      f+2     :    -0.000029
      f-2     :    -0.000024
      f+3     :    -0.000013
      f-3     :    -0.000002
  3 Aus       :    -0.076759  s :    -0.076759
      pz      :    -0.004637  p :    -0.027742
      px      :    -0.010293
      py      :    -0.012811
      dz2     :    -0.008003  d :    -0.022503
      dxz     :    -0.003846
      dyz     :     0.000623
      dx2y2   :    -0.009427
      dxy     :    -0.001849
      f0      :    -0.000012  f :    -0.000082
      f+1     :    -0.000018
      f-1     :     0.000001
      f+2     :    -0.000004
      f-2     :     0.000013
      f+3     :    -0.000042
      f-3     :    -0.000019
  4 Aus       :    -0.000063  s :    -0.000063
      pz      :     0.002358  p :    -0.032257
      px      :    -0.013185
      py      :    -0.021430
      dz2     :    -0.003164  d :    -0.036983
      dxz     :    -0.001999
      dyz     :    -0.010368
      dx2y2   :    -0.004269
      dxy     :    -0.017183
      f0      :    -0.000011  f :    -0.000125
      f+1     :    -0.000002
      f-1     :    -0.000017
      f+2     :    -0.000011
      f-2     :    -0.000027
      f+3     :    -0.000028
      f-3     :    -0.000028
  5 Aus       :    -0.051509  s :    -0.051509
      pz      :    -0.016908  p :    -0.040838
      px      :    -0.011202
      py      :    -0.012729
      dz2     :     0.003164  d :     0.008239
      dxz     :    -0.001318
      dyz     :    -0.002070
      dx2y2   :    -0.003344
      dxy     :     0.011807
      f0      :     0.000009  f :     0.000066
      f+1     :     0.000013
      f-1     :     0.000007
      f+2     :    -0.000022
      f-2     :     0.000014
      f+3     :     0.000041
      f-3     :     0.000003
  6 Aus       :    -0.007940  s :    -0.007940
      pz      :    -0.008337  p :    -0.027792
      px      :     0.001362
      py      :    -0.020817
      dz2     :     0.001650  d :     0.002747
      dxz     :    -0.001012
      dyz     :    -0.009008
      dx2y2   :     0.011990
      dxy     :    -0.000873
      f0      :    -0.000024  f :     0.000041
      f+1     :     0.000027
      f-1     :    -0.000009
      f+2     :    -0.000028
      f-2     :    -0.000023
      f+3     :     0.000056
      f-3     :     0.000042
  7 Aus       :    -0.048298  s :    -0.048298
      pz      :     0.003053  p :    -0.021747
      px      :    -0.021443
      py      :    -0.003356
      dz2     :     0.002899  d :    -0.008907
      dxz     :     0.011453
      dyz     :    -0.011444
      dx2y2   :    -0.003504
      dxy     :    -0.008311
      f0      :     0.000015  f :     0.000017
      f+1     :     0.000054
      f-1     :    -0.000048
      f+2     :     0.000051
      f-2     :    -0.000065
      f+3     :     0.000020
      f-3     :    -0.000010
  8 Aus       :     0.009692  s :     0.009692
      pz      :    -0.031325  p :    -0.069191
      px      :    -0.034760
      py      :    -0.003106
      dz2     :    -0.025536  d :    -0.035366
      dxz     :    -0.001005
      dyz     :     0.004472
      dx2y2   :    -0.002185
      dxy     :    -0.011113
      f0      :    -0.000002  f :    -0.000104
      f+1     :    -0.000016
      f-1     :    -0.000006
      f+2     :     0.000005
      f-2     :    -0.000019
      f+3     :    -0.000022
      f-3     :    -0.000044
  9 Aus       :    -0.013946  s :    -0.013946
      pz      :    -0.012095  p :    -0.031892
      px      :     0.003223
      py      :    -0.023020
      dz2     :     0.001860  d :    -0.003087
      dxz     :     0.006099
      dyz     :    -0.012020
      dx2y2   :     0.003475
      dxy     :    -0.002501
      f0      :     0.000023  f :     0.000003
      f+1     :     0.000006
      f-1     :    -0.000038
      f+2     :     0.000026
      f-2     :    -0.000035
      f+3     :     0.000024
      f-3     :    -0.000002
 10 Aus       :    -0.090650  s :    -0.090650
      pz      :    -0.001018  p :    -0.027102
      px      :    -0.000539
      py      :    -0.025545
      dz2     :    -0.003916  d :    -0.031403
      dxz     :    -0.005218
      dyz     :    -0.007830
      dx2y2   :    -0.008049
      dxy     :    -0.006390
      f0      :    -0.000010  f :    -0.000063
      f+1     :    -0.000013
      f-1     :    -0.000011
      f+2     :    -0.000008
      f-2     :    -0.000008
      f+3     :    -0.000010
      f-3     :    -0.000004
 11 Aus       :     0.005506  s :     0.005506
      pz      :    -0.011712  p :    -0.050592
      px      :    -0.008842
      py      :    -0.030037
      dz2     :    -0.015527  d :    -0.049553
      dxz     :    -0.003281
      dyz     :    -0.001349
      dx2y2   :    -0.018820
      dxy     :    -0.010576
      f0      :    -0.000020  f :    -0.000130
      f+1     :    -0.000030
      f-1     :    -0.000017
      f+2     :    -0.000004
      f-2     :    -0.000012
      f+3     :    -0.000038
      f-3     :    -0.000010
 12 Aus       :    -0.034398  s :    -0.034398
      pz      :     0.002833  p :    -0.023574
      px      :     0.006422
      py      :    -0.032828
      dz2     :     0.004655  d :    -0.007382
      dxz     :     0.007981
      dyz     :    -0.002926
      dx2y2   :    -0.008232
      dxy     :    -0.008861
      f0      :    -0.000008  f :     0.000020
      f+1     :     0.000052
      f-1     :    -0.000004
      f+2     :     0.000006
      f-2     :    -0.000006
      f+3     :    -0.000005
      f-3     :    -0.000015
 13 Aus       :    -0.071089  s :    -0.071089
      pz      :    -0.019226  p :    -0.048828
      px      :    -0.014688
      py      :    -0.014914
      dz2     :     0.001395  d :     0.001287
      dxz     :    -0.001396
      dyz     :    -0.006021
      dx2y2   :    -0.003926
      dxy     :     0.011235
      f0      :    -0.000009  f :     0.000046
      f+1     :     0.000005
      f-1     :     0.000010
      f+2     :    -0.000022
      f-2     :     0.000009
      f+3     :     0.000027
      f-3     :     0.000026
 14 Fes       :     0.008986  s :     0.008986
      pz      :     0.002523  p :     0.012008
      px      :     0.004581
      py      :     0.004904
      dz2     :     0.783044  d :     3.090166
      dxz     :     0.597678
      dyz     :     0.316603
      dx2y2   :     0.772644
      dxy     :     0.620198
      f0      :    -0.000002  f :     0.000021
      f+1     :     0.000002
      f-1     :     0.000003
      f+2     :     0.000001
      f-2     :     0.000012
      f+3     :     0.000006
      f-3     :    -0.000001


                      *****************************
                      * MAYER POPULATION ANALYSIS *
                      *****************************

  NA   - Mulliken gross atomic population
  ZA   - Total nuclear charge
  QA   - Mulliken gross atomic charge
  VA   - Mayer's total valence
  BVA  - Mayer's bonded valence
  FA   - Mayer's free valence

  ATOM       NA         ZA         QA         VA         BVA        FA
  0 Au    18.9511    19.0000     0.0489     1.7749     1.7704     0.0045
  1 Au    18.8815    19.0000     0.1185     1.6874     1.6833     0.0041
  2 Au    18.8396    19.0000     0.1604     1.6512     1.6458     0.0053
  3 Au    18.8545    19.0000     0.1455     1.6631     1.6289     0.0342
  4 Au    18.7270    19.0000     0.2730     1.5191     1.5157     0.0034
  5 Au    18.7279    19.0000     0.2721     1.5911     1.5753     0.0158
  6 Au    18.8955    19.0000     0.1045     1.6043     1.5989     0.0054
  7 Au    19.0587    19.0000    -0.0587     1.8961     1.8748     0.0213
  8 Au    18.7469    19.0000     0.2531     1.5807     1.5725     0.0082
  9 Au    18.9365    19.0000     0.0635     1.7134     1.7076     0.0058
 10 Au    18.8548    19.0000     0.1452     1.6156     1.5645     0.0511
 11 Au    18.6759    19.0000     0.3241     1.4920     1.4890     0.0031
 12 Au    18.7902    19.0000     0.2098     1.6423     1.6291     0.0132
 13 Au    18.7038    19.0000     0.2962     1.5597     1.5339     0.0258
 14 Fe    28.3561    26.0000    -2.3561     7.8124     5.1404     2.6721

  Mayer bond orders larger than 0.100000
B(  0-Au,  1-Au) :   0.3455 B(  0-Au,  5-Au) :   0.1778 B(  0-Au,  9-Au) :   0.1762 
B(  0-Au, 10-Au) :   0.1761 B(  0-Au, 11-Au) :   0.2905 B(  0-Au, 14-Fe) :   0.3762 
B(  1-Au,  2-Au) :   0.1641 B(  1-Au,  4-Au) :   0.2954 B(  1-Au,  5-Au) :   0.1503 
B(  1-Au, 14-Fe) :   0.4659 B(  2-Au,  3-Au) :   0.1065 B(  2-Au,  4-Au) :   0.2945 
B(  2-Au,  9-Au) :   0.2448 B(  2-Au, 13-Au) :   0.1862 B(  2-Au, 14-Fe) :   0.4277 
B(  3-Au,  4-Au) :   0.2766 B(  3-Au,  6-Au) :   0.2331 B(  3-Au,  8-Au) :   0.2851 
B(  3-Au, 13-Au) :   0.1801 B(  3-Au, 14-Fe) :   0.3091 B(  4-Au,  6-Au) :   0.2155 
B(  4-Au, 14-Fe) :   0.1309 B(  5-Au,  6-Au) :   0.1998 B(  5-Au, 10-Au) :   0.2131 
B(  5-Au, 12-Au) :   0.1707 B(  5-Au, 14-Fe) :   0.4745 B(  6-Au, 12-Au) :   0.1777 
B(  6-Au, 14-Fe) :   0.4905 B(  7-Au,  8-Au) :   0.3016 B(  7-Au, 10-Au) :   0.2764 
B(  7-Au, 11-Au) :   0.3132 B(  7-Au, 12-Au) :   0.1397 B(  7-Au, 13-Au) :   0.1013 
B(  7-Au, 14-Fe) :   0.4565 B(  8-Au, 12-Au) :   0.1826 B(  8-Au, 13-Au) :   0.1763 
B(  8-Au, 14-Fe) :   0.3686 B(  9-Au, 11-Au) :   0.2867 B(  9-Au, 13-Au) :   0.2349 
B(  9-Au, 14-Fe) :   0.4733 B( 10-Au, 11-Au) :   0.2230 B( 10-Au, 12-Au) :   0.2964 
B( 10-Au, 14-Fe) :   0.1590 B( 12-Au, 14-Fe) :   0.4635 B( 13-Au, 14-Fe) :   0.4669 


-------
TIMINGS
-------

Total SCF time: 0 days 0 hours 15 min 21 sec 

Total time                  ....     921.278 sec
Sum of individual times     ....     909.662 sec  ( 98.7%)

Fock matrix formation       ....     741.573 sec  ( 80.5%)
  Split-RI-J                ....     153.941 sec  ( 20.8% of F)
  XC integration            ....     576.080 sec  ( 77.7% of F)
    Basis function eval.    ....      34.500 sec  (  6.0% of XC)
    Density eval.           ....     320.779 sec  ( 55.7% of XC)
    XC-Functional eval.     ....      15.446 sec  (  2.7% of XC)
    XC-Potential eval.      ....     168.567 sec  ( 29.3% of XC)
Diagonalization             ....     114.333 sec  ( 12.4%)
Density matrix formation    ....       2.445 sec  (  0.3%)
Population analysis         ....       0.600 sec  (  0.1%)
Initial guess               ....       0.836 sec  (  0.1%)
Orbital Transformation      ....       0.000 sec  (  0.0%)
Orbital Orthonormalization  ....       0.751 sec  (  0.1%)
DIIS solution               ....      46.948 sec  (  5.1%)
Grid generation             ....       2.927 sec  (  0.3%)

Maximum memory used throughout the entire SCF-calculation: 98.2 MB

-------------------------   --------------------
FINAL SINGLE POINT ENERGY     -3165.554646468182
-------------------------   --------------------


                            ***************************************
                            *     ORCA property calculations      *
                            ***************************************

                                    ---------------------
                                    Active property flags
                                    ---------------------
   (+) Dipole Moment


------------------------------------------------------------------------------
                       ORCA ELECTRIC PROPERTIES CALCULATION
------------------------------------------------------------------------------

Dipole Moment Calculation                       ... on
Quadrupole Moment Calculation                   ... off
Polarizability Calculation                      ... off
GBWName                                         ... scan_job2.gbw
Electron density                                ... scan_job2.scfp
The origin for moment calculation is the CENTER OF MASS  = (14.808071, 14.884756 13.980471)

-------------
DIPOLE MOMENT
-------------
                                X             Y             Z
Electronic contribution:     -4.12705      -4.91127       4.20624
Nuclear contribution   :      4.08258       5.01367      -4.13844
                        -----------------------------------------
Total Dipole Moment    :     -0.04447       0.10240       0.06780
                        -----------------------------------------
Magnitude (a.u.)       :      0.13062
Magnitude (Debye)      :      0.33200



--------------------
Rotational spectrum 
--------------------
 
Rotational constants in cm-1:     0.001254     0.000970     0.000958 
Rotational constants in MHz :    37.594930    29.086374    28.731432 

 Dipole components along the rotational axes: 
x,y,z [a.u.] :     0.016846     0.127759    -0.021313 
x,y,z [Debye]:     0.042819     0.324737    -0.054174 

 

Timings for individual modules:

Sum of individual times         ...      952.618 sec (=  15.877 min)
GTO integral calculation        ...       30.785 sec (=   0.513 min)   3.2 %
SCF iterations                  ...      921.834 sec (=  15.364 min)  96.8 %



                             ****ORCA TERMINATED NORMALLY****
TOTAL RUN TIME: 0 days 0 hours 36 minutes 26 seconds 387 msec
