
                                 *****************
                                 * O   R   C   A *
                                 *****************

                                            #,                                       
                                            ###                                      
                                            ####                                     
                                            #####                                    
                                            ######                                   
                                           ########,                                 
                                     ,,################,,,,,                         
                               ,,#################################,,                 
                          ,,##########################################,,             
                       ,#########################################, ''#####,          
                    ,#############################################,,   '####,        
                  ,##################################################,,,,####,       
                ,###########''''           ''''###############################       
              ,#####''   ,,,,##########,,,,          '''####'''          '####       
            ,##' ,,,,###########################,,,                        '##       
           ' ,,###''''                  '''############,,,                           
         ,,##''                                '''############,,,,        ,,,,,,###''
      ,#''                                            '''#######################'''  
     '                                                          ''''####''''         
             ,#######,   #######,   ,#######,      ##                                
            ,#'     '#,  ##    ##  ,#'     '#,    #''#        ######   ,####,        
            ##       ##  ##   ,#'  ##            #'  '#       #        #'  '#        
            ##       ##  #######   ##           ,######,      #####,   #    #        
            '#,     ,#'  ##    ##  '#,     ,#' ,#      #,         ##   #,  ,#        
             '#######'   ##     ##  '#######'  #'      '#     #####' # '####'        



                  #######################################################
                  #                        -***-                        #
                  #          Department of theory and spectroscopy      #
                  #    Directorship and core code : Frank Neese         #
                  #        Max Planck Institute fuer Kohlenforschung    #
                  #                Kaiser Wilhelm Platz 1               #
                  #                 D-45470 Muelheim/Ruhr               #
                  #                      Germany                        #
                  #                                                     #
                  #                  All rights reserved                #
                  #                        -***-                        #
                  #######################################################


                         Program Version 5.0.3 -  RELEASE  -


 With contributions from (in alphabetic order):
   Daniel Aravena         : Magnetic Suceptibility
   Michael Atanasov       : Ab Initio Ligand Field Theory (pilot matlab implementation)
   Alexander A. Auer      : GIAO ZORA, VPT2 properties, NMR spectrum
   Ute Becker             : Parallelization
   Giovanni Bistoni       : ED, misc. LED, open-shell LED, HFLD
   Martin Brehm           : Molecular dynamics
   Dmytro Bykov           : SCF Hessian
   Vijay G. Chilkuri      : MRCI spin determinant printing, contributions to CSF-ICE
   Dipayan Datta          : RHF DLPNO-CCSD density
   Achintya Kumar Dutta   : EOM-CC, STEOM-CC
   Dmitry Ganyushin       : Spin-Orbit,Spin-Spin,Magnetic field MRCI
   Miquel Garcia          : C-PCM and meta-GGA Hessian, CC/C-PCM, Gaussian charge scheme
   Yang Guo               : DLPNO-NEVPT2, F12-NEVPT2, CIM, IAO-localization
   Andreas Hansen         : Spin unrestricted coupled pair/coupled cluster methods
   Benjamin Helmich-Paris : MC-RPA, TRAH-SCF, COSX integrals
   Lee Huntington         : MR-EOM, pCC
   Robert Izsak           : Overlap fitted RIJCOSX, COSX-SCS-MP3, EOM
   Marcus Kettner         : VPT2
   Christian Kollmar      : KDIIS, OOCD, Brueckner-CCSD(T), CCSD density, CASPT2, CASPT2-K
   Simone Kossmann        : Meta GGA functionals, TD-DFT gradient, OOMP2, MP2 Hessian
   Martin Krupicka        : Initial AUTO-CI
   Lucas Lang             : DCDCAS
   Marvin Lechner         : AUTO-CI (C++ implementation), FIC-MRCC
   Dagmar Lenk            : GEPOL surface, SMD
   Dimitrios Liakos       : Extrapolation schemes; Compound Job, initial MDCI parallelization
   Dimitrios Manganas     : Further ROCIS development; embedding schemes
   Dimitrios Pantazis     : SARC Basis sets
   Anastasios Papadopoulos: AUTO-CI, single reference methods and gradients
   Taras Petrenko         : DFT Hessian,TD-DFT gradient, ASA, ECA, R-Raman, ABS, FL, XAS/XES, NRVS
   Peter Pinski           : DLPNO-MP2, DLPNO-MP2 Gradient
   Christoph Reimann      : Effective Core Potentials
   Marius Retegan         : Local ZFS, SOC
   Christoph Riplinger    : Optimizer, TS searches, QM/MM, DLPNO-CCSD(T), (RO)-DLPNO pert. Triples
   Tobias Risthaus        : Range-separated hybrids, TD-DFT gradient, RPA, STAB
   Michael Roemelt        : Original ROCIS implementation
   Masaaki Saitow         : Open-shell DLPNO-CCSD energy and density
   Barbara Sandhoefer     : DKH picture change effects
   Avijit Sen             : IP-ROCIS
   Kantharuban Sivalingam : CASSCF convergence, NEVPT2, FIC-MRCI
   Bernardo de Souza      : ESD, SOC TD-DFT
   Georgi Stoychev        : AutoAux, RI-MP2 NMR, DLPNO-MP2 response
   Willem Van den Heuvel  : Paramagnetic NMR
   Boris Wezisla          : Elementary symmetry handling
   Frank Wennmohs         : Technical directorship


 We gratefully acknowledge several colleagues who have allowed us to
 interface, adapt or use parts of their codes:
   Stefan Grimme, W. Hujo, H. Kruse, P. Pracht,  : VdW corrections, initial TS optimization,
                  C. Bannwarth, S. Ehlert          DFT functionals, gCP, sTDA/sTD-DF
   Ed Valeev, F. Pavosevic, A. Kumar             : LibInt (2-el integral package), F12 methods
   Garnet Chan, S. Sharma, J. Yang, R. Olivares  : DMRG
   Ulf Ekstrom                                   : XCFun DFT Library
   Mihaly Kallay                                 : mrcc  (arbitrary order and MRCC methods)
   Jiri Pittner, Ondrej Demel                    : Mk-CCSD
   Frank Weinhold                                : gennbo (NPA and NBO analysis)
   Christopher J. Cramer and Donald G. Truhlar   : smd solvation model
   Lars Goerigk                                  : TD-DFT with DH, B97 family of functionals
   V. Asgeirsson, H. Jonsson                     : NEB implementation
   FAccTs GmbH                                   : IRC, NEB, NEB-TS, DLPNO-Multilevel, CI-OPT
                                                   MM, QMMM, 2- and 3-layer-ONIOM, Crystal-QMMM,
                                                   LR-CPCM, SF, NACMEs, symmetry and pop. for TD-DFT,
                                                   nearIR, NL-DFT gradient (VV10), updates on ESD,
                                                   ML-optimized integration grids
   S Lehtola, MJT Oliveira, MAL Marques          : LibXC Library
   Liviu Ungur et al                             : ANISO software


 Your calculation uses the libint2 library for the computation of 2-el integrals
 For citations please refer to: http://libint.valeyev.net

 Your ORCA version has been built with support for libXC version: 5.1.0
 For citations please refer to: https://tddft.org/programs/libxc/

 This ORCA versions uses:
   CBLAS   interface :  Fast vector & matrix operations
   LAPACKE interface :  Fast linear algebra routines
   SCALAPACK package :  Parallel linear algebra routines
   Shared memory     :  Shared parallel matrices
   BLAS/LAPACK       :  OpenBLAS 0.3.15  USE64BITINT DYNAMIC_ARCH NO_AFFINITY Haswell SINGLE_THREADED
        Core in use  :  Haswell
   Copyright (c) 2011-2014, The OpenBLAS Project




***************************************
The coordinates will be read from file: pbe.xyz
***************************************


================================================================================

cite the ECPs for Au [Def2-ECP] as follows:
Ce-Yb(ecp-28): M. Dolg, H. Stoll, H.Preuss, J. Chem. Phys., 1989, 90, 1730-1734.
Y-Cd(ecp-28), Hf-Hg(ecp-46): D. Andrae,U. Haeussermann, M. Dolg, H. Stoll, H. Preuss, Theor. Chim. Acta, 1990, 77, 123-141.
In-Sb(ecp-28), Tl-Bi(ecp-46): B. Metz, H. Stoll, M. Dolg, J. Chem. Phys., 2000, 113, 2563-2569.
Te-Xe(ecp-28), Po-Rn(ecp-46): K. A. Peterson, D. Figgen, E. Goll, H. Stoll, M. Dolg, J. Chem. Phys., 2003, 119, 11113-11123.
Rb(ecp-28), Cs(ecp-46): T. Leininger, A. Nicklass, W. Kuechle, H. Stoll, M. Dolg, A. Bergner, Chem. Phys. Lett., 1996, 255, 274-280.
Sr(ecp-28), Ba(ecp-46): M. Kaupp, P. V. Schleyer, H. Stoll and H. Preuss, J. Chem. Phys., 1991, 94, 1360-1366.
La(ecp-46): M. Dolg, H. Stoll, A. Savin, H. Preuss, Theor. Chim. Acta, 1989, 75, 173-194.
Lu(ecp-28): X. Cao, M. Dolg, J. Chem. Phys., 2001, 115, 7348-7355.

ECP parameters for Au [Def2-ECP] have been obtained from:
TURBOMOLE (7.0.2)

----- Orbital basis set information -----
Your calculation utilizes the basis: def2-TZVP
   F. Weigend and R. Ahlrichs, Phys. Chem. Chem. Phys. 7, 3297 (2005).

----- AuxJ basis set information -----
Your calculation utilizes the auxiliary basis: def2/J
   F. Weigend, Phys. Chem. Chem. Phys. 8, 1057 (2006).

----- AuxC basis set information -----
Your calculation utilizes the auxiliary basis: def2-TZVP/C
  H-La, Hf-Rn : A. Hellweg, C. Hattig, S. Hofener and W. Klopper, Theor. Chem. Acc. 117, 587 (2007).
        Ce-Lu : J. Chmela and M. E. Harding, Mol. Phys. (2018).

================================================================================
                                        WARNINGS
                       Please study these warnings very carefully!
================================================================================


IMPORTANT NOTE: CASSCF must signal convergence for a subsequent CASPT2/NEVPT2! 
                Set maxiter=1 to run CASPT2/NEVPT2 with arbitrary orbitals.


INFO   : the flag for use of the SHARK integral package has been found!

================================================================================
                                       INPUT FILE
================================================================================
NAME = nevpt2.inp
|  1> !SC-NEVPT2 def2-TZVP def2-TZVP/C
|  2> !MOREAD RIJCOSX def2/J
|  3> %maxcore 4000
|  4> %moinp "casscf.gbw"
|  5> %pal nprocs 8 end 
|  6> 
|  7> %casscf
|  8>  mult 5,3
|  9>  bweight 1,1
| 10>  nroots 5,45
| 11>  nel 6
| 12>  norb 5
| 13>  ptsettings
| 14>   d4tpre 1e-14 # default = 1e-10
| 15>   d3tpre 1e-14
| 16>  end
| 17>  rel           
| 18>    dosoc true   
| 19>    gtensor true 
| 20>  end           
| 21> end
| 22> 
| 23> 
| 24> *xyzfile 0 5 pbe.xyz
| 25> 
| 26> 
| 27>                          ****END OF INPUT****
================================================================================

                       ****************************
                       * Single Point Calculation *
                       ****************************

---------------------------------
CARTESIAN COORDINATES (ANGSTROEM)
---------------------------------
  Au     8.838456    5.771629    9.213403
  Au     8.102965   10.059260   10.859891
  Au     9.866398    7.874293   10.650702
  Au     5.896744    9.487084    9.211172
  Au     7.127936    7.421573   10.603354
  Au    11.047438    7.769148    8.138592
  Au    10.378822   10.214734    9.218069
  Au     7.915183   11.203530    8.303410
  Au     7.506641    4.979133    6.899189
  Au    10.285648    5.410416    6.856696
  Au     5.979364    6.955868    8.136614
  Au     6.318747    7.005525    5.361981
  Au     8.326327    8.728511    4.446853
  Au     6.635823    9.522442    6.530115
  Au    10.777813    7.717389    5.349004
  Au     9.672941    9.988095    6.541951
  Cr     8.509393    7.529626    7.001602

----------------------------
CARTESIAN COORDINATES (A.U.)
----------------------------
  NO LB      ZA    FRAG     MASS         X           Y           Z
   0 Au   19.0000*   0   196.966   16.702261   10.906798   17.410809
   1 Au   19.0000*   0   196.966   15.312385   19.009247   20.522221
   2 Au   19.0000*   0   196.966   18.644791   14.880256   20.126910
   3 Au   19.0000*   0   196.966   11.143232   17.927991   17.406592
   4 Au   19.0000*   0   196.966   13.469846   14.024740   20.037435
   5 Au   19.0000*   0   196.966   20.876632   14.681562   15.379710
   6 Au   19.0000*   0   196.966   19.613132   19.303049   17.419626
   7 Au   19.0000*   0   196.966   14.957528   21.171604   15.691171
   8 Au   19.0000*   0   196.966   14.185495    9.409198   13.037578
   9 Au   19.0000*   0   196.966   19.437058   10.224204   12.957278
  10 Au   19.0000*   0   196.966   11.299361   13.144685   15.375973
  11 Au   19.0000*   0   196.966   11.940702   13.238524   10.132675
  12 Au   19.0000*   0   196.966   15.734477   16.494495    8.403334
  13 Au   19.0000*   0   196.966   12.539887   17.994808   12.340129
  14 Au   19.0000*   0   196.966   20.367115   14.583752   10.108153
  15 Au   19.0000*   0   196.966   18.279209   18.874765   12.362495
  16 Cr   24.0000    0    52.000   16.080422   14.228931   13.231110
* core charge reduced due to ECP

--------------------------------
INTERNAL COORDINATES (ANGSTROEM)
--------------------------------
 Au     0   0   0     0.000000000000     0.00000000     0.00000000
 Au     1   0   0     4.651413869736     0.00000000     0.00000000
 Au     1   2   0     2.746577370674    33.72185469     0.00000000
 Au     2   1   3     2.813018293833    74.27931715   173.16680577
 Au     1   2   3     2.753208247604    33.96761821   129.99446252
 Au     3   1   2     2.777877773131    69.93447278   254.78421315
 Au     6   3   1     2.755577129393    60.59256703   139.81809502
 Au     4   2   1     2.800769897591    60.00606727   256.06367904
 Au     1   2   3     2.785205375484   118.73709092   207.51862634
 Au     1   2   3     2.789069584588   120.03507767   278.27592199
 Au     4   2   1     2.751100838823   113.11135427     2.05163143
 Au    11   4   2     2.795753906511   112.02089444   246.81533546
 Au    12  11   4     2.799377429448   114.98768465    46.77659947
 Au     8   4   2     2.758150770973    60.03763747   145.03766675
 Au    10   1   2     2.799550979240   116.07572251   348.20577619
 Au     8   4   2     2.769428716204   113.24067754   101.71071078
 Cr     9   1   2     2.742446412947    61.93382497    40.71362464

---------------------------
INTERNAL COORDINATES (A.U.)
---------------------------
 Au     0   0   0     0.000000000000     0.00000000     0.00000000
 Au     1   0   0     8.789898349325     0.00000000     0.00000000
 Au     1   2   0     5.190279036199    33.72185469     0.00000000
 Au     2   1   3     5.315834185055    74.27931715   173.16680577
 Au     1   2   3     5.202809577625    33.96761821   129.99446252
 Au     3   1   2     5.249428224724    69.93447278   254.78421315
 Au     6   3   1     5.207286115450    60.59256703   139.81809502
 Au     4   2   1     5.292688070577    60.00606727   256.06367904
 Au     1   2   3     5.263275386390   118.73709092   207.51862634
 Au     1   2   3     5.270577683321   120.03507767   278.27592199
 Au     4   2   1     5.198827152176   113.11135427     2.05163143
 Au    11   4   2     5.283209221146   112.02089444   246.81533546
 Au    12  11   4     5.290056687137   114.98768465    46.77659947
 Au     8   4   2     5.212149593203    60.03763747   145.03766675
 Au    10   1   2     5.290384648715   116.07572251   348.20577619
 Au     8   4   2     5.233461821042   113.24067754   101.71071078
 Cr     9   1   2     5.182472657425    61.93382497    40.71362464

---------------------
BASIS SET INFORMATION
---------------------
There are 2 groups of distinct atoms

 Group   1 Type Au  : 8s7p6d1f contracted to 6s4p3d1f pattern {311111/4111/411/1}
 Group   2 Type Cr  : 17s11p7d1f contracted to 6s4p4d1f pattern {842111/6311/4111/1}

Atom   0Au   basis set group =>   1
Atom   1Au   basis set group =>   1
Atom   2Au   basis set group =>   1
Atom   3Au   basis set group =>   1
Atom   4Au   basis set group =>   1
Atom   5Au   basis set group =>   1
Atom   6Au   basis set group =>   1
Atom   7Au   basis set group =>   1
Atom   8Au   basis set group =>   1
Atom   9Au   basis set group =>   1
Atom  10Au   basis set group =>   1
Atom  11Au   basis set group =>   1
Atom  12Au   basis set group =>   1
Atom  13Au   basis set group =>   1
Atom  14Au   basis set group =>   1
Atom  15Au   basis set group =>   1
Atom  16Cr   basis set group =>   2
---------------------------------
AUXILIARY/J BASIS SET INFORMATION
---------------------------------
There are 2 groups of distinct atoms

 Group   1 Type Au  : 11s5p5d3f3g contracted to 8s5p5d2f3g pattern {41111111/11111/11111/21/111}
 Group   2 Type Cr  : 19s5p5d3f3g contracted to 8s5p5d2f3g pattern {121111111/11111/11111/21/111}

Atom   0Au   basis set group =>   1
Atom   1Au   basis set group =>   1
Atom   2Au   basis set group =>   1
Atom   3Au   basis set group =>   1
Atom   4Au   basis set group =>   1
Atom   5Au   basis set group =>   1
Atom   6Au   basis set group =>   1
Atom   7Au   basis set group =>   1
Atom   8Au   basis set group =>   1
Atom   9Au   basis set group =>   1
Atom  10Au   basis set group =>   1
Atom  11Au   basis set group =>   1
Atom  12Au   basis set group =>   1
Atom  13Au   basis set group =>   1
Atom  14Au   basis set group =>   1
Atom  15Au   basis set group =>   1
Atom  16Cr   basis set group =>   2
---------------------------------
AUXILIARY/C BASIS SET INFORMATION
---------------------------------
There are 2 groups of distinct atoms

 Group   1 Type Au  : 8s8p7d5f3g2h contracted to 8s8p7d5f3g2h pattern {11111111/11111111/1111111/11111/111/11}
 Group   2 Type Cr  : 11s9p8d6f5g2h contracted to 9s8p8d6f5g2h pattern {311111111/21111111/11111111/111111/11111/11}

Atom   0Au   basis set group =>   1
Atom   1Au   basis set group =>   1
Atom   2Au   basis set group =>   1
Atom   3Au   basis set group =>   1
Atom   4Au   basis set group =>   1
Atom   5Au   basis set group =>   1
Atom   6Au   basis set group =>   1
Atom   7Au   basis set group =>   1
Atom   8Au   basis set group =>   1
Atom   9Au   basis set group =>   1
Atom  10Au   basis set group =>   1
Atom  11Au   basis set group =>   1
Atom  12Au   basis set group =>   1
Atom  13Au   basis set group =>   1
Atom  14Au   basis set group =>   1
Atom  15Au   basis set group =>   1
Atom  16Cr   basis set group =>   2
-------------------------
ECP PARAMETER INFORMATION
-------------------------

 Group 1, Type Au ECP Def2-ECP (replacing 60 core electrons, lmax=3)

Atom   0Au   ECP group =>   1
Atom   1Au   ECP group =>   1
Atom   2Au   ECP group =>   1
Atom   3Au   ECP group =>   1
Atom   4Au   ECP group =>   1
Atom   5Au   ECP group =>   1
Atom   6Au   ECP group =>   1
Atom   7Au   ECP group =>   1
Atom   8Au   ECP group =>   1
Atom   9Au   ECP group =>   1
Atom  10Au   ECP group =>   1
Atom  11Au   ECP group =>   1
Atom  12Au   ECP group =>   1
Atom  13Au   ECP group =>   1
Atom  14Au   ECP group =>   1
Atom  15Au   ECP group =>   1



           ************************************************************
           *        Program running with 8 parallel MPI-processes     *
           *              working on a common directory               *
           ************************************************************
------------------------------------------------------------------------------
                           ORCA GTO INTEGRAL CALCULATION
                           -- RI-GTO INTEGRALS CHOSEN --
------------------------------------------------------------------------------
------------------------------------------------------------------------------
                   ___                                                        
                  /   \      - P O W E R E D   B Y -                         
                 /     \                                                     
                 |  |  |   _    _      __       _____    __    __             
                 |  |  |  | |  | |    /  \     |  _  \  |  |  /  |          
                  \  \/   | |  | |   /    \    | | | |  |  | /  /          
                 / \  \   | |__| |  /  /\  \   | |_| |  |  |/  /          
                |  |  |   |  __  | /  /__\  \  |    /   |      \           
                |  |  |   | |  | | |   __   |  |    \   |  |\   \          
                \     /   | |  | | |  |  |  |  | |\  \  |  | \   \       
                 \___/    |_|  |_| |__|  |__|  |_| \__\ |__|  \__/        
                                                                              
                      - O R C A' S   B I G   F R I E N D -                    
                                      &                                       
                       - I N T E G R A L  F E E D E R -                       
                                                                              
 v1 FN, 2020, v2 2021                                                         
------------------------------------------------------------------------------


Reading SHARK input file nevpt2.SHARKINP.tmp ... ok
----------------------
SHARK INTEGRAL PACKAGE
----------------------

Number of atoms                             ...     17
Number of basis functions                   ...    685
Number of shells                            ...    239
Maximum angular momentum                    ...      3
Integral batch strategy                     ... SHARK/LIBINT Hybrid
RI-J (if used) integral strategy            ... SPLIT-RIJ (Revised 2003 algorithm where possible)
Printlevel                                  ...      1
Contraction scheme used                     ... SEGMENTED contraction
Coulomb Range Separation                    ... NOT USED
Exchange Range Separation                   ... NOT USED
Finite Nucleus Model                        ... NOT USED
Auxiliary Coulomb fitting basis             ... AVAILABLE
   # of basis functions in Aux-J            ...   1513
   # of shells in Aux-J                     ...    391
   Maximum angular momentum in Aux-J        ...      4
Auxiliary J/K fitting basis                 ... NOT available
Auxiliary Correlation fitting basis         ... AVAILABLE
   # of basis functions in Aux-C            ...   2598
   # of shells in Aux-C                     ...    566
   Maximum angular momentum in Aux-C        ...      5
Auxiliary 'external' fitting basis          ... NOT available
Integral threshold                          ...     1.000000e-10
Primitive cut-off                           ...     1.000000e-11
Primitive pair pre-selection threshold      ...     1.000000e-11

Calculating pre-screening integrals         ... done (  0.1 sec) Dimension = 239
Organizing shell pair data                  ... done (  0.4 sec)
Shell pair information
Total number of shell pairs                 ...     28680
Shell pairs after pre-screening             ...     22275
Total number of primitive shell pairs       ...     75765
Primitive shell pairs kept                  ...     42186
          la=0 lb=0:   3530 shell pairs
          la=1 lb=0:   5087 shell pairs
          la=1 lb=1:   1901 shell pairs
          la=2 lb=0:   4434 shell pairs
          la=2 lb=1:   3127 shell pairs
          la=2 lb=2:   1294 shell pairs
          la=3 lb=0:   1140 shell pairs
          la=3 lb=1:    872 shell pairs
          la=3 lb=2:    772 shell pairs
          la=3 lb=3:    118 shell pairs

Calculating one electron integrals          ... done (  0.0 sec)
Calculating ECP integrals                   ... done ( 12.4 sec)
Calculating RI/J V-Matrix + Cholesky decomp.... done (  0.1 sec)
Calculating RI/C V-Matrix + Cholesky decomp.... done (  0.3 sec)
Calculating Nuclear repulsion               ... done (  0.0 sec) ENN=   6914.844932641048 Eh

SHARK setup successfully completed in  13.5 seconds

Maximum memory used throughout the entire GTOINT-calculation: 54.6 MB


           ************************************************************
           *        Program running with 8 parallel MPI-processes     *
           *              working on a common directory               *
           ************************************************************
-------------------------------------------------------------------------------
                                 ORCA SCF
-------------------------------------------------------------------------------

------------
SCF SETTINGS
------------
Hamiltonian:
 Ab initio Hamiltonian  Method          .... Hartree-Fock(GTOs)
 RI-approximation to the Coulomb term is turned on
   Number of AuxJ basis functions       .... 1513
   RIJ-COSX (HFX calculated with COS-X)).... on


General Settings:
 Integral files         IntName         .... nevpt2
 Hartree-Fock type      HFTyp           .... CASSCF
 Total Charge           Charge          ....    0
 Multiplicity           Mult            ....    5
 Number of Electrons    NEL             ....  328
 Basis Dimension        Dim             ....  685
 Nuclear Repulsion      ENuc            ....   6914.8449326410 Eh


Diagonalization of the overlap matrix:
Smallest eigenvalue                        ... 8.697e-05
Time for diagonalization                   ...    0.113 sec
Threshold for overlap eigenvalues          ... 1.000e-08
Number of eigenvalues below threshold      ... 0
Time for construction of square roots      ...    0.048 sec
Total time needed                          ...    0.167 sec

---------------------
INITIAL GUESS: MOREAD
---------------------
Guess MOs are being read from file: casscf.gbw
Input Geometry matches current geometry (good)
Input basis set matches current basis set (good)
MOs were renormalized
Gram-Schmidt orthogonalization of all MOs with pivot on actives
                      ------------------
                      INITIAL GUESS DONE (   3.2 sec)
                      ------------------
--------------------
COSX GRID GENERATION
--------------------

GRIDX 1
-------
General Integration Accuracy     IntAcc      ... 3.816
Radial Grid Type                 RadialGrid  ... OptM3 with GC (2021)
Angular Grid (max. ang.)         AngularGrid ... 1 (Lebedev-50)
Angular grid pruning method      GridPruning ... 4 (adaptive)
Weight generation scheme         WeightScheme... Becke
Basis function cutoff            BFCut       ... 1.0000e-10
Integration weight cutoff        WCut        ... 1.0000e-14
Angular grids for H and He will be reduced by one unit
Partially contracted basis set               ... on
Rotationally invariant grid construction     ... off

Total number of grid points                  ...    19526
Total number of batches                      ...      314
Average number of points per batch           ...       62
Average number of grid points per atom       ...     1149
UseSFitting                                  ... on

GRIDX 2
-------
General Integration Accuracy     IntAcc      ... 4.020
Radial Grid Type                 RadialGrid  ... OptM3 with GC (2021)
Angular Grid (max. ang.)         AngularGrid ... 2 (Lebedev-110)
Angular grid pruning method      GridPruning ... 4 (adaptive)
Weight generation scheme         WeightScheme... Becke
Basis function cutoff            BFCut       ... 1.0000e-10
Integration weight cutoff        WCut        ... 1.0000e-14
Angular grids for H and He will be reduced by one unit
Partially contracted basis set               ... on
Rotationally invariant grid construction     ... off

Total number of grid points                  ...    59255
Total number of batches                      ...      935
Average number of points per batch           ...       63
Average number of grid points per atom       ...     3486
UseSFitting                                  ... on

GRIDX 3
-------
General Integration Accuracy     IntAcc      ... 4.338
Radial Grid Type                 RadialGrid  ... OptM3 with GC (2021)
Angular Grid (max. ang.)         AngularGrid ... 3 (Lebedev-194)
Angular grid pruning method      GridPruning ... 4 (adaptive)
Weight generation scheme         WeightScheme... Becke
Basis function cutoff            BFCut       ... 1.0000e-10
Integration weight cutoff        WCut        ... 1.0000e-14
Angular grids for H and He will be reduced by one unit
Partially contracted basis set               ... on
Rotationally invariant grid construction     ... off

Total number of grid points                  ...   107322
Total number of batches                      ...     1685
Average number of points per batch           ...       63
Average number of grid points per atom       ...     6313
UseSFitting                                  ... on

Time for X-Grid setup             =    1.625 sec



 ... the calculation is a CASSCF calculation -I'm leaving here GOOD LUCK!!!



           ************************************************************
           *        Program running with 8 parallel MPI-processes     *
           *              working on a common directory               *
           ************************************************************
-------------------------------------------------------------------------------
                              ORCA-CASSCF
-------------------------------------------------------------------------------

Setting up the integral package       ... done
Setting up the integral package (RI)  ... done
Building the CAS space                ... done (5 configurations for Mult=5)
Building the CAS space                ... done (35 configurations for Mult=3)

 CASSCF (estimated) memory needed     ... 192.6 MB
 NEVPT2 (estimated) memory needed     ... 757.2 MB


SYSTEM-SPECIFIC SETTINGS:
Number of active electrons          ...    6
Number of active orbitals           ...    5
Total number of electrons           ...  328
Total number of orbitals            ...  685
Total number aux. functions         ... 2598

Determined orbital ranges:
   Internal       0 -  160 ( 161 orbitals)
   Active       161 -  165 (   5 orbitals)
   External     166 -  684 ( 519 orbitals)
Number of rotation parameters      ...  86959

CI-STEP:
CI strategy                         ... General CI
Number of multiplicity blocks       ...    2
BLOCK  1 WEIGHT=   0.5000
  Multiplicity                      ...    5
  #(Configurations)                 ...    5
  #(CSFs)                           ...    5
  #(Roots)                          ...    5
    ROOT=0 WEIGHT=    0.100000
    ROOT=1 WEIGHT=    0.100000
    ROOT=2 WEIGHT=    0.100000
    ROOT=3 WEIGHT=    0.100000
    ROOT=4 WEIGHT=    0.100000

BLOCK  2 WEIGHT=   0.5000
  Multiplicity                      ...    3
  #(Configurations)                 ...   35
  #(CSFs)                           ...   45
  #(Roots)                          ...   45
    ROOT=0 WEIGHT=    0.011111
    ROOT=1 WEIGHT=    0.011111
    ROOT=2 WEIGHT=    0.011111
    ROOT=3 WEIGHT=    0.011111
    ROOT=4 WEIGHT=    0.011111
    ROOT=5 WEIGHT=    0.011111
    ROOT=6 WEIGHT=    0.011111
    ROOT=7 WEIGHT=    0.011111
    ROOT=8 WEIGHT=    0.011111
    ROOT=9 WEIGHT=    0.011111
    ROOT=10 WEIGHT=    0.011111
    ROOT=11 WEIGHT=    0.011111
    ROOT=12 WEIGHT=    0.011111
    ROOT=13 WEIGHT=    0.011111
    ROOT=14 WEIGHT=    0.011111
    ROOT=15 WEIGHT=    0.011111
    ROOT=16 WEIGHT=    0.011111
    ROOT=17 WEIGHT=    0.011111
    ROOT=18 WEIGHT=    0.011111
    ROOT=19 WEIGHT=    0.011111
    ROOT=20 WEIGHT=    0.011111
    ROOT=21 WEIGHT=    0.011111
    ROOT=22 WEIGHT=    0.011111
    ROOT=23 WEIGHT=    0.011111
    ROOT=24 WEIGHT=    0.011111
    ROOT=25 WEIGHT=    0.011111
    ROOT=26 WEIGHT=    0.011111
    ROOT=27 WEIGHT=    0.011111
    ROOT=28 WEIGHT=    0.011111
    ROOT=29 WEIGHT=    0.011111
    ROOT=30 WEIGHT=    0.011111
    ROOT=31 WEIGHT=    0.011111
    ROOT=32 WEIGHT=    0.011111
    ROOT=33 WEIGHT=    0.011111
    ROOT=34 WEIGHT=    0.011111
    ROOT=35 WEIGHT=    0.011111
    ROOT=36 WEIGHT=    0.011111
    ROOT=37 WEIGHT=    0.011111
    ROOT=38 WEIGHT=    0.011111
    ROOT=39 WEIGHT=    0.011111
    ROOT=40 WEIGHT=    0.011111
    ROOT=41 WEIGHT=    0.011111
    ROOT=42 WEIGHT=    0.011111
    ROOT=43 WEIGHT=    0.011111
    ROOT=44 WEIGHT=    0.011111

  PrintLevel                        ...    1
  N(GuessMat)                       ...       512
  MaxDim(CI)                        ...        10
  MaxIter(CI)                       ...        64
  Energy Tolerance CI               ...  1.00e-08
  Residual Tolerance CI             ...  1.00e-08
  Shift(CI)                         ...  1.00e-04

INTEGRAL-TRANSFORMATION-STEP:
  Algorithm                         ... RI-MO

ORBITAL-IMPROVEMENT-STEP:
  Algorithm                         ... SuperCI(PT)
  Default Parametrization           ... CAYLEY
  Act-Act rotations                 ... depends on algorithm used

  Note: SuperCI(PT) will ignore FreezeIE, FreezeAct and FreezeGrad. In general Default settings are encouraged.
        In conjunction with ShiftUp, ShiftDn or GradScaling the performance of SuperCI(PT) is less optimal.  

  MaxRot                            ... 2.00e-01 
  Max. no of vectors (DIIS)         ... 15
  DThresh (cut-off) metric          ... 1.00e-06
  Switch step at gradient           ...  3.00e-02 
  Switch step at iteration          ...        50   
  Switch step to                    ... SuperCI(PT)    

SCF-SETTINGS:
  Incremental                       ... off
  RIJCOSX approximation             ... on
  UseFinalGrid                      ... on
  RI-JK approximation               ... off
  AO integral handling              ... DIRECT
  Integral Neglect Thresh           ...  1.00e-10
  Primitive cutoff TCut             ...  1.00e-11
  Energy convergence tolerance      ...  1.00e-07
  Orbital gradient convergence      ...  1.00e-03
  Max. number of iterations         ...        75  

PT2-SETTINGS:
  A PT2 calculation will be performed on top of the CASSCF wave function (PT2 = SC-NEVPT2)   
 CI step strategy                   ... General CI
  D4C handling                      ... on the fly 
  CI truncation for D4C at          ...  1.00e-14
  CI truncation for D3  at          ...  1.00e-14
  Orbitals                          ... canonical for each state 
  Last  frozen  orbital             ... 4
  First deleted orbital             ... 685
  RI Step                           ... store IJV(array) (MC_ONDISK during integral transformation) 

PROPERTIES-SETTINGS:
  Spin orbit coupling               ... true
  GTensor                           ... true
  QDPT diagonal energies            ... NEVPT2 energies 

FINAL ORBITALS:
  Active   Orbitals                 ... natural 
  Internal Orbitals                 ... canonical 
  External Orbitals                 ... canonical 

------------------
CAS-SCF ITERATIONS
------------------


MACRO-ITERATION   1: 
   --- Inactive Energy E0 = -3191.49092381 Eh
CI-ITERATION   0: 
 -3200.268771593   0.000000000000 (    0.00)
 -3200.213213617   0.000000000000
 -3200.201469767   0.000000000000
 -3200.201169350   0.000000000000
 -3200.196696983   0.000000000000
   CI-PROBLEM SOLVED
   DENSITIES MADE
CI-ITERATION   0: 
 -3200.207801350   0.000000000000 (    0.00)
 -3200.197660010   0.000000000000
 -3200.197418419   0.000000000000
 -3200.192226349   0.000000000000
 -3200.189887099   0.000000000000
 -3200.189115345   0.000000000000
 -3200.188972049   0.000000000000
 -3200.188374408   0.000000000000
 -3200.180217485   0.000000000000
 -3200.179957184   0.000000000000
 -3200.175912517   0.000000000000
 -3200.165012799   0.000000000000
 -3200.164512330   0.000000000000
 -3200.161586247   0.000000000000
 -3200.160302450   0.000000000000
 -3200.160162848   0.000000000000
 -3200.156394651   0.000000000000
 -3200.154138839   0.000000000000
 -3200.153690952   0.000000000000
 -3200.151326722   0.000000000000
 -3200.149316967   0.000000000000
 -3200.148785077   0.000000000000
 -3200.148750826   0.000000000000
 -3200.145149099   0.000000000000
 -3200.130659403   0.000000000000
 -3200.130549215   0.000000000000
 -3200.129946786   0.000000000000
 -3200.118906791   0.000000000000
 -3200.118670944   0.000000000000
 -3200.114770011   0.000000000000
 -3200.113399789   0.000000000000
 -3200.110869864   0.000000000000
 -3200.100118343   0.000000000000
 -3200.100016648   0.000000000000
 -3200.095330778   0.000000000000
 -3200.050476410   0.000000000000
 -3200.041450031   0.000000000000
 -3200.021071728   0.000000000000
 -3200.020778872   0.000000000000
 -3199.767156770   0.000000000000
 -3199.766481075   0.000000000000
 -3199.762435599   0.000000000000
 -3199.753399472   0.000000000000
 -3199.715794932   0.000000000000
 -3199.715139442   0.000000000000
   CI-PROBLEM SOLVED
   DENSITIES MADE

                 <<<<<<<<<<<<<<<<<<INITIAL CI STATE CHECK>>>>>>>>>>>>>>>>>>

BLOCK  1 MULT= 5 NROOTS= 5 
ROOT   0:  E=   -3200.2687715927 Eh
      0.92401 [     1]: 11121
      0.03909 [     2]: 11211
      0.03648 [     0]: 11112
ROOT   1:  E=   -3200.2132136168 Eh  1.512 eV  12193.6 cm**-1
      0.88371 [     0]: 11112
      0.05071 [     1]: 11121
      0.03835 [     2]: 11211
      0.01984 [     4]: 21111
      0.00739 [     3]: 12111
ROOT   2:  E=   -3200.2014697666 Eh  1.831 eV  14771.0 cm**-1
      0.84510 [     3]: 12111
      0.12709 [     2]: 11211
      0.02724 [     0]: 11112
ROOT   3:  E=   -3200.2011693498 Eh  1.840 eV  14837.0 cm**-1
      0.66745 [     4]: 21111
      0.22763 [     2]: 11211
      0.05518 [     3]: 12111
      0.04612 [     0]: 11112
      0.00363 [     1]: 11121
ROOT   4:  E=   -3200.1966969829 Eh  1.961 eV  15818.5 cm**-1
      0.56784 [     2]: 11211
      0.31259 [     4]: 21111
      0.09190 [     3]: 12111
      0.02121 [     1]: 11121
      0.00646 [     0]: 11112

BLOCK  2 MULT= 3 NROOTS=45 
ROOT   0:  E=   -3200.2078013499 Eh
      0.81430 [    10]: 11112
      0.05232 [    13]: 11211
      0.04647 [     9]: 11022
      0.02830 [    11]: 11121
      0.02760 [    12]: 11202
      0.01459 [    28]: 21111
      0.00461 [    18]: 12111
ROOT   1:  E=   -3200.1976600101 Eh  0.276 eV   2225.8 cm**-1
      0.67087 [    18]: 12111
      0.07437 [    13]: 11211
      0.04675 [    16]: 12021
      0.04132 [    20]: 12201
      0.03647 [    19]: 12120
      0.03580 [    17]: 12102
      0.01907 [     0]: 01122
      0.01539 [     9]: 11022
      0.01399 [     2]: 01221
      0.01194 [    10]: 11112
      0.00716 [    12]: 11202
      0.00681 [    11]: 11121
      0.00538 [    14]: 11220
      0.00394 [    28]: 21111
      0.00276 [    29]: 21120
ROOT   2:  E=   -3200.1974184190 Eh  0.283 eV   2278.8 cm**-1
      0.51565 [    28]: 21111
      0.21383 [    13]: 11211
      0.03567 [     6]: 10122
      0.03136 [    10]: 11112
      0.03091 [    30]: 21201
      0.02770 [    27]: 21102
      0.02540 [    26]: 21021
      0.02355 [    29]: 21120
      0.02330 [    12]: 11202
      0.02214 [    11]: 11121
      0.02126 [    18]: 12111
      0.01269 [    14]: 11220
      0.00306 [     4]: 02121
      0.00272 [    16]: 12021
      0.00267 [    23]: 20121
ROOT   3:  E=   -3200.1922263490 Eh  0.424 eV   3418.3 cm**-1
      0.50376 [    13]: 11211
      0.25010 [    28]: 21111
      0.07069 [    18]: 12111
      0.03077 [    12]: 11202
      0.02933 [    14]: 11220
      0.01588 [    11]: 11121
      0.01548 [    16]: 12021
      0.01502 [    30]: 21201
      0.01385 [    27]: 21102
      0.01342 [    26]: 21021
      0.01290 [    29]: 21120
      0.00570 [     8]: 10221
      0.00570 [     4]: 02121
      0.00463 [    23]: 20121
      0.00412 [    17]: 12102
ROOT   4:  E=   -3200.1898870992 Eh  0.487 eV   3931.7 cm**-1
      0.29327 [    11]: 11121
      0.24879 [     9]: 11022
      0.09895 [     2]: 01221
      0.07852 [     0]: 01122
      0.07527 [    14]: 11220
      0.03326 [     6]: 10122
      0.03000 [    26]: 21021
      0.02956 [    10]: 11112
      0.02708 [     4]: 02121
      0.02046 [    23]: 20121
      0.01761 [    13]: 11211
      0.01674 [    19]: 12120
      0.00739 [    16]: 12021
      0.00569 [    18]: 12111
      0.00423 [    28]: 21111
      0.00346 [    29]: 21120
      0.00289 [    24]: 20211
ROOT   5:  E=   -3200.1891153448 Eh  0.508 eV   4101.1 cm**-1
      0.22967 [    11]: 11121
      0.20816 [     6]: 10122
      0.09253 [     2]: 01221
      0.07144 [    16]: 12021
      0.07113 [    26]: 21021
      0.06085 [    23]: 20121
      0.05717 [     8]: 10221
      0.04528 [    19]: 12120
      0.03294 [     4]: 02121
      0.02303 [     9]: 11022
      0.02259 [     7]: 10212
      0.02207 [    28]: 21111
      0.01908 [    13]: 11211
      0.00903 [    10]: 11112
      0.00680 [    18]: 12111
      0.00513 [    25]: 21012
      0.00479 [    29]: 21120
      0.00348 [    22]: 20112
ROOT   6:  E=   -3200.1889720492 Eh  0.512 eV   4132.6 cm**-1
      0.46322 [    11]: 11121
      0.15820 [     0]: 01122
      0.07349 [    23]: 20121
      0.06754 [     2]: 01221
      0.05675 [     4]: 02121
      0.04240 [    26]: 21021
      0.03556 [    29]: 21120
      0.01409 [    16]: 12021
      0.01295 [     6]: 10122
      0.01205 [    10]: 11112
      0.00913 [     9]: 11022
      0.00902 [    13]: 11211
      0.00803 [    28]: 21111
      0.00651 [     8]: 10221
      0.00650 [    14]: 11220
      0.00529 [    18]: 12111
      0.00394 [     3]: 02112
      0.00260 [    24]: 20211
      0.00253 [    31]: 21210
ROOT   7:  E=   -3200.1883744080 Eh  0.529 eV   4263.7 cm**-1
      0.24082 [    11]: 11121
      0.19139 [     2]: 01221
      0.15507 [    26]: 21021
      0.10005 [    16]: 12021
      0.09592 [     8]: 10221
      0.04151 [     4]: 02121
      0.03408 [    23]: 20121
      0.02151 [    29]: 21120
      0.01965 [     0]: 01122
      0.01345 [     1]: 01212
      0.01162 [    13]: 11211
      0.01161 [    28]: 21111
      0.00977 [    19]: 12120
      0.00917 [     6]: 10122
      0.00885 [    10]: 11112
      0.00630 [    25]: 21012
      0.00602 [     7]: 10212
      0.00410 [    15]: 12012
      0.00343 [     9]: 11022
      0.00330 [    24]: 20211
      0.00283 [     5]: 02211
      0.00282 [    18]: 12111
ROOT   8:  E=   -3200.1802174854 Eh  0.751 eV   6054.0 cm**-1
      0.27060 [     6]: 10122
      0.15966 [    16]: 12021
      0.14846 [    11]: 11121
      0.11097 [     9]: 11022
      0.08333 [     8]: 10221
      0.07105 [    26]: 21021
      0.02151 [    23]: 20121
      0.02061 [     0]: 01122
      0.01871 [     4]: 02121
      0.01834 [    13]: 11211
      0.01660 [    10]: 11112
      0.01469 [    28]: 21111
      0.01305 [    19]: 12120
      0.00691 [    15]: 12012
      0.00647 [    18]: 12111
      0.00557 [     7]: 10212
      0.00332 [    22]: 20112
      0.00262 [     1]: 01212
ROOT   9:  E=   -3200.1799571844 Eh  0.758 eV   6111.1 cm**-1
      0.21742 [     0]: 01122
      0.18354 [    11]: 11121
      0.15695 [     6]: 10122
      0.12769 [     9]: 11022
      0.05657 [     4]: 02121
      0.05116 [    18]: 12111
      0.05101 [     2]: 01221
      0.02911 [    16]: 12021
      0.02356 [    10]: 11112
      0.01869 [    29]: 21120
      0.01865 [    14]: 11220
      0.01602 [    13]: 11211
      0.01162 [    26]: 21021
      0.00691 [    23]: 20121
      0.00471 [     8]: 10221
      0.00339 [    17]: 12102
      0.00337 [    19]: 12120
      0.00298 [    28]: 21111
      0.00266 [    15]: 12012
      0.00253 [    20]: 12201
ROOT  10:  E=   -3200.1759125175 Eh  0.868 eV   6998.8 cm**-1
      0.24637 [    23]: 20121
      0.24464 [     4]: 02121
      0.11922 [     8]: 10221
      0.10318 [    11]: 11121
      0.10191 [    16]: 12021
      0.03999 [    19]: 12120
      0.03081 [     6]: 10122
      0.01569 [    13]: 11211
      0.01366 [    18]: 12111
      0.01309 [     7]: 10212
      0.01149 [    10]: 11112
      0.01049 [     5]: 02211
      0.00943 [    24]: 20211
      0.00745 [    22]: 20112
      0.00690 [     3]: 02112
      0.00640 [     9]: 11022
      0.00505 [    15]: 12012
      0.00433 [    28]: 21111
      0.00342 [    14]: 11220
ROOT  11:  E=   -3200.1650127993 Eh  1.164 eV   9391.0 cm**-1
      0.30862 [    11]: 11121
      0.18592 [     9]: 11022
      0.17203 [     0]: 01122
      0.08228 [    26]: 21021
      0.04287 [    29]: 21120
      0.02991 [     2]: 01221
      0.02807 [    13]: 11211
      0.01886 [     6]: 10122
      0.01744 [    32]: 22011
      0.01687 [     1]: 01212
      0.01481 [    18]: 12111
      0.01397 [    10]: 11112
      0.01142 [     8]: 10221
      0.00954 [    25]: 21012
      0.00739 [     3]: 02112
      0.00730 [    23]: 20121
      0.00674 [    14]: 11220
      0.00640 [     4]: 02121
      0.00634 [    28]: 21111
      0.00487 [    22]: 20112
      0.00328 [    16]: 12021
ROOT  12:  E=   -3200.1645123297 Eh  1.178 eV   9500.8 cm**-1
      0.66834 [    11]: 11121
      0.07633 [    14]: 11220
      0.04652 [     0]: 01122
      0.04423 [    10]: 11112
      0.04299 [     9]: 11022
      0.03675 [    29]: 21120
      0.01795 [     6]: 10122
      0.01135 [    13]: 11211
      0.01055 [    19]: 12120
      0.00808 [     2]: 01221
      0.00593 [     8]: 10221
      0.00577 [    16]: 12021
      0.00424 [    28]: 21111
      0.00397 [    21]: 12210
      0.00335 [    18]: 12111
      0.00325 [    26]: 21021
ROOT  13:  E=   -3200.1615862466 Eh  1.258 eV  10143.0 cm**-1
      0.21833 [    25]: 21012
      0.18738 [     1]: 01212
      0.16280 [    10]: 11112
      0.07743 [     7]: 10212
      0.07228 [    13]: 11211
      0.07128 [    15]: 12012
      0.03337 [    22]: 20112
      0.02413 [     5]: 02211
      0.02391 [     3]: 02112
      0.01942 [    28]: 21111
      0.01662 [    18]: 12111
      0.01209 [    24]: 20211
      0.01079 [    11]: 11121
      0.01053 [    26]: 21021
      0.00859 [     0]: 01122
      0.00711 [     2]: 01221
      0.00578 [    27]: 21102
      0.00548 [     9]: 11022
      0.00517 [     8]: 10221
      0.00516 [    12]: 11202
      0.00480 [     4]: 02121
      0.00392 [    16]: 12021
      0.00347 [     6]: 10122
      0.00305 [    23]: 20121
      0.00264 [    32]: 22011
ROOT  14:  E=   -3200.1603024499 Eh  1.293 eV  10424.8 cm**-1
      0.24590 [    10]: 11112
      0.15801 [    15]: 12012
      0.09233 [     3]: 02112
      0.08564 [    13]: 11211
      0.07636 [     5]: 02211
      0.06703 [    22]: 20112
      0.06257 [    32]: 22011
      0.04561 [    28]: 21111
      0.03932 [    18]: 12111
      0.03770 [     7]: 10212
      0.01581 [    11]: 11121
      0.01000 [     1]: 01212
      0.00977 [    16]: 12021
      0.00938 [     9]: 11022
      0.00755 [     4]: 02121
      0.00708 [     2]: 01221
      0.00669 [    23]: 20121
      0.00374 [    17]: 12102
      0.00330 [    12]: 11202
      0.00264 [     6]: 10122
ROOT  15:  E=   -3200.1601628475 Eh  1.296 eV  10455.4 cm**-1
      0.38553 [    10]: 11112
      0.17283 [    25]: 21012
      0.09903 [    18]: 12111
      0.06432 [    28]: 21111
      0.04632 [     7]: 10212
      0.03725 [     5]: 02211
      0.03628 [    15]: 12012
      0.03474 [    24]: 20211
      0.02833 [     1]: 01212
      0.01958 [    16]: 12021
      0.01690 [    22]: 20112
      0.01531 [    11]: 11121
      0.00987 [    27]: 21102
      0.00468 [     2]: 01221
      0.00454 [    12]: 11202
      0.00395 [     4]: 02121
      0.00385 [    31]: 21210
ROOT  16:  E=   -3200.1563946514 Eh  1.399 eV  11282.5 cm**-1
      0.27783 [    22]: 20112
      0.16920 [     3]: 02112
      0.11705 [    15]: 12012
      0.09979 [     7]: 10212
      0.09362 [    10]: 11112
      0.08444 [     5]: 02211
      0.04190 [    18]: 12111
      0.02201 [    24]: 20211
      0.02140 [     4]: 02121
      0.01173 [    32]: 22011
      0.01091 [    13]: 11211
      0.00767 [    16]: 12021
      0.00631 [    23]: 20121
      0.00617 [    11]: 11121
      0.00603 [     6]: 10122
      0.00492 [    28]: 21111
      0.00456 [    21]: 12210
      0.00377 [    19]: 12120
      0.00289 [     8]: 10221
ROOT  17:  E=   -3200.1541388390 Eh  1.460 eV  11777.6 cm**-1
      0.25560 [     8]: 10221
      0.16237 [    26]: 21021
      0.11448 [    19]: 12120
      0.09761 [    16]: 12021
      0.07311 [     2]: 01221
      0.04856 [    23]: 20121
      0.04120 [    14]: 11220
      0.03116 [     1]: 01212
      0.02133 [    10]: 11112
      0.02021 [    13]: 11211
      0.02013 [    28]: 21111
      0.01956 [     0]: 01122
      0.01832 [    15]: 12012
      0.01683 [     4]: 02121
      0.01669 [    29]: 21120
      0.01274 [    11]: 11121
      0.00636 [    18]: 12111
      0.00589 [     9]: 11022
      0.00459 [    25]: 21012
      0.00360 [    21]: 12210
      0.00341 [    24]: 20211
ROOT  18:  E=   -3200.1536909519 Eh  1.472 eV  11875.9 cm**-1
      0.17481 [     2]: 01221
      0.17102 [    26]: 21021
      0.13277 [     4]: 02121
      0.11265 [     8]: 10221
      0.07791 [    23]: 20121
      0.06444 [    14]: 11220
      0.05199 [    19]: 12120
      0.04736 [    11]: 11121
      0.02294 [     7]: 10212
      0.01856 [    10]: 11112
      0.01760 [    22]: 20112
      0.01718 [    24]: 20211
      0.01480 [    28]: 21111
      0.01472 [    18]: 12111
      0.01093 [    16]: 12021
      0.00882 [     5]: 02211
      0.00814 [     0]: 01122
      0.00691 [     6]: 10122
      0.00631 [    32]: 22011
      0.00491 [     1]: 01212
      0.00374 [    29]: 21120
      0.00319 [    21]: 12210
      0.00315 [    13]: 11211
ROOT  19:  E=   -3200.1513267221 Eh  1.537 eV  12394.7 cm**-1
      0.41816 [    18]: 12111
      0.20216 [    32]: 22011
      0.13576 [    28]: 21111
      0.05616 [    13]: 11211
      0.03144 [    15]: 12012
      0.02307 [    10]: 11112
      0.01660 [    11]: 11121
      0.01459 [     0]: 01122
      0.01399 [     9]: 11022
      0.01134 [     5]: 02211
      0.01098 [     3]: 02112
      0.00987 [    25]: 21012
      0.00934 [    24]: 20211
      0.00890 [    33]: 22101
      0.00649 [    29]: 21120
      0.00642 [    20]: 12201
      0.00609 [    21]: 12210
      0.00387 [    31]: 21210
      0.00321 [     2]: 01221
      0.00274 [     7]: 10212
ROOT  20:  E=   -3200.1493169672 Eh  1.591 eV  12835.8 cm**-1
      0.44666 [    10]: 11112
      0.18534 [    13]: 11211
      0.13009 [     1]: 01212
      0.05853 [    25]: 21012
      0.03489 [    18]: 12111
      0.03150 [     3]: 02112
      0.03072 [    11]: 11121
      0.02410 [    22]: 20112
      0.01151 [    15]: 12012
      0.00762 [    16]: 12021
      0.00656 [    19]: 12120
      0.00543 [    26]: 21021
      0.00468 [     0]: 01122
      0.00298 [     7]: 10212
      0.00289 [    31]: 21210
      0.00253 [    21]: 12210
ROOT  21:  E=   -3200.1487850768 Eh  1.606 eV  12952.6 cm**-1
      0.21272 [     7]: 10212
      0.13831 [     5]: 02211
      0.13402 [    22]: 20112
      0.09611 [     1]: 01212
      0.06959 [    18]: 12111
      0.05874 [    10]: 11112
      0.04300 [    32]: 22011
      0.04186 [    28]: 21111
      0.03368 [    25]: 21012
      0.03075 [    13]: 11211
      0.02323 [     2]: 01221
      0.01971 [     3]: 02112
      0.01755 [    26]: 21021
      0.01328 [    31]: 21210
      0.00978 [    11]: 11121
      0.00754 [    21]: 12210
      0.00712 [     4]: 02121
      0.00686 [     0]: 01122
      0.00539 [     6]: 10122
      0.00503 [    34]: 22110
      0.00461 [    23]: 20121
      0.00410 [    14]: 11220
      0.00341 [    33]: 22101
      0.00338 [    20]: 12201
      0.00256 [    19]: 12120
ROOT  22:  E=   -3200.1487508260 Eh  1.607 eV  12960.1 cm**-1
      0.18319 [    25]: 21012
      0.12099 [    13]: 11211
      0.11938 [     7]: 10212
      0.08766 [    10]: 11112
      0.07598 [    24]: 20211
      0.07312 [    32]: 22011
      0.06382 [     1]: 01212
      0.03616 [    15]: 12012
      0.03080 [    28]: 21111
      0.02772 [    22]: 20112
      0.02734 [    23]: 20121
      0.02625 [     8]: 10221
      0.01821 [     3]: 02112
      0.01700 [    21]: 12210
      0.01538 [    11]: 11121
      0.01490 [    18]: 12111
      0.01316 [    16]: 12021
      0.01271 [    31]: 21210
      0.00828 [     6]: 10122
      0.00681 [     4]: 02121
      0.00411 [     9]: 11022
      0.00405 [    27]: 21102
      0.00315 [    19]: 12120
ROOT  23:  E=   -3200.1451490988 Eh  1.705 eV  13750.6 cm**-1
      0.19185 [    22]: 20112
      0.15327 [    18]: 12111
      0.15047 [    24]: 20211
      0.13282 [     5]: 02211
      0.07463 [     3]: 02112
      0.05823 [    13]: 11211
      0.05005 [    34]: 22110
      0.03741 [    28]: 21111
      0.02772 [     7]: 10212
      0.02421 [    15]: 12012
      0.02039 [     1]: 01212
      0.01891 [    25]: 21012
      0.01774 [     4]: 02121
      0.00836 [    31]: 21210
      0.00665 [    16]: 12021
      0.00586 [    10]: 11112
      0.00484 [    11]: 11121
      0.00308 [    32]: 22011
      0.00307 [    20]: 12201
ROOT  24:  E=   -3200.1306594035 Eh  2.099 eV  16930.7 cm**-1
      0.39946 [    18]: 12111
      0.14092 [     3]: 02112
      0.09385 [    13]: 11211
      0.06243 [    32]: 22011
      0.04673 [    21]: 12210
      0.04518 [    19]: 12120
      0.03527 [     5]: 02211
      0.02837 [    34]: 22110
      0.02650 [    29]: 21120
      0.01340 [     2]: 01221
      0.01327 [    28]: 21111
      0.01165 [    24]: 20211
      0.01143 [    10]: 11112
      0.01075 [    17]: 12102
      0.00810 [     7]: 10212
      0.00666 [     4]: 02121
      0.00636 [    23]: 20121
      0.00605 [    22]: 20112
      0.00482 [    16]: 12021
      0.00449 [     8]: 10221
      0.00418 [    26]: 21021
      0.00398 [    12]: 11202
      0.00329 [    15]: 12012
      0.00293 [    11]: 11121
      0.00282 [    31]: 21210
      0.00278 [     0]: 01122
      0.00267 [     6]: 10122
ROOT  25:  E=   -3200.1305492145 Eh  2.102 eV  16954.9 cm**-1
      0.35328 [    28]: 21111
      0.17439 [    13]: 11211
      0.08675 [    25]: 21012
      0.05721 [    10]: 11112
      0.04658 [    21]: 12210
      0.04092 [    18]: 12111
      0.03704 [    24]: 20211
      0.02874 [    34]: 22110
      0.02381 [    23]: 20121
      0.02081 [    27]: 21102
      0.02077 [    32]: 22011
      0.01838 [     4]: 02121
      0.01292 [    11]: 11121
      0.01176 [     1]: 01212
      0.01109 [    14]: 11220
      0.01087 [    19]: 12120
      0.00946 [    22]: 20112
      0.00618 [    29]: 21120
      0.00548 [    12]: 11202
      0.00523 [    26]: 21021
      0.00514 [     7]: 10212
      0.00352 [    31]: 21210
ROOT  26:  E=   -3200.1299467863 Eh  2.119 eV  17087.1 cm**-1
      0.19804 [     4]: 02121
      0.17815 [    23]: 20121
      0.16474 [    28]: 21111
      0.08839 [    16]: 12021
      0.08261 [    13]: 11211
      0.07468 [     8]: 10221
      0.03343 [     2]: 01221
      0.03083 [    18]: 12111
      0.02312 [    25]: 21012
      0.02119 [     6]: 10122
      0.01693 [     7]: 10212
      0.01399 [     0]: 01122
      0.01387 [    31]: 21210
      0.01154 [    26]: 21021
      0.00694 [    19]: 12120
      0.00689 [    22]: 20112
      0.00598 [    10]: 11112
      0.00449 [    29]: 21120
      0.00430 [     3]: 02112
      0.00331 [    27]: 21102
      0.00287 [    32]: 22011
      0.00264 [    24]: 20211
ROOT  27:  E=   -3200.1189067908 Eh  2.419 eV  19510.1 cm**-1
      0.18879 [    15]: 12012
      0.14848 [    21]: 12210
      0.12845 [    32]: 22011
      0.08436 [     5]: 02211
      0.07258 [     3]: 02112
      0.06279 [    28]: 21111
      0.06158 [    18]: 12111
      0.05272 [    34]: 22110
      0.04844 [    13]: 11211
      0.03015 [     7]: 10212
      0.02625 [    19]: 12120
      0.01835 [    10]: 11112
      0.01551 [    14]: 11220
      0.01514 [    17]: 12102
      0.00664 [    29]: 21120
      0.00577 [     1]: 01212
      0.00575 [    22]: 20112
      0.00501 [    16]: 12021
      0.00442 [    11]: 11121
      0.00385 [     9]: 11022
      0.00379 [    26]: 21021
      0.00311 [    20]: 12201
      0.00259 [    27]: 21102
ROOT  28:  E=   -3200.1186709445 Eh  2.425 eV  19561.9 cm**-1
      0.39659 [    28]: 21111
      0.10076 [     1]: 01212
      0.09510 [    31]: 21210
      0.05644 [    10]: 11112
      0.04362 [    25]: 21012
      0.04280 [    18]: 12111
      0.04247 [    13]: 11211
      0.02931 [    24]: 20211
      0.02803 [    30]: 21201
      0.02386 [    34]: 22110
      0.01587 [    19]: 12120
      0.01481 [    26]: 21021
      0.01380 [    22]: 20112
      0.01344 [     5]: 02211
      0.01218 [    15]: 12012
      0.01214 [     7]: 10212
      0.01013 [     3]: 02112
      0.00809 [    23]: 20121
      0.00755 [     0]: 01122
      0.00749 [    11]: 11121
      0.00599 [    29]: 21120
      0.00301 [    17]: 12102
      0.00290 [     4]: 02121
ROOT  29:  E=   -3200.1147700114 Eh  2.532 eV  20418.0 cm**-1
      0.32292 [    13]: 11211
      0.23800 [    28]: 21111
      0.13806 [    10]: 11112
      0.06933 [    31]: 21210
      0.06883 [     1]: 01212
      0.04317 [    18]: 12111
      0.02280 [    21]: 12210
      0.01791 [    12]: 11202
      0.01608 [    11]: 11121
      0.01559 [    29]: 21120
      0.01281 [    15]: 12012
      0.00722 [    14]: 11220
      0.00588 [    27]: 21102
      0.00348 [    19]: 12120
      0.00312 [     0]: 01122
      0.00281 [     2]: 01221
ROOT  30:  E=   -3200.1133997894 Eh  2.569 eV  20718.7 cm**-1
      0.34749 [    13]: 11211
      0.22209 [    28]: 21111
      0.06232 [    23]: 20121
      0.05969 [     1]: 01212
      0.05867 [     5]: 02211
      0.04873 [     4]: 02121
      0.03050 [    26]: 21021
      0.02478 [    10]: 11112
      0.02375 [    31]: 21210
      0.02037 [     8]: 10221
      0.02007 [    32]: 22011
      0.01810 [    16]: 12021
      0.00990 [    29]: 21120
      0.00875 [    19]: 12120
      0.00865 [     6]: 10122
      0.00789 [    11]: 11121
      0.00659 [    22]: 20112
      0.00566 [    15]: 12012
      0.00456 [    34]: 22110
      0.00357 [     3]: 02112
      0.00265 [    18]: 12111
ROOT  31:  E=   -3200.1108698641 Eh  2.638 eV  21274.0 cm**-1
      0.18632 [    18]: 12111
      0.17764 [    34]: 22110
      0.16363 [    21]: 12210
      0.15576 [    24]: 20211
      0.06685 [    32]: 22011
      0.04245 [     7]: 10212
      0.04141 [     3]: 02112
      0.03095 [    28]: 21111
      0.02345 [    31]: 21210
      0.02176 [     5]: 02211
      0.01861 [    33]: 22101
      0.01404 [    15]: 12012
      0.01293 [    22]: 20112
      0.01142 [    23]: 20121
      0.00815 [    13]: 11211
      0.00667 [     1]: 01212
      0.00384 [    20]: 12201
ROOT  32:  E=   -3200.1001183433 Eh  2.930 eV  23633.7 cm**-1
      0.35303 [    29]: 21120
      0.15468 [    19]: 12120
      0.09436 [     0]: 01122
      0.08956 [    16]: 12021
      0.06706 [     8]: 10221
      0.04387 [    28]: 21111
      0.04113 [    18]: 12111
      0.02672 [     6]: 10122
      0.02339 [    14]: 11220
      0.02188 [     1]: 01212
      0.01460 [    31]: 21210
      0.01421 [     3]: 02112
      0.00735 [     2]: 01221
      0.00703 [    11]: 11121
      0.00530 [    24]: 20211
      0.00529 [    21]: 12210
      0.00494 [    25]: 21012
      0.00466 [     9]: 11022
      0.00411 [     5]: 02211
      0.00391 [    32]: 22011
      0.00291 [    10]: 11112
      0.00279 [     4]: 02121
ROOT  33:  E=   -3200.1000166478 Eh  2.933 eV  23656.0 cm**-1
      0.28758 [    19]: 12120
      0.14451 [    14]: 11220
      0.09901 [    29]: 21120
      0.08489 [     6]: 10122
      0.04334 [     2]: 01221
      0.04298 [     0]: 01122
      0.04282 [     9]: 11022
      0.04038 [    16]: 12021
      0.03133 [    18]: 12111
      0.02838 [    13]: 11211
      0.02527 [    26]: 21021
      0.01618 [    23]: 20121
      0.01551 [    11]: 11121
      0.01393 [    10]: 11112
      0.01248 [     8]: 10221
      0.01188 [    21]: 12210
      0.01155 [    32]: 22011
      0.00976 [    15]: 12012
      0.00896 [    28]: 21111
      0.00707 [    31]: 21210
      0.00523 [     3]: 02112
      0.00290 [    22]: 20112
ROOT  34:  E=   -3200.0953307784 Eh  3.060 eV  24684.4 cm**-1
      0.43762 [    14]: 11220
      0.19497 [    29]: 21120
      0.07729 [     9]: 11022
      0.06407 [    19]: 12120
      0.03872 [    13]: 11211
      0.03767 [     2]: 01221
      0.02381 [     0]: 01122
      0.02205 [    28]: 21111
      0.01763 [    26]: 21021
      0.01424 [    11]: 11121
      0.01216 [     6]: 10122
      0.01140 [    10]: 11112
      0.01082 [    16]: 12021
      0.01024 [     8]: 10221
      0.00824 [    31]: 21210
      0.00821 [    18]: 12111
ROOT  35:  E=   -3200.0504764100 Eh  4.281 eV  34528.8 cm**-1
      0.33003 [    24]: 20211
      0.21659 [     5]: 02211
      0.16234 [    32]: 22011
      0.07670 [     3]: 02112
      0.05005 [     7]: 10212
      0.04906 [    18]: 12111
      0.02555 [    34]: 22110
      0.01775 [    23]: 20121
      0.01191 [    13]: 11211
      0.01130 [    21]: 12210
      0.00948 [    28]: 21111
      0.00818 [    15]: 12012
      0.00607 [    10]: 11112
      0.00377 [     1]: 01212
      0.00357 [    31]: 21210
      0.00342 [    29]: 21120
ROOT  36:  E=   -3200.0414500310 Eh  4.527 eV  36509.9 cm**-1
      0.27987 [    34]: 22110
      0.14412 [     3]: 02112
      0.09486 [    22]: 20112
      0.08006 [     7]: 10212
      0.07228 [    15]: 12012
      0.07169 [    21]: 12210
      0.05361 [    24]: 20211
      0.04806 [    31]: 21210
      0.03031 [    18]: 12111
      0.01863 [     1]: 01212
      0.01850 [    25]: 21012
      0.01581 [     5]: 02211
      0.01337 [    23]: 20121
      0.01195 [    13]: 11211
      0.01048 [    33]: 22101
      0.00626 [    20]: 12201
      0.00538 [    28]: 21111
      0.00396 [    17]: 12102
      0.00288 [    19]: 12120
      0.00279 [     8]: 10221
      0.00256 [     6]: 10122
ROOT  37:  E=   -3200.0210717276 Eh  5.081 eV  40982.4 cm**-1
      0.34293 [    21]: 12210
      0.24709 [    34]: 22110
      0.10450 [    18]: 12111
      0.10066 [    15]: 12012
      0.05057 [    32]: 22011
      0.03641 [     7]: 10212
      0.02514 [    20]: 12201
      0.02084 [    33]: 22101
      0.01665 [    22]: 20112
      0.01266 [     3]: 02112
      0.01263 [    17]: 12102
      0.00819 [     5]: 02211
      0.00496 [    24]: 20211
      0.00454 [    19]: 12120
ROOT  38:  E=   -3200.0207788719 Eh  5.089 eV  41046.7 cm**-1
      0.59350 [    31]: 21210
      0.08860 [     1]: 01212
      0.08528 [    13]: 11211
      0.04936 [    25]: 21012
      0.03320 [    29]: 21120
      0.03006 [    21]: 12210
      0.02684 [    34]: 22110
      0.02166 [    30]: 21201
      0.01735 [    24]: 20211
      0.01023 [     7]: 10212
      0.00581 [    28]: 21111
      0.00449 [    22]: 20112
      0.00394 [     0]: 01122
      0.00374 [    11]: 11121
      0.00331 [     3]: 02112
      0.00304 [    15]: 12012
      0.00290 [     2]: 01221
ROOT  39:  E=   -3199.7671567703 Eh 11.991 eV  96710.3 cm**-1
      0.53924 [    17]: 12102
      0.16809 [    20]: 12201
      0.10080 [    12]: 11202
      0.07950 [    18]: 12111
      0.02347 [    33]: 22101
      0.02236 [    15]: 12012
      0.01967 [    30]: 21201
      0.01154 [    27]: 21102
      0.00920 [    13]: 11211
      0.00658 [    21]: 12210
      0.00654 [    10]: 11112
      0.00412 [    28]: 21111
ROOT  40:  E=   -3199.7664810749 Eh 12.009 eV  96858.6 cm**-1
      0.74041 [    27]: 21102
      0.07222 [    12]: 11202
      0.06087 [    30]: 21201
      0.04483 [    28]: 21111
      0.03157 [    25]: 21012
      0.02144 [    20]: 12201
      0.00851 [    33]: 22101
      0.00587 [    10]: 11112
      0.00529 [    13]: 11211
ROOT  41:  E=   -3199.7624355992 Eh 12.119 eV  97746.5 cm**-1
      0.55554 [    12]: 11202
      0.10661 [    27]: 21102
      0.10270 [    17]: 12102
      0.05960 [    30]: 21201
      0.04879 [    10]: 11112
      0.04168 [    13]: 11211
      0.03152 [    20]: 12201
      0.01949 [    28]: 21111
      0.01559 [    18]: 12111
      0.00439 [    25]: 21012
      0.00405 [    15]: 12012
ROOT  42:  E=   -3199.7533994724 Eh 12.365 eV  99729.7 cm**-1
      0.52338 [    33]: 22101
      0.27102 [    20]: 12201
      0.07428 [    30]: 21201
      0.04059 [    17]: 12102
      0.02177 [    32]: 22011
      0.02051 [    34]: 22110
      0.01749 [    18]: 12111
      0.01056 [    21]: 12210
      0.00999 [    27]: 21102
      0.00456 [    28]: 21111
      0.00276 [    31]: 21210
ROOT  43:  E=   -3199.7157949316 Eh 13.388 eV 107982.9 cm**-1
      0.38827 [    20]: 12201
      0.31570 [    33]: 22101
      0.20788 [    17]: 12102
      0.02545 [    18]: 12111
      0.01504 [    21]: 12210
      0.01336 [    32]: 22011
      0.01235 [    34]: 22110
      0.00860 [    15]: 12012
      0.00607 [    27]: 21102
      0.00522 [    30]: 21201
ROOT  44:  E=   -3199.7151394416 Eh 13.406 eV 108126.8 cm**-1
      0.66799 [    30]: 21201
      0.12789 [    12]: 11202
      0.06933 [    28]: 21111
      0.05222 [    33]: 22101
      0.02589 [    31]: 21210
      0.01624 [    27]: 21102
      0.01064 [    10]: 11112
      0.00985 [    13]: 11211
      0.00915 [    20]: 12201

                 <<<<<<<<<<<<<<<<<<INITIAL CI STATE CHECK>>>>>>>>>>>>>>>>>>

   E(CAS)= -3200.152399852 Eh DE=    0.000000e+00
   --- Energy gap subspaces: Ext-Act = 0.058   Act-Int = 0.061
   N(occ)=  1.20000 1.20000 1.20000 1.20000 1.20000
   ||g|| =     7.172566e-04 Max(G)=    1.374707e-04 Rot=208,162
                     ---- THE CAS-SCF GRADIENT HAS CONVERGED ----
                            --- FINALIZING ORBITALS ---
                    ---- DOING ONE FINAL ITERATION FOR PRINTING ----
   --- Forming Natural Orbitals
   --- Canonicalize Internal Space
   --- Canonicalize External Space

MACRO-ITERATION   2: 
   --- Inactive Energy E0 = -3191.49092381 Eh
   --- All densities will be recomputed
CI-ITERATION   0: 
 -3200.268771592   0.000000000000 (    0.00)
 -3200.213213616   0.000000000000
 -3200.201469766   0.000000000000
 -3200.201169349   0.000000000000
 -3200.196696982   0.000000000000
   CI-PROBLEM SOLVED
   DENSITIES MADE
CI-ITERATION   0: 
 -3200.207801349   0.000000000000 (    0.00)
 -3200.197660009   0.000000000000
 -3200.197418418   0.000000000000
 -3200.192226348   0.000000000000
 -3200.189887098   0.000000000000
 -3200.189115344   0.000000000000
 -3200.188972048   0.000000000000
 -3200.188374407   0.000000000000
 -3200.180217485   0.000000000000
 -3200.179957184   0.000000000000
 -3200.175912517   0.000000000000
 -3200.165012799   0.000000000000
 -3200.164512329   0.000000000000
 -3200.161586246   0.000000000000
 -3200.160302449   0.000000000000
 -3200.160162847   0.000000000000
 -3200.156394651   0.000000000000
 -3200.154138838   0.000000000000
 -3200.153690951   0.000000000000
 -3200.151326721   0.000000000000
 -3200.149316966   0.000000000000
 -3200.148785076   0.000000000000
 -3200.148750825   0.000000000000
 -3200.145149098   0.000000000000
 -3200.130659403   0.000000000000
 -3200.130549213   0.000000000000
 -3200.129946785   0.000000000000
 -3200.118906790   0.000000000000
 -3200.118670943   0.000000000000
 -3200.114770010   0.000000000000
 -3200.113399788   0.000000000000
 -3200.110869863   0.000000000000
 -3200.100118342   0.000000000000
 -3200.100016647   0.000000000000
 -3200.095330777   0.000000000000
 -3200.050476409   0.000000000000
 -3200.041450030   0.000000000000
 -3200.021071726   0.000000000000
 -3200.020778871   0.000000000000
 -3199.767156769   0.000000000000
 -3199.766481074   0.000000000000
 -3199.762435598   0.000000000000
 -3199.753399471   0.000000000000
 -3199.715794930   0.000000000000
 -3199.715139440   0.000000000000
   CI-PROBLEM SOLVED
   DENSITIES MADE
   E(CAS)= -3200.152399851 Eh DE=    9.877112e-10
   --- Energy gap subspaces: Ext-Act = 0.057   Act-Int = 0.091
   N(occ)=  1.20000 1.20000 1.20000 1.20000 1.20000
   ||g|| =     7.172566e-04 Max(G)=    1.132661e-04 Rot=208,162
--------------
CASSCF RESULTS
--------------

Final CASSCF energy       : -3200.152399851 Eh  -87080.5739 eV

----------------
ORBITAL ENERGIES
----------------

  NO   OCC          E(Eh)            E(eV) 
   0   2.0000    -220.497524     -6000.0427 
   1   2.0000     -26.332171      -716.5348 
   2   2.0000     -22.265949      -605.8873 
   3   2.0000     -22.265864      -605.8850 
   4   2.0000     -22.252300      -605.5159 
   5   2.0000      -4.722858      -128.5155 
   6   2.0000      -4.720078      -128.4399 
   7   2.0000      -4.717591      -128.3722 
   8   2.0000      -4.717479      -128.3691 
   9   2.0000      -4.716894      -128.3532 
  10   2.0000      -4.716304      -128.3372 
  11   2.0000      -4.714986      -128.3013 
  12   2.0000      -4.714562      -128.2898 
  13   2.0000      -4.712779      -128.2412 
  14   2.0000      -4.711064      -128.1946 
  15   2.0000      -4.708187      -128.1163 
  16   2.0000      -4.708019      -128.1117 
  17   2.0000      -4.707863      -128.1075 
  18   2.0000      -4.707070      -128.0859 
  19   2.0000      -4.706515      -128.0708 
  20   2.0000      -4.693765      -127.7238 
  21   2.0000      -3.388887       -92.2163 
  22   2.0000      -2.762393       -75.1685 
  23   2.0000      -2.760126       -75.1068 
  24   2.0000      -2.758870       -75.0727 
  25   2.0000      -2.758520       -75.0631 
  26   2.0000      -2.758274       -75.0564 
  27   2.0000      -2.757378       -75.0321 
  28   2.0000      -2.757220       -75.0278 
  29   2.0000      -2.755722       -74.9870 
  30   2.0000      -2.755385       -74.9778 
  31   2.0000      -2.754481       -74.9532 
  32   2.0000      -2.753903       -74.9375 
  33   2.0000      -2.753819       -74.9352 
  34   2.0000      -2.753506       -74.9267 
  35   2.0000      -2.753043       -74.9141 
  36   2.0000      -2.752892       -74.9100 
  37   2.0000      -2.752708       -74.9050 
  38   2.0000      -2.751890       -74.8827 
  39   2.0000      -2.751542       -74.8733 
  40   2.0000      -2.750726       -74.8511 
  41   2.0000      -2.750176       -74.8361 
  42   2.0000      -2.749653       -74.8219 
  43   2.0000      -2.749590       -74.8201 
  44   2.0000      -2.749255       -74.8110 
  45   2.0000      -2.748389       -74.7875 
  46   2.0000      -2.748331       -74.7859 
  47   2.0000      -2.747843       -74.7726 
  48   2.0000      -2.747442       -74.7617 
  49   2.0000      -2.747242       -74.7562 
  50   2.0000      -2.747014       -74.7501 
  51   2.0000      -2.746286       -74.7302 
  52   2.0000      -2.745999       -74.7224 
  53   2.0000      -2.745852       -74.7184 
  54   2.0000      -2.745464       -74.7079 
  55   2.0000      -2.744847       -74.6911 
  56   2.0000      -2.744648       -74.6857 
  57   2.0000      -2.742710       -74.6329 
  58   2.0000      -2.742457       -74.6260 
  59   2.0000      -2.742415       -74.6249 
  60   2.0000      -2.742020       -74.6142 
  61   2.0000      -2.741794       -74.6080 
  62   2.0000      -2.741417       -74.5977 
  63   2.0000      -2.741345       -74.5958 
  64   2.0000      -2.740876       -74.5830 
  65   2.0000      -2.740575       -74.5748 
  66   2.0000      -2.739922       -74.5571 
  67   2.0000      -2.729035       -74.2608 
  68   2.0000      -2.728923       -74.2578 
  69   2.0000      -2.727764       -74.2262 
  70   2.0000      -2.155674       -58.6589 
  71   2.0000      -2.155613       -58.6572 
  72   2.0000      -2.141460       -58.2721 
  73   2.0000      -0.560626       -15.2554 
  74   2.0000      -0.560370       -15.2484 
  75   2.0000      -0.558413       -15.1952 
  76   2.0000      -0.556321       -15.1383 
  77   2.0000      -0.548453       -14.9242 
  78   2.0000      -0.547976       -14.9112 
  79   2.0000      -0.547689       -14.9034 
  80   2.0000      -0.543378       -14.7861 
  81   2.0000      -0.543147       -14.7798 
  82   2.0000      -0.542420       -14.7600 
  83   2.0000      -0.539874       -14.6907 
  84   2.0000      -0.538529       -14.6541 
  85   2.0000      -0.537323       -14.6213 
  86   2.0000      -0.536798       -14.6070 
  87   2.0000      -0.534808       -14.5529 
  88   2.0000      -0.533952       -14.5296 
  89   2.0000      -0.532817       -14.4987 
  90   2.0000      -0.530800       -14.4438 
  91   2.0000      -0.530150       -14.4261 
  92   2.0000      -0.529768       -14.4157 
  93   2.0000      -0.527627       -14.3575 
  94   2.0000      -0.526750       -14.3336 
  95   2.0000      -0.525948       -14.3118 
  96   2.0000      -0.519114       -14.1258 
  97   2.0000      -0.518485       -14.1087 
  98   2.0000      -0.515403       -14.0248 
  99   2.0000      -0.515327       -14.0228 
 100   2.0000      -0.513562       -13.9747 
 101   2.0000      -0.512297       -13.9403 
 102   2.0000      -0.511352       -13.9146 
 103   2.0000      -0.510912       -13.9026 
 104   2.0000      -0.504708       -13.7338 
 105   2.0000      -0.504490       -13.7279 
 106   2.0000      -0.502959       -13.6862 
 107   2.0000      -0.489739       -13.3265 
 108   2.0000      -0.489095       -13.3090 
 109   2.0000      -0.486505       -13.2385 
 110   2.0000      -0.485186       -13.2026 
 111   2.0000      -0.483733       -13.1630 
 112   2.0000      -0.482598       -13.1322 
 113   2.0000      -0.480548       -13.0764 
 114   2.0000      -0.472112       -12.8468 
 115   2.0000      -0.469227       -12.7683 
 116   2.0000      -0.466919       -12.7055 
 117   2.0000      -0.465427       -12.6649 
 118   2.0000      -0.464640       -12.6435 
 119   2.0000      -0.463067       -12.6007 
 120   2.0000      -0.458397       -12.4736 
 121   2.0000      -0.456792       -12.4299 
 122   2.0000      -0.455171       -12.3858 
 123   2.0000      -0.454624       -12.3710 
 124   2.0000      -0.453718       -12.3463 
 125   2.0000      -0.450677       -12.2635 
 126   2.0000      -0.450395       -12.2559 
 127   2.0000      -0.449707       -12.2371 
 128   2.0000      -0.447520       -12.1776 
 129   2.0000      -0.445606       -12.1256 
 130   2.0000      -0.444064       -12.0836 
 131   2.0000      -0.441494       -12.0137 
 132   2.0000      -0.440071       -11.9749 
 133   2.0000      -0.438763       -11.9394 
 134   2.0000      -0.438028       -11.9194 
 135   2.0000      -0.436544       -11.8790 
 136   2.0000      -0.435261       -11.8440 
 137   2.0000      -0.431875       -11.7519 
 138   2.0000      -0.431638       -11.7455 
 139   2.0000      -0.429574       -11.6893 
 140   2.0000      -0.429271       -11.6811 
 141   2.0000      -0.427642       -11.6367 
 142   2.0000      -0.427105       -11.6221 
 143   2.0000      -0.422310       -11.4916 
 144   2.0000      -0.416217       -11.3259 
 145   2.0000      -0.416060       -11.3216 
 146   2.0000      -0.414688       -11.2842 
 147   2.0000      -0.414103       -11.2683 
 148   2.0000      -0.411646       -11.2014 
 149   2.0000      -0.405575       -11.0362 
 150   2.0000      -0.404364       -11.0033 
 151   2.0000      -0.398786       -10.8515 
 152   2.0000      -0.398534       -10.8447 
 153   2.0000      -0.378247       -10.2926 
 154   2.0000      -0.377294       -10.2667 
 155   2.0000      -0.359330        -9.7779 
 156   2.0000      -0.358546        -9.7565 
 157   2.0000      -0.263381        -7.1670 
 158   2.0000      -0.261763        -7.1229 
 159   2.0000      -0.236232        -6.4282 
 160   2.0000      -0.226850        -6.1729 
 161   1.2000      -0.110884        -3.0173 
 162   1.2000      -0.135822        -3.6959 
 163   1.2000      -0.081590        -2.2202 
 164   1.2000      -0.114666        -3.1202 
 165   1.2000      -0.085589        -2.3290 
 166   0.0000      -0.024739        -0.6732 
 167   0.0000      -0.019922        -0.5421 
 168   0.0000      -0.013020        -0.3543 
 169   0.0000      -0.004139        -0.1126 
 170   0.0000      -0.002670        -0.0727 
 171   0.0000       0.011249         0.3061 
 172   0.0000       0.024479         0.6661 
 173   0.0000       0.026451         0.7198 
 174   0.0000       0.040388         1.0990 
 175   0.0000       0.047447         1.2911 
 176   0.0000       0.048028         1.3069 
 177   0.0000       0.081011         2.2044 
 178   0.0000       0.081465         2.2168 
 179   0.0000       0.082619         2.2482 
 180   0.0000       0.089705         2.4410 
 181   0.0000       0.091087         2.4786 
 182   0.0000       0.095007         2.5853 
 183   0.0000       0.096457         2.6247 
 184   0.0000       0.106743         2.9046 
 185   0.0000       0.107636         2.9289 
 186   0.0000       0.110780         3.0145 
 187   0.0000       0.113068         3.0768 
 188   0.0000       0.114737         3.1222 
 189   0.0000       0.126571         3.4442 
 190   0.0000       0.127481         3.4689 
 191   0.0000       0.127760         3.4765 
 192   0.0000       0.145993         3.9727 
 193   0.0000       0.146614         3.9896 
 194   0.0000       0.148021         4.0279 
 195   0.0000       0.148879         4.0512 
 196   0.0000       0.152886         4.1602 
 197   0.0000       0.160810         4.3759 
 198   0.0000       0.161097         4.3837 
 199   0.0000       0.171926         4.6784 
 200   0.0000       0.176529         4.8036 
 201   0.0000       0.179388         4.8814 
 202   0.0000       0.179761         4.8915 
 203   0.0000       0.180184         4.9030 
 204   0.0000       0.184766         5.0277 
 205   0.0000       0.185611         5.0507 
 206   0.0000       0.187571         5.1041 
 207   0.0000       0.188124         5.1191 
 208   0.0000       0.195772         5.3272 
 209   0.0000       0.198239         5.3944 
 210   0.0000       0.205021         5.5789 
 211   0.0000       0.205123         5.5817 
 212   0.0000       0.207280         5.6404 
 213   0.0000       0.225182         6.1275 
 214   0.0000       0.226728         6.1696 
 215   0.0000       0.227880         6.2009 
 216   0.0000       0.235274         6.4021 
 217   0.0000       0.235580         6.4105 
 218   0.0000       0.238431         6.4880 
 219   0.0000       0.238993         6.5033 
 220   0.0000       0.247717         6.7407 
 221   0.0000       0.247791         6.7427 
 222   0.0000       0.249248         6.7824 
 223   0.0000       0.255866         6.9625 
 224   0.0000       0.271667         7.3924 
 225   0.0000       0.272251         7.4083 
 226   0.0000       0.278974         7.5913 
 227   0.0000       0.281352         7.6560 
 228   0.0000       0.283744         7.7211 
 229   0.0000       0.288799         7.8586 
 230   0.0000       0.290555         7.9064 
 231   0.0000       0.354705         9.6520 
 232   0.0000       0.356945         9.7130 
 233   0.0000       0.360069         9.7980 
 234   0.0000       0.374088        10.1795 
 235   0.0000       0.375138        10.2080 
 236   0.0000       0.378616        10.3027 
 237   0.0000       0.383023        10.4226 
 238   0.0000       0.385139        10.4802 
 239   0.0000       0.385508        10.4902 
 240   0.0000       0.386027        10.5043 
 241   0.0000       0.387800        10.5526 
 242   0.0000       0.403880        10.9901 
 243   0.0000       0.406084        11.0501 
 244   0.0000       0.408521        11.1164 
 245   0.0000       0.420235        11.4352 
 246   0.0000       0.422460        11.4957 
 247   0.0000       0.423303        11.5187 
 248   0.0000       0.424121        11.5409 
 249   0.0000       0.428703        11.6656 
 250   0.0000       0.434197        11.8151 
 251   0.0000       0.436517        11.8782 
 252   0.0000       0.441287        12.0080 
 253   0.0000       0.446920        12.1613 
 254   0.0000       0.469229        12.7684 
 255   0.0000       0.469474        12.7750 
 256   0.0000       0.478566        13.0224 
[...]
 3 117   70065.8    142.7   0.000000000   0.00000   0.00004   0.00009   0.00002
 3 118   71044.7    140.8   0.000000000   0.00000   0.00068   0.00001   0.00022
 3 119   71047.2    140.8   0.000000000   0.00000   0.00036   0.00037   0.00013
 3 120   71056.1    140.7   0.000000000   0.00000   0.00019   0.00062   0.00038
 3 121   71064.0    140.7   0.000000000   0.00000   0.00023   0.00105   0.00033
 3 122   71084.9    140.7   0.000000000   0.00000   0.00001   0.00037   0.00012
 3 123   71087.5    140.7   0.000000000   0.00000   0.00029   0.00015   0.00004
 3 124   73342.9    136.3   0.000000000   0.00000   0.00040   0.00003   0.00012
 3 125   73347.1    136.3   0.000000000   0.00000   0.00001   0.00004   0.00002
 3 126   73347.6    136.3   0.000000000   0.00000   0.00002   0.00080   0.00059
 3 127   73351.3    136.3   0.000000000   0.00000   0.00003   0.00044   0.00033
 3 128   73351.6    136.3   0.000000000   0.00000   0.00001   0.00054   0.00038
 3 129   73357.0    136.3   0.000000000   0.00000   0.00008   0.00012   0.00009
 3 130   75051.4    133.2   0.000000000   0.00000   0.00002   0.00008   0.00006
 3 131   75051.8    133.2   0.000000000   0.00000   0.00004   0.00002   0.00003
 3 132   75057.0    133.2   0.000000000   0.00000   0.00003   0.00000   0.00001
 3 133   75457.6    132.5   0.000000000   0.00000   0.00000   0.00000   0.00000
 3 134   75458.9    132.5   0.000000000   0.00000   0.00020   0.00019   0.00013
 3 135   75458.9    132.5   0.000000000   0.00000   0.00024   0.00022   0.00011
 3 136   81819.7    122.2   0.000000000   0.00000   0.00000   0.00001   0.00001
 3 137   81821.7    122.2   0.000000000   0.00000   0.00004   0.00002   0.00002
 3 138   81821.8    122.2   0.000000000   0.00000   0.00001   0.00000   0.00005
 3 139   84307.2    118.6   0.000000000   0.00000   0.00001   0.00004   0.00001
 3 140   84307.3    118.6   0.000000000   0.00000   0.00003   0.00001   0.00000
 3 141   84308.7    118.6   0.000000000   0.00000   0.00000   0.00000   0.00000
 3 142   86578.5    115.5   0.000000000   0.00000   0.00003   0.00000   0.00001
 3 143   86582.1    115.5   0.000000000   0.00000   0.00001   0.00001   0.00005
 3 144   86617.5    115.5   0.000000000   0.00000   0.00000   0.00000   0.00000
 3 145   86718.7    115.3   0.000000000   0.00000   0.00000   0.00000   0.00000
 3 146   86748.9    115.3   0.000000000   0.00000   0.00002   0.00001   0.00000
 3 147   86753.9    115.3   0.000000000   0.00000   0.00001   0.00000   0.00001
 3 148  130433.3     76.7   0.000000000   0.00000   0.00000   0.00001   0.00001
 3 149  130433.4     76.7   0.000000000   0.00000   0.00000   0.00007   0.00007
 3 150  130433.4     76.7   0.000000000   0.00000   0.00005   0.00002   0.00000
 3 151  154465.0     64.7   0.000000000   0.00000   0.00000   0.00001   0.00001
 3 152  154465.1     64.7   0.000000000   0.00000   0.00000   0.00011   0.00007
 3 153  154465.6     64.7   0.000000000   0.00000   0.00011   0.00002   0.00000
 3 154  209299.1     47.8   0.000000000   0.00000   0.00010   0.00001   0.00002
 3 155  209299.7     47.8   0.000000000   0.00000   0.00001   0.00002   0.00001
 3 156  209299.8     47.8   0.000000000   0.00000   0.00001   0.00001   0.00000
 3 157  477168.8     21.0   0.000000000   0.00000   0.00008   0.00002   0.00002
 3 158  477168.9     21.0   0.000000000   0.00000   0.00001   0.00001   0.00000
 3 159  477168.9     21.0   0.000000000   0.00000   0.00001   0.00001   0.00000
 4  5       2.4   4231447.5   0.000000000   0.00000   0.00000   0.00000   0.00000
 4  6       2.4   4140425.5   0.000000000   0.00000   0.00000   0.00000   0.00000
 4  7       3.2   3138443.9   0.000000000   0.00000   0.00000   0.00000   0.00000
 4  8   18035.2    554.5   0.000000000   0.00000   0.00014   0.00011   0.00005
 4  9   18035.7    554.5   0.000000000   0.00000   0.00081   0.00179   0.00106
 4 10   18035.7    554.5   0.000000000   0.00001   0.00213   0.00061   0.00068
 4 11   19961.2    501.0   0.000000000   0.00000   0.00029   0.00004   0.00012
 4 12   19965.1    500.9   0.000000000   0.00000   0.00051   0.00004   0.00009
 4 13   19975.8    500.6   0.000000000   0.00000   0.00010   0.00062   0.00017
 4 14   19983.3    500.4   0.000000000   0.00001   0.00036   0.00153   0.00274
 4 15   19992.5    500.2   0.000000000   0.00000   0.00046   0.00007   0.00016
 4 16   19996.0    500.1   0.000000000   0.00000   0.00037   0.00003   0.00006
 4 17   20311.9    492.3   0.000000000   0.00001   0.00034   0.00175   0.00225
 4 18   20312.5    492.3   0.000000000   0.00000   0.00002   0.00036   0.00016
 4 19   20312.7    492.3   0.000000000   0.00000   0.00000   0.00004   0.00005
 4 20   21021.4    475.7   0.000000000   0.00000   0.00041   0.00011   0.00012
 4 21   21022.4    475.7   0.000000000   0.00001   0.00235   0.00045   0.00063
 4 22   21022.5    475.7   0.000000000   0.00001   0.00074   0.00239   0.00060
 4 23   21113.2    473.6   0.000000000   0.00000   0.00001   0.00006   0.00009
 4 24   21117.9    473.5   0.000000000   0.00000   0.00001   0.00000   0.00000
 4 25   21118.2    473.5   0.000000000   0.00000   0.00004   0.00005   0.00014
 4 26   21289.0    469.7   0.000000000   0.00000   0.00000   0.00000   0.00001
 4 27   21293.2    469.6   0.000000000   0.00000   0.00091   0.00016   0.00001
 4 28   21294.6    469.6   0.000000000   0.00000   0.00017   0.00079   0.00044
 4 29   25391.6    393.8   0.000000000   0.00000   0.00009   0.00003   0.00004
 4 30   25400.0    393.7   0.000000000   0.00000   0.00004   0.00024   0.00032
 4 31   25406.6    393.6   0.000000000   0.00000   0.00002   0.00002   0.00002
 4 32   25696.7    389.2   0.000000000   0.00000   0.00007   0.00002   0.00004
 4 33   25697.3    389.1   0.000000000   0.00000   0.00009   0.00006   0.00007
 4 34   25709.3    389.0   0.000000000   0.00000   0.00004   0.00037   0.00051
 4 35   26444.7    378.1   0.000000000   0.00000   0.00014   0.00003   0.00001
 4 36   26455.0    378.0   0.000000000   0.00000   0.00015   0.00054   0.00103
 4 37   26461.3    377.9   0.000000000   0.00000   0.00004   0.00001   0.00002
 4 38   26750.2    373.8   0.000000000   0.00000   0.00002   0.00002   0.00003
 4 39   26772.7    373.5   0.000000000   0.00000   0.00023   0.00005   0.00012
 4 40   26778.9    373.4   0.000000000   0.00000   0.00010   0.00030   0.00067
 4 41   28650.0    349.0   0.000000000   0.00000   0.00026   0.00009   0.00003
 4 42   28656.8    349.0   0.000000000   0.00000   0.00005   0.00005   0.00001
 4 43   28661.3    348.9   0.000000000   0.00000   0.00005   0.00014   0.00012
 4 44   28976.5    345.1   0.000000000   0.00000   0.00036   0.00005   0.00007
 4 45   28994.1    344.9   0.000000000   0.00000   0.00012   0.00001   0.00003
 4 46   29012.4    344.7   0.000000000   0.00000   0.00020   0.00036   0.00005
 4 47   29123.3    343.4   0.000000000   0.00000   0.00006   0.00017   0.00013
 4 48   29143.7    343.1   0.000000000   0.00000   0.00017   0.00001   0.00003
 4 49   29152.8    343.0   0.000000000   0.00000   0.00023   0.00002   0.00007
 4 50   44246.4    226.0   0.000000000   0.00000   0.00048   0.00038   0.00028
 4 51   44246.5    226.0   0.000000000   0.00000   0.00062   0.00022   0.00009
 4 52   44247.0    226.0   0.000000000   0.00000   0.00005   0.00004   0.00003
 4 53   59315.1    168.6   0.000000000   0.00000   0.00018   0.00029   0.00016
 4 54   59325.3    168.6   0.000000000   0.00000   0.00027   0.00002   0.00022
 4 55   59358.4    168.5   0.000000000   0.00000   0.00001   0.00021   0.00008
 4 56   59404.2    168.3   0.000000000   0.00000   0.00015   0.00006   0.00000
 4 57   59450.2    168.2   0.000000000   0.00000   0.00012   0.00139   0.00128
 4 58   59472.7    168.1   0.000000000   0.00001   0.00243   0.00046   0.00048
 4 59   60449.5    165.4   0.000000000   0.00003   0.00025   0.00481   0.00288
 4 60   60449.9    165.4   0.000000000   0.00003   0.00509   0.00041   0.00033
 4 61   60454.2    165.4   0.000000000   0.00000   0.00034   0.00026   0.00019
 4 62   60634.3    164.9   0.000000000   0.00003   0.00483   0.00187   0.00132
 4 63   60637.1    164.9   0.000000000   0.00014   0.00132   0.01015   0.00576
 4 64   60639.5    164.9   0.000000000   0.00004   0.00656   0.00051   0.00069
 4 65   60650.0    164.9   0.000000000   0.00595   0.07423   0.01576   0.01369
 4 66   60651.1    164.9   0.000000000   0.00001   0.00276   0.00035   0.00040
 4 67   60739.5    164.6   0.000000000   0.00000   0.00006   0.00002   0.00007
 4 68   60739.5    164.6   0.000000000   0.00000   0.00004   0.00034   0.00015
 4 69   60740.0    164.6   0.000000000   0.00001   0.00272   0.00051   0.00047
 4 70   60823.9    164.4   0.000000000   0.00010   0.00455   0.00810   0.00405
 4 71   60824.5    164.4   0.000000000   0.00012   0.00854   0.00567   0.00422
 4 72   60838.3    164.4   0.000000000   0.00000   0.00000   0.00043   0.00002
 4 73   61104.1    163.7   0.000000000   0.00106   0.03053   0.01101   0.00281
 4 74   61109.8    163.6   0.000000000   0.00016   0.01008   0.00614   0.00442
 4 75   61117.1    163.6   0.000000000   0.00750   0.03732   0.06571   0.04226
 4 76   61130.2    163.6   0.000000000   0.00124   0.03003   0.01726   0.00650
 4 77   61133.1    163.6   0.000000000   0.00006   0.00687   0.00249   0.00213
 4 78   61191.9    163.4   0.000000000   0.00183   0.03889   0.01700   0.00522
 4 79   61191.9    163.4   0.000000000   0.00019   0.01381   0.00157   0.00025
 4 80   61296.1    163.1   0.000000000   0.00010   0.00460   0.00790   0.00406
 4 81   61299.5    163.1   0.000000000   0.00397   0.02652   0.05076   0.02623
 4 82   61316.2    163.1   0.000000000   0.00375   0.06024   0.01079   0.00078
 4 83   61552.3    162.5   0.000000000   0.00000   0.00062   0.00002   0.00016
 4 84   61553.5    162.5   0.000000000   0.00000   0.00022   0.00071   0.00086
 4 85   61609.8    162.3   0.000000000   0.00066   0.00411   0.02222   0.01236
 4 86   61619.8    162.3   0.000000000   0.00061   0.02451   0.00330   0.00094
 4 87   61631.2    162.3   0.000000000   0.00001   0.00320   0.00059   0.00061
 4 88   67132.8    149.0   0.000000000   0.00000   0.00001   0.00001   0.00000
 4 89   67137.5    148.9   0.000000000   0.00000   0.00143   0.00054   0.00017
 4 90   67138.4    148.9   0.000000000   0.00000   0.00040   0.00116   0.00076
 4 91   68391.2    146.2   0.000000000   0.00000   0.00019   0.00004   0.00003
 4 92   68402.0    146.2   0.000000000   0.00000   0.00093   0.00039   0.00041
 4 93   68402.7    146.2   0.000000000   0.00000   0.00056   0.00052   0.00064
 4 94   69182.3    144.5   0.000000000   0.00000   0.00023   0.00036   0.00004
 4 95   69184.9    144.5   0.000000000   0.00000   0.00054   0.00004   0.00007
 4 96   69219.5    144.5   0.000000000   0.00000   0.00002   0.00100   0.00097
 4 97   69249.4    144.4   0.000000000   0.00000   0.00062   0.00009   0.00015
 4 98   69289.4    144.3   0.000000000   0.00000   0.00122   0.00020   0.00026
 4 99   69305.7    144.3   0.000000000   0.00001   0.00010   0.00229   0.00237
 4 100   69647.5    143.6   0.000000000   0.00000   0.00021   0.00006   0.00000
 4 101   69653.3    143.6   0.000000000   0.00000   0.00056   0.00002   0.00006
 4 102   69684.2    143.5   0.000000000   0.00000   0.00021   0.00004   0.00026
 4 103   69715.8    143.4   0.000000000   0.00000   0.00000   0.00051   0.00020
 4 104   69741.2    143.4   0.000000000   0.00000   0.00014   0.00018   0.00013
 4 105   69779.8    143.3   0.000000000   0.00000   0.00006   0.00008   0.00028
 4 106   69857.6    143.1   0.000000000   0.00000   0.00068   0.00004   0.00010
 4 107   69867.0    143.1   0.000000000   0.00000   0.00005   0.00063   0.00003
 4 108   69880.2    143.1   0.000000000   0.00000   0.00010   0.00019   0.00002
 4 109   69889.9    143.1   0.000000000   0.00000   0.00054   0.00012   0.00013
 4 110   69900.6    143.1   0.000000000   0.00000   0.00001   0.00140   0.00105
 4 111   69905.7    143.0   0.000000000   0.00000   0.00025   0.00006   0.00080
 4 112   69909.1    143.0   0.000000000   0.00000   0.00003   0.00006   0.00001
 4 113   69920.4    143.0   0.000000000   0.00000   0.00025   0.00017   0.00009
 4 114   69943.5    143.0   0.000000000   0.00000   0.00088   0.00022   0.00020
 4 115   70006.1    142.8   0.000000000   0.00000   0.00000   0.00011   0.00003
 4 116   70008.3    142.8   0.000000000   0.00000   0.00001   0.00030   0.00009
 4 117   70065.8    142.7   0.000000000   0.00000   0.00006   0.00000   0.00003
 4 118   71044.7    140.8   0.000000000   0.00000   0.00027   0.00097   0.00004
 4 119   71047.2    140.8   0.000000000   0.00000   0.00017   0.00038   0.00035
 4 120   71056.1    140.7   0.000000000   0.00000   0.00077   0.00030   0.00011
 4 121   71064.0    140.7   0.000000000   0.00000   0.00003   0.00054   0.00020
 4 122   71084.9    140.7   0.000000000   0.00000   0.00013   0.00061   0.00015
 4 123   71087.5    140.7   0.000000000   0.00000   0.00012   0.00003   0.00042
 4 124   73342.9    136.3   0.000000000   0.00000   0.00000   0.00106   0.00077
 4 125   73347.1    136.3   0.000000000   0.00000   0.00003   0.00001   0.00002
 4 126   73347.6    136.3   0.000000000   0.00000   0.00029   0.00004   0.00015
 4 127   73351.3    136.3   0.000000000   0.00000   0.00018   0.00013   0.00006
 4 128   73351.6    136.3   0.000000000   0.00000   0.00022   0.00005   0.00004
 4 129   73357.0    136.3   0.000000000   0.00000   0.00003   0.00015   0.00010
 4 130   75051.4    133.2   0.000000000   0.00000   0.00005   0.00002   0.00003
 4 131   75051.8    133.2   0.000000000   0.00000   0.00002   0.00008   0.00006
 4 132   75057.0    133.2   0.000000000   0.00000   0.00000   0.00004   0.00004
 4 133   75457.6    132.5   0.000000000   0.00000   0.00000   0.00000   0.00000
 4 134   75458.9    132.5   0.000000000   0.00000   0.00024   0.00022   0.00011
 4 135   75458.9    132.5   0.000000000   0.00000   0.00019   0.00019   0.00013
 4 136   81819.7    122.2   0.000000000   0.00000   0.00001   0.00000   0.00000
 4 137   81821.7    122.2   0.000000000   0.00000   0.00001   0.00000   0.00005
 4 138   81821.8    122.2   0.000000000   0.00000   0.00004   0.00002   0.00002
 4 139   84307.1    118.6   0.000000000   0.00000   0.00003   0.00001   0.00000
 4 140   84307.3    118.6   0.000000000   0.00000   0.00001   0.00004   0.00001
 4 141   84308.7    118.6   0.000000000   0.00000   0.00000   0.00000   0.00000
 4 142   86578.5    115.5   0.000000000   0.00000   0.00001   0.00001   0.00005
 4 143   86582.1    115.5   0.000000000   0.00000   0.00003   0.00000   0.00001
 4 144   86617.5    115.5   0.000000000   0.00000   0.00000   0.00000   0.00000
 4 145   86718.7    115.3   0.000000000   0.00000   0.00000   0.00000   0.00000
 4 146   86748.9    115.3   0.000000000   0.00000   0.00001   0.00000   0.00002
 4 147   86753.9    115.3   0.000000000   0.00000   0.00002   0.00001   0.00000
 4 148  130433.3     76.7   0.000000000   0.00000   0.00001   0.00000   0.00000
 4 149  130433.4     76.7   0.000000000   0.00000   0.00005   0.00002   0.00000
 4 150  130433.4     76.7   0.000000000   0.00000   0.00000   0.00007   0.00007
 4 151  154465.0     64.7   0.000000000   0.00000   0.00001   0.00000   0.00000
 4 152  154465.1     64.7   0.000000000   0.00000   0.00011   0.00002   0.00000
 4 153  154465.6     64.7   0.000000000   0.00000   0.00000   0.00011   0.00007
 4 154  209299.1     47.8   0.000000000   0.00000   0.00001   0.00003   0.00001
 4 155  209299.7     47.8   0.000000000   0.00000   0.00009   0.00001   0.00001
 4 156  209299.8     47.8   0.000000000   0.00000   0.00005   0.00001   0.00001
 4 157  477168.8     21.0   0.000000000   0.00000   0.00002   0.00001   0.00000
 4 158  477168.9     21.0   0.000000000   0.00000   0.00007   0.00002   0.00002
 4 159  477168.9     21.0   0.000000000   0.00000   0.00005   0.00001   0.00001

------------------------------------------------------------------------------
                           SOC CORRECTED DIPOLE MOMENTS
------------------------------------------------------------------------------
      TX        TY        TZ           |T|
   (Debye)   (Debye)   (Debye)      (Debye)
------------------------------------------------------------------------------
   8.25870 -54.01729 -80.14815     97.00412

--------------
CASSCF TIMINGS
--------------

Total time                       ...     7441.2 sec
Sum of individual times          ...     7445.9 sec (100.1%)

Calculation of AO operators
   F(Core) operator              ...       44.0 sec (  0.6%)
   G(Act) operator               ...       41.8 sec (  0.6%)
   J(AO) operators               ...        0.0 sec (  0.0%)
Calculation of MO transformed quantities
   J(MO) operators               ...        5.6 sec (  0.1%)
   (pq|rs) integrals             ...        0.0 sec (  0.0%)
   AO->MO one electron integrals ...        0.2 sec (  0.0%)
Configuration interaction steps
   CI-setup phase                ...        0.0 sec (  0.0%)
   CI-solution phase             ...        0.1 sec (  0.0%)
   Generation of densities       ...        0.0 sec (  0.0%)
Orbital improvement steps
   Orbital gradient              ...        0.0 sec (  0.0%)
PT2 
   NEVPT2 time                   ...     7323.7 sec ( 98.4%)
Properties                       ...       16.0 sec (  0.2%)
   SOC integral calculation      ...       14.5 sec (  0.2%)
   SSC RMEs (incl. integrals)    ...        0.0 sec (  0.0%)
   SOC RMEs                      ...        0.1 sec (  0.0%)

Maximum memory used throughout the entire CASSCF-calculation: 2350.4 MB

-------------------------   --------------------
FINAL SINGLE POINT ENERGY     -3208.207807142239
-------------------------   --------------------


                            ***************************************
                            *     ORCA property calculations      *
                            ***************************************

                                    ---------------------
                                    Active property flags
                                    ---------------------
   (+) Dipole Moment


------------------------------------------------------------------------------
                       ORCA ELECTRIC PROPERTIES CALCULATION
------------------------------------------------------------------------------

Dipole Moment Calculation                       ... on
Quadrupole Moment Calculation                   ... off
Polarizability Calculation                      ... off
GBWName                                         ... nevpt2.gbw
Electron density                                ... nevpt2.scfp
The origin for moment calculation is the CENTER OF MASS  = (15.909268, 15.348384 14.892099)

-------------
DIPOLE MOMENT
-------------
                                X             Y             Z
Electronic contribution:     -3.11559      20.74332      30.52144
Nuclear contribution   :      3.24916     -21.25161     -31.53207
                        -----------------------------------------
Total Dipole Moment    :      0.13357      -0.50829      -1.01063
                        -----------------------------------------
Magnitude (a.u.)       :      1.13911
Magnitude (Debye)      :      2.89539



--------------------
Rotational spectrum 
--------------------
 
Rotational constants in cm-1:     0.000929     0.000766     0.000763 
Rotational constants in MHz :    27.840366    22.968478    22.886918 

 Dipole components along the rotational axes: 
x,y,z [a.u.] :    -1.133052     0.006440    -0.117148 
x,y,z [Debye]:    -2.879989     0.016370    -0.297767 

 

Timings for individual modules:

Sum of individual times         ...     7463.689 sec (= 124.395 min)
GTO integral calculation        ...       13.664 sec (=   0.228 min)   0.2 %
SCF iterations                  ...        5.744 sec (=   0.096 min)   0.1 %
CASSCF iterations               ...     7444.282 sec (= 124.071 min)  99.7 %
                             ****ORCA TERMINATED NORMALLY****
TOTAL RUN TIME: 0 days 2 hours 4 minutes 24 seconds 401 msec
