
                                 *****************
                                 * O   R   C   A *
                                 *****************

                                            #,                                       
                                            ###                                      
                                            ####                                     
                                            #####                                    
                                            ######                                   
                                           ########,                                 
                                     ,,################,,,,,                         
                               ,,#################################,,                 
                          ,,##########################################,,             
                       ,#########################################, ''#####,          
                    ,#############################################,,   '####,        
                  ,##################################################,,,,####,       
                ,###########''''           ''''###############################       
              ,#####''   ,,,,##########,,,,          '''####'''          '####       
            ,##' ,,,,###########################,,,                        '##       
           ' ,,###''''                  '''############,,,                           
         ,,##''                                '''############,,,,        ,,,,,,###''
      ,#''                                            '''#######################'''  
     '                                                          ''''####''''         
             ,#######,   #######,   ,#######,      ##                                
            ,#'     '#,  ##    ##  ,#'     '#,    #''#        ######   ,####,        
            ##       ##  ##   ,#'  ##            #'  '#       #        #'  '#        
            ##       ##  #######   ##           ,######,      #####,   #    #        
            '#,     ,#'  ##    ##  '#,     ,#' ,#      #,         ##   #,  ,#        
             '#######'   ##     ##  '#######'  #'      '#     #####' # '####'        



                  #######################################################
                  #                        -***-                        #
                  #          Department of theory and spectroscopy      #
                  #    Directorship and core code : Frank Neese         #
                  #        Max Planck Institute fuer Kohlenforschung    #
                  #                Kaiser Wilhelm Platz 1               #
                  #                 D-45470 Muelheim/Ruhr               #
                  #                      Germany                        #
                  #                                                     #
                  #                  All rights reserved                #
                  #                        -***-                        #
                  #######################################################


                         Program Version 5.0.3 -  RELEASE  -


 With contributions from (in alphabetic order):
   Daniel Aravena         : Magnetic Suceptibility
   Michael Atanasov       : Ab Initio Ligand Field Theory (pilot matlab implementation)
   Alexander A. Auer      : GIAO ZORA, VPT2 properties, NMR spectrum
   Ute Becker             : Parallelization
   Giovanni Bistoni       : ED, misc. LED, open-shell LED, HFLD
   Martin Brehm           : Molecular dynamics
   Dmytro Bykov           : SCF Hessian
   Vijay G. Chilkuri      : MRCI spin determinant printing, contributions to CSF-ICE
   Dipayan Datta          : RHF DLPNO-CCSD density
   Achintya Kumar Dutta   : EOM-CC, STEOM-CC
   Dmitry Ganyushin       : Spin-Orbit,Spin-Spin,Magnetic field MRCI
   Miquel Garcia          : C-PCM and meta-GGA Hessian, CC/C-PCM, Gaussian charge scheme
   Yang Guo               : DLPNO-NEVPT2, F12-NEVPT2, CIM, IAO-localization
   Andreas Hansen         : Spin unrestricted coupled pair/coupled cluster methods
   Benjamin Helmich-Paris : MC-RPA, TRAH-SCF, COSX integrals
   Lee Huntington         : MR-EOM, pCC
   Robert Izsak           : Overlap fitted RIJCOSX, COSX-SCS-MP3, EOM
   Marcus Kettner         : VPT2
   Christian Kollmar      : KDIIS, OOCD, Brueckner-CCSD(T), CCSD density, CASPT2, CASPT2-K
   Simone Kossmann        : Meta GGA functionals, TD-DFT gradient, OOMP2, MP2 Hessian
   Martin Krupicka        : Initial AUTO-CI
   Lucas Lang             : DCDCAS
   Marvin Lechner         : AUTO-CI (C++ implementation), FIC-MRCC
   Dagmar Lenk            : GEPOL surface, SMD
   Dimitrios Liakos       : Extrapolation schemes; Compound Job, initial MDCI parallelization
   Dimitrios Manganas     : Further ROCIS development; embedding schemes
   Dimitrios Pantazis     : SARC Basis sets
   Anastasios Papadopoulos: AUTO-CI, single reference methods and gradients
   Taras Petrenko         : DFT Hessian,TD-DFT gradient, ASA, ECA, R-Raman, ABS, FL, XAS/XES, NRVS
   Peter Pinski           : DLPNO-MP2, DLPNO-MP2 Gradient
   Christoph Reimann      : Effective Core Potentials
   Marius Retegan         : Local ZFS, SOC
   Christoph Riplinger    : Optimizer, TS searches, QM/MM, DLPNO-CCSD(T), (RO)-DLPNO pert. Triples
   Tobias Risthaus        : Range-separated hybrids, TD-DFT gradient, RPA, STAB
   Michael Roemelt        : Original ROCIS implementation
   Masaaki Saitow         : Open-shell DLPNO-CCSD energy and density
   Barbara Sandhoefer     : DKH picture change effects
   Avijit Sen             : IP-ROCIS
   Kantharuban Sivalingam : CASSCF convergence, NEVPT2, FIC-MRCI
   Bernardo de Souza      : ESD, SOC TD-DFT
   Georgi Stoychev        : AutoAux, RI-MP2 NMR, DLPNO-MP2 response
   Willem Van den Heuvel  : Paramagnetic NMR
   Boris Wezisla          : Elementary symmetry handling
   Frank Wennmohs         : Technical directorship


 We gratefully acknowledge several colleagues who have allowed us to
 interface, adapt or use parts of their codes:
   Stefan Grimme, W. Hujo, H. Kruse, P. Pracht,  : VdW corrections, initial TS optimization,
                  C. Bannwarth, S. Ehlert          DFT functionals, gCP, sTDA/sTD-DF
   Ed Valeev, F. Pavosevic, A. Kumar             : LibInt (2-el integral package), F12 methods
   Garnet Chan, S. Sharma, J. Yang, R. Olivares  : DMRG
   Ulf Ekstrom                                   : XCFun DFT Library
   Mihaly Kallay                                 : mrcc  (arbitrary order and MRCC methods)
   Jiri Pittner, Ondrej Demel                    : Mk-CCSD
   Frank Weinhold                                : gennbo (NPA and NBO analysis)
   Christopher J. Cramer and Donald G. Truhlar   : smd solvation model
   Lars Goerigk                                  : TD-DFT with DH, B97 family of functionals
   V. Asgeirsson, H. Jonsson                     : NEB implementation
   FAccTs GmbH                                   : IRC, NEB, NEB-TS, DLPNO-Multilevel, CI-OPT
                                                   MM, QMMM, 2- and 3-layer-ONIOM, Crystal-QMMM,
                                                   LR-CPCM, SF, NACMEs, symmetry and pop. for TD-DFT,
                                                   nearIR, NL-DFT gradient (VV10), updates on ESD,
                                                   ML-optimized integration grids
   S Lehtola, MJT Oliveira, MAL Marques          : LibXC Library
   Liviu Ungur et al                             : ANISO software


 Your calculation uses the libint2 library for the computation of 2-el integrals
 For citations please refer to: http://libint.valeyev.net

 Your ORCA version has been built with support for libXC version: 5.1.0
 For citations please refer to: https://tddft.org/programs/libxc/

 This ORCA versions uses:
   CBLAS   interface :  Fast vector & matrix operations
   LAPACKE interface :  Fast linear algebra routines
   SCALAPACK package :  Parallel linear algebra routines
   Shared memory     :  Shared parallel matrices
   BLAS/LAPACK       :  OpenBLAS 0.3.15  USE64BITINT DYNAMIC_ARCH NO_AFFINITY Sandybridge SINGLE_THREADED
        Core in use  :  Sandybridge
   Copyright (c) 2011-2014, The OpenBLAS Project




***************************************
The coordinates will be read from file: 8.xyz
***************************************


================================================================================

cite the ECPs for Au [Def2-ECP] as follows:
Ce-Yb(ecp-28): M. Dolg, H. Stoll, H.Preuss, J. Chem. Phys., 1989, 90, 1730-1734.
Y-Cd(ecp-28), Hf-Hg(ecp-46): D. Andrae,U. Haeussermann, M. Dolg, H. Stoll, H. Preuss, Theor. Chim. Acta, 1990, 77, 123-141.
In-Sb(ecp-28), Tl-Bi(ecp-46): B. Metz, H. Stoll, M. Dolg, J. Chem. Phys., 2000, 113, 2563-2569.
Te-Xe(ecp-28), Po-Rn(ecp-46): K. A. Peterson, D. Figgen, E. Goll, H. Stoll, M. Dolg, J. Chem. Phys., 2003, 119, 11113-11123.
Rb(ecp-28), Cs(ecp-46): T. Leininger, A. Nicklass, W. Kuechle, H. Stoll, M. Dolg, A. Bergner, Chem. Phys. Lett., 1996, 255, 274-280.
Sr(ecp-28), Ba(ecp-46): M. Kaupp, P. V. Schleyer, H. Stoll and H. Preuss, J. Chem. Phys., 1991, 94, 1360-1366.
La(ecp-46): M. Dolg, H. Stoll, A. Savin, H. Preuss, Theor. Chim. Acta, 1989, 75, 173-194.
Lu(ecp-28): X. Cao, M. Dolg, J. Chem. Phys., 2001, 115, 7348-7355.

ECP parameters for Au [Def2-ECP] have been obtained from:
TURBOMOLE (7.0.2)

----- Orbital basis set information -----
Your calculation utilizes the basis: def2-TZVP
   F. Weigend and R. Ahlrichs, Phys. Chem. Chem. Phys. 7, 3297 (2005).

----- AuxJ basis set information -----
Your calculation utilizes the auxiliary basis: def2/J
   F. Weigend, Phys. Chem. Chem. Phys. 8, 1057 (2006).

================================================================================
                                        WARNINGS
                       Please study these warnings very carefully!
================================================================================


WARNING: your system is open-shell and RHF/RKS was chosen
  ===> : WILL SWITCH to UHF/UKS


WARNING: Geometry Optimization
  ===> : Switching off AutoStart
         For restart on a previous wavefunction, please use MOREAD

INFO   : the flag for use of the SHARK integral package has been found!

================================================================================
                                       INPUT FILE
================================================================================
NAME = pbe.inp
|  1> %pal nprocs 1 end 
|  2> 
|  3> !PBE def2-TZVP OPT UNO
|  4> !SLOWCONV KDIIS 
|  5> 
|  6> %geom maxiter 300 end
|  7> 
|  8> *xyzfile 0 6 8.xyz                           ****END OF INPUT****
================================================================================

                       *****************************
                       * Geometry Optimization Run *
                       *****************************

Geometry optimization settings:
Update method            Update   .... BFGS
Choice of coordinates    CoordSys .... Z-matrix Internals
Initial Hessian          InHess   .... Almoef's Model

Convergence Tolerances:
Energy Change            TolE     ....  5.0000e-06 Eh
Max. Gradient            TolMAXG  ....  3.0000e-04 Eh/bohr
RMS Gradient             TolRMSG  ....  1.0000e-04 Eh/bohr
Max. Displacement        TolMAXD  ....  4.0000e-03 bohr
RMS Displacement         TolRMSD  ....  2.0000e-03 bohr
Strict Convergence                ....  False
------------------------------------------------------------------------------
                        ORCA OPTIMIZATION COORDINATE SETUP
------------------------------------------------------------------------------

The optimization will be done in new redundant internal coordinates
Making redundant internal coordinates   ...  (new redundants) done
Evaluating the initial hessian          ...  (Almloef) done
Evaluating the coordinates              ...  done
Calculating the B-matrix                .... done
Calculating the G-matrix                .... done
Diagonalizing the G-matrix              .... done
The first mode is                       ....   98
The number of degrees of freedom        ....   33

    -----------------------------------------------------------------
                    Redundant Internal Coordinates


    -----------------------------------------------------------------
         Definition                    Initial Value    Approx d2E/dq
    -----------------------------------------------------------------
      1. B(Au  2,Au  1)                  2.7293         0.008834   
      2. B(Au  4,Au  0)                  2.7297         0.008820   
      3. B(Au  4,Au  3)                  2.7512         0.008151   
      4. B(Au  5,Au  4)                  2.7513         0.008148   
      5. B(Au  9,Au  2)                  2.7513         0.008147   
      6. B(Au 11,Au  2)                  2.7515         0.008143   
      7. B(Mn 12,Au  8)                  2.5581         0.120464   
      8. B(Mn 12,Au  7)                  2.7011         0.071237   
      9. B(Mn 12,Au  3)                  2.8740         0.037745   
     10. B(Mn 12,Au 11)                  2.8741         0.037732   
     11. B(Mn 12,Au  6)                  2.7009         0.071289   
     12. B(Mn 12,Au 10)                  2.5582         0.120413   
     13. B(Mn 12,Au  9)                  2.8741         0.037734   
     14. B(Mn 12,Au  5)                  2.8740         0.037739   
     15. B(Mn 12,Au  1)                  2.5831         0.109894   
     16. B(Mn 12,Au  0)                  2.5831         0.109900   
     17. A(Au  4,Au  0,Mn 12)          106.9959         0.198633   
     18. A(Au  2,Au  1,Mn 12)          107.0054         0.198670   
     19. A(Au  1,Au  2,Au  9)           65.9721         0.143266   
     20. A(Au  9,Au  2,Au 11)           68.8999         0.142275   
     21. A(Au  1,Au  2,Au 11)           65.9733         0.143260   
     22. A(Au  4,Au  3,Mn 12)           98.7907         0.173553   
     23. A(Au  3,Au  4,Au  5)           68.8938         0.142288   
     24. A(Au  0,Au  4,Au  3)           65.9707         0.143252   
     25. A(Au  0,Au  4,Au  5)           65.9722         0.143249   
     26. A(Au  4,Au  5,Mn 12)           98.7877         0.173544   
     27. A(Au  2,Au  9,Mn 12)           98.7833         0.173538   
     28. A(Au  2,Au 11,Mn 12)           98.7802         0.173528   
     29. A(Au  1,Mn 12,Au  8)          112.4557         0.311185   
     30. A(Au  0,Mn 12,Au  8)          112.4550         0.311188   
     31. A(Au  0,Mn 12,Au  6)          116.5236         0.286312   
     32. A(Au  6,Mn 12,Au  7)           65.8207         0.267869   
     33. A(Au  5,Mn 12,Au  7)          115.8318         0.243887   
     34. A(Au  3,Mn 12,Au  5)           65.5695         0.223147   
     35. A(Au  1,Mn 12,Au  3)          116.6603         0.259861   
     36. A(Au  6,Mn 12,Au  9)          115.8384         0.243907   
     37. A(Au  5,Mn 12,Au  9)          114.3495         0.223138   
     38. A(Au  3,Mn 12,Au  7)          115.8322         0.243892   
     39. A(Au  7,Mn 12,Au  9)           61.4911         0.243882   
     40. A(Au  8,Mn 12,Au  9)          118.3180         0.263437   
     41. A(Au  0,Mn 12,Au 10)          112.4572         0.311167   
     42. A(Au  1,Mn 12,Au 10)          112.4518         0.311164   
     43. A(Au  3,Mn 12,Au 10)          118.3163         0.263433   
     44. A(Au  5,Mn 12,Au 10)           60.2471         0.263426   
     45. A(Au  6,Mn 12,Au 10)           68.1392         0.290434   
     46. A(Au  7,Mn 12,Au 10)           68.1346         0.290401   
     47. A(Au  1,Mn 12,Au  9)           66.0436         0.259849   
     48. A(Au  0,Mn 12,Au  9)          116.6539         0.259851   
     49. A(Au  1,Mn 12,Au  7)          116.5254         0.286277   
     50. A(Au  1,Mn 12,Au  5)          116.6602         0.259855   
     51. A(Au  8,Mn 12,Au 11)           60.2422         0.263436   
     52. A(Au  7,Mn 12,Au 11)           61.4890         0.243880   
     53. A(Au  7,Mn 12,Au  8)           68.1343         0.290420   
     54. A(Au  6,Mn 12,Au 11)          115.8358         0.243906   
     55. A(Au  9,Mn 12,Au 11)           65.5774         0.223132   
     56. A(Au 10,Mn 12,Au 11)          118.3154         0.263419   
     57. A(Au  3,Mn 12,Au 11)          114.3492         0.223141   
     58. A(Au  6,Mn 12,Au  8)           68.1356         0.290453   
     59. A(Au  5,Mn 12,Au  6)           61.4824         0.243912   
     60. A(Au  1,Mn 12,Au 11)           66.0464         0.259847   
     61. A(Au  0,Mn 12,Au 11)          116.6544         0.259849   
     62. A(Au  5,Mn 12,Au  8)          118.3132         0.263443   
     63. A(Au  9,Mn 12,Au 10)           60.2407         0.263420   
     64. A(Au  8,Mn 12,Au 10)          127.3333         0.315830   
     65. A(Au  3,Mn 12,Au  8)           60.2456         0.263449   
     66. A(Au  3,Mn 12,Au  6)           61.4825         0.243918   
     67. A(Au  0,Mn 12,Au  5)           66.0497         0.259857   
     68. A(Au  0,Mn 12,Au  3)           66.0477         0.259863   
     69. A(Au  0,Mn 12,Au  1)           61.1302         0.306617   
     70. D(Au  9,Au  2,Au  1,Mn 12)     38.2693         0.001502   
     71. D(Au 11,Au  2,Au  1,Mn 12)    -38.2684         0.001502   
     72. D(Au  5,Au  4,Au  3,Mn 12)     39.6037         0.001502   
     73. D(Au  5,Au  4,Au  0,Mn 12)    -38.2657         0.001502   
     74. D(Au  0,Au  4,Au  3,Mn 12)    -32.5911         0.001502   
     75. D(Au  3,Au  4,Au  0,Mn 12)     38.2658         0.001502   
     76. D(Mn 12,Au  5,Au  4,Au  3)    -39.6026         0.001502   
     77. D(Mn 12,Au  5,Au  4,Au  0)     32.5901         0.001502   
     78. D(Mn 12,Au  9,Au  2,Au 11)     39.6031         0.001502   
     79. D(Mn 12,Au  9,Au  2,Au  1)    -32.5904         0.001502   
     80. D(Au  2,Au  9,Au  3,Au  4)    104.7868         0.001500   
     81. D(Mn 12,Au 11,Au  2,Au  1)     32.5893         0.001502   
     82. D(Au  2,Au 11,Au  5,Au  4)   -104.7871         0.001500   
     83. D(Mn 12,Au 11,Au  2,Au  9)    -39.6026         0.001502   
     84. D(Au  1,Mn 12,Au  0,Au  4)    179.9985         0.001554   
     85. D(Au  1,Mn 12,Au 11,Au  2)    -34.6650         0.001507   
     86. D(Au  9,Mn 12,Au  1,Au  2)    -36.3404         0.001554   
     87. D(Au  7,Mn 12,Au  1,Au  2)      0.0001         0.001554   
     88. D(Au  5,Mn 12,Au  9,Au  2)    144.4131         0.001507   
     89. D(Au  1,Mn 12,Au  9,Au  2)     34.6668         0.001507   
     90. D(Au  3,Mn 12,Au  1,Au  2)    142.7068         0.001554   
     91. D(Au  0,Mn 12,Au  1,Au  2)    179.9985         0.001554   
     92. D(Au  8,Mn 12,Au  5,Au  4)     68.9462         0.001507   
     93. D(Au  5,Mn 12,Au  1,Au  2)   -142.7056         0.001554   
     94. D(Au  8,Mn 12,Au  9,Au  2)    -68.9470         0.001507   
     95. D(Au  8,Mn 12,Au  1,Au  2)     75.8713         0.001554   
     96. D(Au  3,Mn 12,Au 11,Au  2)   -144.4125         0.001507   
     97. D(Au 10,Mn 12,Au  1,Au  2)    -75.8699         0.001554   
     98. D(Au 11,Mn 12,Au  1,Au  2)     36.3409         0.001554   
     99. D(Au  0,Mn 12,Au  3,Au  4)     34.6722         0.001507   
    100. D(Au 11,Mn 12,Au  0,Au  4)   -142.7030         0.001554   
    101. D(Au 10,Mn 12,Au  0,Au  4)     75.8757         0.001554   
    102. D(Au  3,Mn 12,Au  5,Au  4)     38.7025         0.001507   
    103. D(Au  1,Mn 12,Au  5,Au  4)    -70.1650         0.001507   
    104. D(Au  9,Mn 12,Au  0,Au  4)    142.7047         0.001554   
    105. D(Au  0,Mn 12,Au  5,Au  4)    -34.6710         0.001507   
    106. D(Au 11,Mn 12,Au  3,Au  4)    144.4133         0.001507   
    107. D(Au  8,Mn 12,Au  0,Au  4)    -75.8731         0.001554   
    108. D(Au 10,Mn 12,Au  3,Au  4)    -68.9457         0.001507   
    109. D(Au  8,Mn 12,Au  3,Au  4)    172.0103         0.001507   
    110. D(Au  6,Mn 12,Au  5,Au  4)    108.2176         0.001507   
    111. D(Au  7,Mn 12,Au  5,Au  4)    146.8708         0.001507   
    112. D(Au  6,Mn 12,Au  0,Au  4)     -0.0012         0.001554   
    113. D(Au  9,Mn 12,Au  5,Au  4)   -144.4121         0.001507   
    114. D(Au 10,Mn 12,Au  5,Au  4)   -172.0082         0.001507   
    115. D(Au  0,Mn 12,Au  9,Au  2)     70.1608         0.001507   
    116. D(Au  7,Mn 12,Au  3,Au  4)   -146.8720         0.001507   
    117. D(Au  6,Mn 12,Au  3,Au  4)   -108.2193         0.001507   
    118. D(Au  6,Mn 12,Au  9,Au  2)   -146.8779         0.001507   
    119. D(Au  7,Mn 12,Au  9,Au  2)   -108.2217         0.001507   
    120. D(Au  5,Mn 12,Au  0,Au  4)     36.3351         0.001554   
    121. D(Au 10,Mn 12,Au  9,Au  2)    172.0110         0.001507   
    122. D(Au 11,Mn 12,Au  9,Au  2)    -38.7047         0.001507   
    123. D(Au  0,Mn 12,Au 11,Au  2)    -70.1626         0.001507   
    124. D(Au  5,Mn 12,Au  3,Au  4)    -38.7043         0.001507   
    125. D(Au  1,Mn 12,Au  3,Au  4)     70.1630         0.001507   
    126. D(Au  6,Mn 12,Au 11,Au  2)    146.8792         0.001507   
    127. D(Au  7,Mn 12,Au 11,Au  2)    108.2223         0.001507   
    128. D(Au  8,Mn 12,Au 11,Au  2)   -172.0105         0.001507   
    129. D(Au  9,Mn 12,Au 11,Au  2)     38.7022         0.001507   
    130. D(Au 10,Mn 12,Au 11,Au  2)     68.9462         0.001507   
    131. D(Au  3,Mn 12,Au  0,Au  4)    -36.3348         0.001554   
    -----------------------------------------------------------------

Number of atoms                         .... 13
Number of degrees of freedom            .... 131

         *************************************************************
         *                GEOMETRY OPTIMIZATION CYCLE   1            *
         *************************************************************
---------------------------------
CARTESIAN COORDINATES (ANGSTROEM)
---------------------------------
  Au     9.207145    6.972901    6.121394
  Au     6.700771    7.279372    5.396367
  Au     4.014800    7.745553    5.264988
  Au     9.427825    5.908784    8.900468
  Au    11.584002    6.820260    7.455038
  Au     9.979058    8.904539    8.260988
  Au     8.268605    8.054997   10.381229
  Au     5.468353    8.397375    9.571439
  Au     6.736186    5.742136    9.383797
  Au     5.370785    9.467993    6.927622
  Au     7.548143   10.155569    8.441591
  Au     4.819482    6.471876    7.567328
  Mn     7.416473    7.670861    7.847244

----------------------------
CARTESIAN COORDINATES (A.U.)
----------------------------
  NO LB      ZA    FRAG     MASS         X           Y           Z
   0 Au   19.0000*   0   196.966   17.398983   13.176872   11.567759
   1 Au   19.0000*   0   196.966   12.662622   13.756019   10.197656
   2 Au   19.0000*   0   196.966    7.586872   14.636974    9.949385
   3 Au   19.0000*   0   196.966   17.816008   11.165984   16.819448
   4 Au   19.0000*   0   196.966   21.890591   12.888423   14.087980
   5 Au   19.0000*   0   196.966   18.857687   16.827140   15.611004
   6 Au   19.0000*   0   196.966   15.625400   15.221738   19.617680
   7 Au   19.0000*   0   196.966   10.333690   15.868740   18.087399
   8 Au   19.0000*   0   196.966   12.729548   10.851065   17.732806
   9 Au   19.0000*   0   196.966   10.149313   17.891914   13.091309
  10 Au   19.0000*   0   196.966   14.263924   19.191244   15.952294
  11 Au   19.0000*   0   196.966    9.107501   12.230073   14.300178
  12 Mn   25.0000    0    54.940   14.015102   14.495827   14.829141
* core charge reduced due to ECP

--------------------------------
INTERNAL COORDINATES (ANGSTROEM)
--------------------------------
 Au     0   0   0     0.000000000000     0.00000000     0.00000000
 Au     1   0   0     2.627070938057     0.00000000     0.00000000
 Au     2   1   0     2.729290387208   166.43998325     0.00000000
 Au     1   2   3     2.984006797090   111.66550777    34.12824528
 Au     1   2   3     2.729716212926   166.43109108     0.00000000
 Au     5   1   2     2.751294141081    65.97224956   321.73985330
 Au     4   1   2     2.853536930014   100.66274840   296.00321277
 Au     7   4   1     2.935028730641   109.39927081    62.32163918
 Au     4   1   2     2.739762165315    96.50746265     0.27033962
 Au     3   2   1     2.751336148910    65.97210542    38.27470287
 Au    10   3   2     2.739662050175   151.97617757   341.28359996
 Au     9   4   1     2.739677775713   123.65245823   359.47789967
 Mn     9   4   1     2.558078335565    65.60081684   327.34523994

---------------------------
INTERNAL COORDINATES (A.U.)
---------------------------
 Au     0   0   0     0.000000000000     0.00000000     0.00000000
 Au     1   0   0     4.964444607311     0.00000000     0.00000000
 Au     2   1   0     5.157611371766   166.43998325     0.00000000
 Au     1   2   3     5.638955628259   111.66550777    34.12824528
 Au     1   2   3     5.158416065756   166.43109108     0.00000000
 Au     5   1   2     5.199192440506    65.97224956   321.73985330
 Au     4   1   2     5.392403310756   100.66274840   296.00321277
 Au     7   4   1     5.546400496101   109.39927081    62.32163918
 Au     4   1   2     5.177400164525    96.50746265     0.27033962
 Au     3   2   1     5.199271823797    65.97210542    38.27470287
 Au    10   3   2     5.177210974329   151.97617757   341.28359996
 Au     9   4   1     5.177240691288   123.65245823   359.47789967
 Mn     9   4   1     4.834067483334    65.60081684   327.34523994

---------------------
BASIS SET INFORMATION
---------------------
There are 2 groups of distinct atoms

 Group   1 Type Au  : 8s7p6d1f contracted to 6s4p3d1f pattern {311111/4111/411/1}
 Group   2 Type Mn  : 17s11p7d1f contracted to 6s4p4d1f pattern {842111/6311/4111/1}

Atom   0Au   basis set group =>   1
Atom   1Au   basis set group =>   1
Atom   2Au   basis set group =>   1
Atom   3Au   basis set group =>   1
Atom   4Au   basis set group =>   1
Atom   5Au   basis set group =>   1
Atom   6Au   basis set group =>   1
Atom   7Au   basis set group =>   1
Atom   8Au   basis set group =>   1
Atom   9Au   basis set group =>   1
Atom  10Au   basis set group =>   1
Atom  11Au   basis set group =>   1
Atom  12Mn   basis set group =>   2
---------------------------------
AUXILIARY/J BASIS SET INFORMATION
---------------------------------
There are 2 groups of distinct atoms

 Group   1 Type Au  : 11s5p5d3f3g contracted to 8s5p5d2f3g pattern {41111111/11111/11111/21/111}
 Group   2 Type Mn  : 19s5p5d3f3g contracted to 8s5p5d2f3g pattern {121111111/11111/11111/21/111}

Atom   0Au   basis set group =>   1
Atom   1Au   basis set group =>   1
Atom   2Au   basis set group =>   1
Atom   3Au   basis set group =>   1
Atom   4Au   basis set group =>   1
Atom   5Au   basis set group =>   1
Atom   6Au   basis set group =>   1
Atom   7Au   basis set group =>   1
Atom   8Au   basis set group =>   1
Atom   9Au   basis set group =>   1
Atom  10Au   basis set group =>   1
Atom  11Au   basis set group =>   1
Atom  12Mn   basis set group =>   2
-------------------------
ECP PARAMETER INFORMATION
-------------------------

 Group 1, Type Au ECP Def2-ECP (replacing 60 core electrons, lmax=3)

Atom   0Au   ECP group =>   1
Atom   1Au   ECP group =>   1
Atom   2Au   ECP group =>   1
Atom   3Au   ECP group =>   1
Atom   4Au   ECP group =>   1
Atom   5Au   ECP group =>   1
Atom   6Au   ECP group =>   1
Atom   7Au   ECP group =>   1
Atom   8Au   ECP group =>   1
Atom   9Au   ECP group =>   1
Atom  10Au   ECP group =>   1
Atom  11Au   ECP group =>   1

------------------------------------------------------------------------------
                           ORCA GTO INTEGRAL CALCULATION
                           -- RI-GTO INTEGRALS CHOSEN --
------------------------------------------------------------------------------
------------------------------------------------------------------------------
                   ___                                                        
                  /   \      - P O W E R E D   B Y -                         
                 /     \                                                     
                 |  |  |   _    _      __       _____    __    __             
                 |  |  |  | |  | |    /  \     |  _  \  |  |  /  |          
                  \  \/   | |  | |   /    \    | | | |  |  | /  /          
                 / \  \   | |__| |  /  /\  \   | |_| |  |  |/  /          
                |  |  |   |  __  | /  /__\  \  |    /   |      \           
                |  |  |   | |  | | |   __   |  |    \   |  |\   \          
                \     /   | |  | | |  |  |  |  | |\  \  |  | \   \       
                 \___/    |_|  |_| |__|  |__|  |_| \__\ |__|  \__/        
                                                                              
                      - O R C A' S   B I G   F R I E N D -                    
                                      &                                       
                       - I N T E G R A L  F E E D E R -                       
                                                                              
 v1 FN, 2020, v2 2021                                                         
------------------------------------------------------------------------------


Reading SHARK input file pbe.SHARKINP.tmp ... ok
----------------------
SHARK INTEGRAL PACKAGE
----------------------

Number of atoms                             ...     13
Number of basis functions                   ...    525
Number of shells                            ...    183
Maximum angular momentum                    ...      3
Integral batch strategy                     ... SHARK/LIBINT Hybrid
RI-J (if used) integral strategy            ... SPLIT-RIJ (Revised 2003 algorithm where possible)
Printlevel                                  ...      1
Contraction scheme used                     ... SEGMENTED contraction
Coulomb Range Separation                    ... NOT USED
Exchange Range Separation                   ... NOT USED
Finite Nucleus Model                        ... NOT USED
Auxiliary Coulomb fitting basis             ... AVAILABLE
   # of basis functions in Aux-J            ...   1157
   # of shells in Aux-J                     ...    299
   Maximum angular momentum in Aux-J        ...      4
Auxiliary J/K fitting basis                 ... NOT available
Auxiliary Correlation fitting basis         ... NOT available
Auxiliary 'external' fitting basis          ... NOT available
Integral threshold                          ...     2.500000e-11
Primitive cut-off                           ...     2.500000e-12
Primitive pair pre-selection threshold      ...     2.500000e-12

Calculating pre-screening integrals         ... done (  0.5 sec) Dimension = 183
Organizing shell pair data                  ... done (  0.5 sec)
Shell pair information
Total number of shell pairs                 ...     16836
Shell pairs after pre-screening             ...     13674
Total number of primitive shell pairs       ...     45389
Primitive shell pairs kept                  ...     27019
          la=0 lb=0:   2140 shell pairs
          la=1 lb=0:   3143 shell pairs
          la=1 lb=1:   1177 shell pairs
          la=2 lb=0:   2706 shell pairs
          la=2 lb=1:   1896 shell pairs
          la=2 lb=2:    784 shell pairs
          la=3 lb=0:    732 shell pairs
          la=3 lb=1:    552 shell pairs
          la=3 lb=2:    470 shell pairs
          la=3 lb=3:     74 shell pairs

Calculating one electron integrals          ... done (  0.1 sec)
Calculating ECP integrals                   ... done (  9.1 sec)
Calculating RI/J V-Matrix + Cholesky decomp.... done (  0.1 sec)
Calculating Nuclear repulsion               ... done (  0.0 sec) ENN=   4290.960612344484 Eh

SHARK setup successfully completed in  11.2 seconds

Maximum memory used throughout the entire GTOINT-calculation: 401.1 MB
-------------------------------------------------------------------------------
                                 ORCA SCF
-------------------------------------------------------------------------------

------------
SCF SETTINGS
------------
Hamiltonian:
 Density Functional     Method          .... DFT(GTOs)
 Exchange Functional    Exchange        .... PBE
   PBE kappa parameter   XKappa         ....  0.804000
   PBE mue parameter    XMuePBE         ....  0.219520
 Correlation Functional Correlation     .... PBE
   PBE beta parameter  CBetaPBE         ....  0.066725
 LDA part of GGA corr.  LDAOpt          .... PW91-LDA
 Gradients option       PostSCFGGA      .... off
   Density functional embedding theory  .... OFF
   NL short-range parameter             ....  6.400000
 RI-approximation to the Coulomb term is turned on
   Number of AuxJ basis functions       .... 1157


General Settings:
 Integral files         IntName         .... pbe
 Hartree-Fock type      HFTyp           .... UHF
 Total Charge           Charge          ....    0
 Multiplicity           Mult            ....    6
 Number of Electrons    NEL             ....  253
 Basis Dimension        Dim             ....  525
 Nuclear Repulsion      ENuc            ....   4290.9606123445 Eh

Convergence Acceleration:
 DIIS                   CNVDIIS         .... off
 Trust-Rad. Augm. Hess. CNVTRAH         .... auto
   Auto Start mean grad. ratio tolernc. ....  1.125000
   Auto Start start iteration           ....    20
   Auto Start num. interpolation iter.  ....    10
   Max. Number of Micro iterations      ....    16
   Max. Number of Macro iterations      .... Maxiter - #DIIS iter
   Number of Davidson start vectors     ....     2
   Converg. threshold I  (grad. norm)   ....   1.000e-05
   Converg. threshold II (energy diff.) ....   1.000e-08
   Grad. Scal. Fac. for Micro threshold ....   0.100
   Minimum threshold for Micro iter.    ....   0.010
   NR start threshold (gradient norm)   ....   0.001
   Initial trust radius                 ....   0.400
   Minimum AH scaling param. (alpha)    ....   1.000
   Maximum AH scaling param. (alpha)    .... 1000.000
   Orbital update algorithm             .... Taylor
   White noise on init. David. guess    .... on
   Maximum white noise                  ....   0.010
   Quad. conv. algorithm                .... NR
 SOSCF                  CNVSOSCF        .... off
 Level Shifting         CNVShift        .... off
 Zerner damping         CNVZerner       .... off
 Static damping         CNVDamp         .... off
 Fernandez-Rico         CNVRico         .... off

SCF Procedure:
 Maximum # iterations   MaxIter         ....   125
 SCF integral mode      SCFMode         .... Direct
   Integral package                     .... SHARK and LIBINT hybrid scheme
 Reset frequency        DirectResetFreq ....    20
 Integral Threshold     Thresh          ....  2.500e-11 Eh
 Primitive CutOff       TCut            ....  2.500e-12 Eh

Convergence Tolerance:
 Convergence Check Mode ConvCheckMode   .... Total+1el-Energy
 Convergence forced     ConvForced      .... 0
 Energy Change          TolE            ....  1.000e-08 Eh
 1-El. energy change                    ....  1.000e-05 Eh


Diagonalization of the overlap matrix:
Smallest eigenvalue                        ... 3.303e-04
Time for diagonalization                   ...    0.130 sec
Threshold for overlap eigenvalues          ... 1.000e-08
Number of eigenvalues below threshold      ... 0
Time for construction of square roots      ...    0.067 sec
Total time needed                          ...    0.199 sec

Time for model grid setup =    1.652 sec

------------------------------
INITIAL GUESS: MODEL POTENTIAL
------------------------------
Loading Hartree-Fock densities                     ... done
  calling /home/ehlert/src/miniconda3/envs/orca500/Programs/ORCA501/orca pbe_atom79.inp > pbe_atom79.out in order to generate an atomic fitting density for atom 0 (Au with ECP) on-the-fly... 
    atom 0 (Au), assumed electronic state with S=2: 1s2 2s2 2p6 3s2 3p6 4s2 3d10 4p6 5s2 4d10 5p6 6s1 4f14 5d10           ... done
Calculating cut-offs                               ... done
Initializing the effective Hamiltonian             ... done
Setting up the integral package (SHARK)            ... done
Starting the Coulomb interaction                   ... done (   2.3 sec)
Reading the grid                                   ... done
Mapping shells                                     ... done
Starting the XC term evaluation                    ... done (   2.9 sec)
  promolecular density results
     # of electrons  =    973.013537012
     EX              =  -4440.470717188
     EC              =    -59.201601757
     EX+EC           =  -4499.672318944
Transforming the Hamiltonian                       ... done (   0.0 sec)
Diagonalizing the Hamiltonian                      ... done (   0.1 sec)
Back transforming the eigenvectors                 ... done (   0.0 sec)
Now organizing SCF variables                       ... done
                      ------------------
                      INITIAL GUESS DONE (   7.7 sec)
                      ------------------
-------------------
DFT GRID GENERATION
-------------------

General Integration Accuracy     IntAcc      ... 4.388
Radial Grid Type                 RadialGrid  ... OptM3 with GC (2021)
Angular Grid (max. ang.)         AngularGrid ... 4 (Lebedev-302)
Angular grid pruning method      GridPruning ... 4 (adaptive)
Weight generation scheme         WeightScheme... Becke
Basis function cutoff            BFCut       ... 1.0000e-11
Integration weight cutoff        WCut        ... 1.0000e-14
Angular grids for H and He will be reduced by one unit
Partially contracted basis set               ... off
Rotationally invariant grid construction     ... off

Total number of grid points                  ...   144919
Total number of batches                      ...     2273
Average number of points per batch           ...       63
Average number of grid points per atom       ...    11148
Time for grid setup =    3.857 sec

--------------
SCF ITERATIONS
--------------
ITER       Energy         Delta-E        Max-DP      RMS-DP      [F,P]   Gradient Norm
               ***  Starting incremental Fock matrix formation  ***
                             ****Resetting KDIIS****
                             ****Turning on KDIIS(Cayley)****
  0  -2779.0229842361   0.000000000000 0.17004254  0.00113446  0.4318990   0.212550955
  1  -2779.9136596185  -0.890675382378 0.35644002  0.00158496  0.3862733   0.165429418
  2  -2780.3299021056  -0.416242487066 0.10087405  0.00128273  0.3053781   0.124352734
  3  -2780.5494891191  -0.219587013484 0.24939934  0.00140466  0.1781952   0.071278182
  4  -2780.6305013694  -0.081012250350 0.11801608  0.00041549  0.0488443   0.016256548
  5  -2780.6534637144  -0.022962345044 0.12158045  0.00045065  0.0184466   0.007831995
  6  -2780.6684367379  -0.014973023484 0.04615449  0.00056841  0.0356610   0.004943955
  7  -2780.6820365252  -0.013599787279 0.03133315  0.00029533  0.0175257   0.005136568
  8  -2780.6807390105   0.001297514687 0.06161901  0.00028037  0.0150179   0.009271272
  9  -2780.6907258397  -0.009986829145 0.02949398  0.00017212  0.0113974   0.002282558
 10  -2780.6920448155  -0.001318975820 0.01972153  0.00008710  0.0041207   0.002534075
 11  -2780.6927263262  -0.000681510713 0.00735715  0.00006600  0.0026865   0.001133228
 12  -2780.6929874894  -0.000261163174 0.01296725  0.00004543  0.0019924   0.001046088
 13  -2780.6930034538  -0.000015964464 0.00668982  0.00004221  0.0015585   0.001059628
 14  -2780.6931586063  -0.000155152484 0.00267559  0.00002536  0.0008725   0.000320634
 15  -2780.6931043663   0.000054239977 0.00196305  0.00001682  0.0022022   0.000988679
 16  -2780.6931866141  -0.000082247729 0.00422651  0.00001246  0.0006725   0.000271286
 17  -2780.6931928991  -0.000006285074 0.00208046  0.00000902  0.0005807   0.000275066
 18  -2780.6932002719  -0.000007372777 0.00181634  0.00000941  0.0005488   0.000198309
 19  -2780.6932066613  -0.000006389406 0.00144908  0.00000590  0.0004806   0.000178375
               *** Restarting incremental Fock matrix formation ***
                             ****Resetting KDIIS****
 20  -2780.6932079104  -0.000001249102 0.00013975  0.00000095  0.0004679   0.000103913
 21  -2780.6932088840  -0.000000973533 0.00015254  0.00000132  0.0004649   0.000077124
 22  -2780.6932100355  -0.000001151495 0.00036988  0.00000353  0.0004525   0.000069723
 23  -2780.6932125668  -0.000002531371 0.00219420  0.00002342  0.0004054   0.000067403
 24  -2780.6932225463  -0.000009979424 0.00023683  0.00000388  0.0001553   0.000078789
 25  -2780.6932235955  -0.000001049205 0.00015612  0.00000250  0.0000944   0.000019084
 26  -2780.6932239079  -0.000000312401 0.00014446  0.00000114  0.0000722   0.000030203
 27  -2780.6932240674  -0.000000159583 0.00038814  0.00000355  0.0000573   0.000017123
 28  -2780.6932242928  -0.000000225373 0.00009404  0.00000154  0.0000607   0.000023025
 29  -2780.6932243857  -0.000000092834 0.00005503  0.00000048  0.0000218   0.000006757
 30  -2780.6932244138  -0.000000028128 0.00006114  0.00000047  0.0000306   0.000010569
 31  -2780.6932244025   0.000000011259 0.00001977  0.00000023  0.0000225   0.000005611
 32  -2780.6932244099  -0.000000007424 0.00013289  0.00000063  0.0000142   0.000004183
 33  -2780.6932244194  -0.000000009502 0.00001012  0.00000017  0.0000075   0.000004768
 34  -2780.6932243636   0.000000055868 0.00003245  0.00000021  0.0000075   0.000003999
 35  -2780.6932243907  -0.000000027079 0.00004023  0.00000027  0.0000137   0.000004890
 36  -2780.6932244123  -0.000000021646 0.00001906  0.00000010  0.0000060   0.000001400
 37  -2780.6932244606  -0.000000048321 0.00001657  0.00000011  0.0000056   0.000001883
 38  -2780.6932244268   0.000000033872 0.00002286  0.00000006  0.0000043   0.000001583
 39  -2780.6932244278  -0.000000001080 0.00003594  0.00000025  0.0000047   0.000000933
               *** Restarting incremental Fock matrix formation ***
                             ****Resetting KDIIS****
 40  -2780.6932243402   0.000000087598 0.00000185  0.00000002  0.0000039   0.000001144
 41  -2780.6932243702  -0.000000029966 0.00000609  0.00000003  0.0000038   0.000000839

 WARNING: the maximum gradient error descreased on average only by a factor   1.1
          during the last 20 iterations

                      *** Initiating the TRAH-SCF procedure ***

                    *** KDIIS BlockDiag ( 0.168 sec) ***

TRAH GRID
---------

General Integration Accuracy     IntAcc      ... 3.467
Radial Grid Type                 RadialGrid  ... OptM3 with GC (2021)
Angular Grid (max. ang.)         AngularGrid ... 1 (Lebedev-50)
Angular grid pruning method      GridPruning ... 4 (adaptive)
Weight generation scheme         WeightScheme... Becke
Basis function cutoff            BFCut       ... 1.0000e-11
Integration weight cutoff        WCut        ... 1.0000e-14
Angular grids for H and He will be reduced by one unit
Partially contracted basis set               ... off
Rotationally invariant grid construction     ... off

Total number of grid points                  ...    62568
Total number of batches                      ...      983
Average number of points per batch           ...       63
Average number of grid points per atom       ...     4813

 --------------------------------------------------------------------------------------------
   Iter.        energy            ||Error||_2        Shift      TRadius  Mac/Mic        Rej.
 --------------------------------------------------------------------------------------------
    0      -2780.693224340221     1.096106e-05                     0.400 (TRAH MAcro)   No
WARNING : small    HOMO - LUMO gap : (op = alpha) 0.009092
WARNING : small    HOMO - LUMO gap : (op =  beta) 0.005792
    0     dE    -2.233823e-11     2.409312e-05    -1.3555e-10      0.000 (TRAH MIcro)
    0     dE    -1.738661e-09     3.243846e-05    -1.7387e-09      0.000 (TRAH MIcro)
    0     dE    -3.064141e-09     2.354836e-05    -3.0641e-09      0.001 (TRAH MIcro)
    0     dE    -3.585219e-09     1.776497e-05    -3.5852e-09      0.001 (TRAH MIcro)
    0     dE    -3.809710e-09     1.946642e-05    -3.8097e-09      0.001 (TRAH MIcro)
    0     dE    -4.014117e-09     9.899147e-06    -4.0141e-09      0.001 (TRAH MIcro)
    0     dE    -4.060613e-09     5.248641e-06    -4.0606e-09      0.001 (TRAH MIcro)
    0     dE    -4.073760e-09     2.194321e-06    -4.0738e-09      0.001 (TRAH MIcro)
    0     dE    -4.075881e-09     1.215604e-06    -4.0759e-09      0.001 (TRAH MIcro)
    0     dE    -4.076687e-09     6.491223e-07    -4.0767e-09      0.001 (TRAH MIcro)
    1      -2780.693224344420     6.559344e-07                           (NR   MAcro)
WARNING : small    HOMO - LUMO gap : (op = alpha) 0.009092
WARNING : small    HOMO - LUMO gap : (op =  beta) 0.005792

               *****************************************************
               *                     SUCCESS                       *
               *           SCF CONVERGED AFTER  54 CYCLES          *
               *****************************************************


----------------
TOTAL SCF ENERGY
----------------

Total Energy       :        -2780.69322434 Eh          -75666.50945 eV

Components:
Nuclear Repulsion  :         4290.96061234 Eh          116762.97438 eV
Electronic Energy  :        -7071.65383669 Eh         -192429.48382 eV
One Electron Energy:       -13022.47338568 Eh         -354359.51611 eV
Two Electron Energy:         5950.81954899 Eh          161930.03229 eV

Virial components:
Potential Energy   :        -4479.19445022 Eh         -121885.07751 eV
Kinetic Energy     :         1698.50122587 Eh           46218.56806 eV
Virial Ratio       :            2.63714526


DFT components:
N(Alpha)           :      128.999977486831 electrons
N(Beta)            :      123.999975374869 electrons
N(Total)           :      252.999952861700 electrons
E(X)               :     -195.443016037160 Eh       
E(C)               :      -11.009265405380 Eh       
E(XC)              :     -206.452281442540 Eh       
DFET-embed. en.    :        0.000000000000 Eh       

---------------
SCF CONVERGENCE
---------------

  Last Energy change         ...   -4.1987e-09  Tolerance :   1.0000e-08
  Last Orbital Gradient      ...    6.5593e-07  Tolerance :   1.0000e-05
  Last Orbital Rotation      ...    1.0528e-03

             **** THE GBW FILE WAS UPDATED (pbe.gbw) ****
             **** DENSITY pbe.scfp WAS UPDATED ****
             **** ENERGY FILE WAS UPDATED (pbe.en.tmp) ****
----------------------
UHF SPIN CONTAMINATION
----------------------

Warning: in a DFT calculation there is little theoretical justification to 
         calculate <S**2> as in Hartree-Fock theory. We will do it anyways
         but you should keep in mind that the values have only limited relevance

Expectation value of <S**2>     :     8.776889
Ideal value S*(S+1) for S=2.5   :     8.750000
Deviation                       :     0.026889

             **** THE GBW FILE WAS UPDATED (pbe.gbw) ****
             **** DENSITY pbe.scfp WAS UPDATED ****
----------------
ORBITAL ENERGIES
----------------
                 SPIN UP ORBITALS
  NO   OCC          E(Eh)            E(eV) 
   0   1.0000    -234.197000     -6372.8244 
   1   1.0000     -26.894582      -731.8388 
   2   1.0000     -23.044032      -627.0600 
   3   1.0000     -23.043654      -627.0497 
   4   1.0000     -23.041109      -626.9804 
   5   1.0000      -4.039232      -109.9131 
   6   1.0000      -4.039222      -109.9128 
   7   1.0000      -4.030546      -109.6767 
   8   1.0000      -4.030488      -109.6752 
   9   1.0000      -4.028188      -109.6126 
  10   1.0000      -4.027883      -109.6043 
  11   1.0000      -4.020597      -109.4060 
  12   1.0000      -4.020589      -109.4058 
  13   1.0000      -4.020571      -109.4053 
  14   1.0000      -4.020564      -109.4051 
  15   1.0000      -4.017892      -109.3324 
  16   1.0000      -4.017885      -109.3322 
  17   1.0000      -3.104815       -84.4863 
  18   1.0000      -2.255816       -61.3839 
  19   1.0000      -2.255791       -61.3832 
  20   1.0000      -2.251777       -61.2740 
  21   1.0000      -2.251762       -61.2736 
  22   1.0000      -2.250230       -61.2319 
  23   1.0000      -2.249292       -61.2063 
  24   1.0000      -2.249260       -61.2055 
  25   1.0000      -2.246693       -61.1356 
  26   1.0000      -2.246171       -61.1214 
  27   1.0000      -2.244902       -61.0869 
  28   1.0000      -2.242896       -61.0323 
  29   1.0000      -2.242869       -61.0316 
  30   1.0000      -2.242783       -61.0292 
  31   1.0000      -2.241999       -61.0079 
  32   1.0000      -2.241619       -60.9975 
  33   1.0000      -2.240841       -60.9764 
  34   1.0000      -2.238650       -60.9168 
  35   1.0000      -2.238255       -60.9060 
  36   1.0000      -2.238164       -60.9036 
  37   1.0000      -2.237893       -60.8962 
  38   1.0000      -2.234063       -60.7919 
  39   1.0000      -2.233904       -60.7876 
  40   1.0000      -2.233877       -60.7869 
  41   1.0000      -2.233341       -60.7723 
  42   1.0000      -2.231530       -60.7230 
  43   1.0000      -2.231523       -60.7228 
  44   1.0000      -2.231308       -60.7170 
  45   1.0000      -2.231284       -60.7163 
  46   1.0000      -2.229903       -60.6788 
  47   1.0000      -2.229893       -60.6785 
  48   1.0000      -2.229575       -60.6698 
  49   1.0000      -2.229568       -60.6696 
  50   1.0000      -2.228697       -60.6459 
  51   1.0000      -2.228689       -60.6457 
  52   1.0000      -2.228420       -60.6384 
  53   1.0000      -2.228394       -60.6377 
  54   1.0000      -2.009974       -54.6942 
  55   1.0000      -2.008677       -54.6589 
  56   1.0000      -2.003958       -54.5305 
  57   1.0000      -0.427890       -11.6435 
  58   1.0000      -0.387077       -10.5329 
  59   1.0000      -0.385599       -10.4927 
  60   1.0000      -0.380817       -10.3625 
  61   1.0000      -0.376651       -10.2492 
  62   1.0000      -0.372357       -10.1324 
  63   1.0000      -0.369947       -10.0668 
  64   1.0000      -0.362994        -9.8776 
  65   1.0000      -0.355976        -9.6866 
  66   1.0000      -0.355185        -9.6651 
  67   1.0000      -0.345818        -9.4102 
  68   1.0000      -0.341572        -9.2946 
  69   1.0000      -0.340280        -9.2595 
  70   1.0000      -0.339142        -9.2285 
  71   1.0000      -0.336574        -9.1586 
  72   1.0000      -0.333782        -9.0827 
  73   1.0000      -0.332784        -9.0555 
  74   1.0000      -0.332677        -9.0526 
  75   1.0000      -0.332661        -9.0522 
  76   1.0000      -0.331569        -9.0225 
  77   1.0000      -0.326633        -8.8881 
  78   1.0000      -0.324013        -8.8168 
  79   1.0000      -0.322049        -8.7634 
  80   1.0000      -0.317492        -8.6394 
  81   1.0000      -0.316678        -8.6173 
  82   1.0000      -0.312580        -8.5057 
  83   1.0000      -0.305229        -8.3057 
  84   1.0000      -0.304598        -8.2885 
  85   1.0000      -0.303051        -8.2464 
  86   1.0000      -0.300143        -8.1673 
  87   1.0000      -0.298765        -8.1298 
  88   1.0000      -0.293735        -7.9929 
  89   1.0000      -0.292072        -7.9477 
  90   1.0000      -0.291223        -7.9246 
  91   1.0000      -0.289477        -7.8771 
  92   1.0000      -0.287137        -7.8134 
  93   1.0000      -0.282517        -7.6877 
  94   1.0000      -0.281024        -7.6470 
  95   1.0000      -0.278299        -7.5729 
  96   1.0000      -0.276486        -7.5236 
  97   1.0000      -0.275460        -7.4956 
  98   1.0000      -0.275287        -7.4909 
  99   1.0000      -0.274115        -7.4591 
 100   1.0000      -0.271637        -7.3916 
 101   1.0000      -0.267787        -7.2869 
 102   1.0000      -0.267047        -7.2667 
 103   1.0000      -0.264100        -7.1865 
 104   1.0000      -0.263847        -7.1796 
 105   1.0000      -0.263084        -7.1589 
 106   1.0000      -0.262602        -7.1458 
 107   1.0000      -0.261689        -7.1209 
 108   1.0000      -0.261275        -7.1097 
 109   1.0000      -0.260064        -7.0767 
 110   1.0000      -0.256376        -6.9764 
 111   1.0000      -0.256191        -6.9713 
 112   1.0000      -0.255680        -6.9574 
 113   1.0000      -0.253839        -6.9073 
 114   1.0000      -0.252889        -6.8815 
 115   1.0000      -0.251902        -6.8546 
 116   1.0000      -0.250690        -6.8216 
 117   1.0000      -0.249289        -6.7835 
 118   1.0000      -0.244479        -6.6526 
 119   1.0000      -0.242589        -6.6012 
 120   1.0000      -0.240789        -6.5522 
 121   1.0000      -0.240640        -6.5482 
 122   1.0000      -0.239215        -6.5094 
 123   1.0000      -0.234963        -6.3937 
 124   1.0000      -0.233322        -6.3490 
 125   1.0000      -0.230495        -6.2721 
 126   1.0000      -0.215016        -5.8509 
 127   1.0000      -0.202236        -5.5031 
 128   1.0000      -0.182495        -4.9659 
 129   0.0000      -0.173403        -4.7185 
 130   0.0000      -0.137608        -3.7445 
 131   0.0000      -0.137524        -3.7422 
 132   0.0000      -0.133151        -3.6232 
 133   0.0000      -0.118056        -3.2125 
 134   0.0000      -0.108811        -2.9609 
 135   0.0000      -0.074716        -2.0331 
 136   0.0000      -0.060278        -1.6403 
 137   0.0000      -0.055898        -1.5211 
 138   0.0000      -0.055764        -1.5174 
 139   0.0000      -0.051794        -1.4094 
 140   0.0000      -0.047206        -1.2845 
 141   0.0000      -0.038725        -1.0538 
 142   0.0000      -0.024330        -0.6620 
 143   0.0000      -0.019460        -0.5295 
 144   0.0000      -0.016916        -0.4603 
 145   0.0000       0.004944         0.1345 
 146   0.0000       0.006867         0.1869 
 147   0.0000       0.027528         0.7491 
 148   0.0000       0.035640         0.9698 
 149   0.0000       0.035819         0.9747 
 150   0.0000       0.042784         1.1642 
 151   0.0000       0.043474         1.1830 
 152   0.0000       0.047873         1.3027 
 153   0.0000       0.053033         1.4431 
 154   0.0000       0.053537         1.4568 
 155   0.0000       0.058212         1.5840 
 156   0.0000       0.058408         1.5894 
 157   0.0000       0.061015         1.6603 
 158   0.0000       0.072420         1.9707 
 159   0.0000       0.077656         2.1131 
 160   0.0000       0.082553         2.2464 
 161   0.0000       0.089239         2.4283 
 162   0.0000       0.090973         2.4755 
 163   0.0000       0.094244         2.5645 
 164   0.0000       0.107730         2.9315 
 165   0.0000       0.110521         3.0074 
 166   0.0000       0.119228         3.2444 
 167   0.0000       0.120195         3.2707 
 168   0.0000       0.123943         3.3727 
 169   0.0000       0.135347         3.6830 
 170   0.0000       0.140994         3.8367 
 171   0.0000       0.155128         4.2212 
 172   0.0000       0.156225         4.2511 
 173   0.0000       0.161010         4.3813 
 174   0.0000       0.162134         4.4119 
 175   0.0000       0.166655         4.5349 
 176   0.0000       0.177096         4.8190 
 177   0.0000       0.177945         4.8421 
 178   0.0000       0.178282         4.8513 
 179   0.0000       0.188996         5.1428 
 180   0.0000       0.205017         5.5788 
 181   0.0000       0.205216         5.5842 
 182   0.0000       0.212816         5.7910 
 183   0.0000       0.216258         5.8847 
 184   0.0000       0.223498         6.0817 
 185   0.0000       0.223821         6.0905 
 186   0.0000       0.236839         6.4447 
 187   0.0000       0.236964         6.4481 
 188   0.0000       0.238258         6.4833 
 189   0.0000       0.238500         6.4899 
 190   0.0000       0.244812         6.6617 
 191   0.0000       0.262230         7.1356 
 192   0.0000       0.264006         7.1840 
 193   0.0000       0.268897         7.3171 
 194   0.0000       0.271955         7.4003 
 195   0.0000       0.275733         7.5031 
 196   0.0000       0.282285         7.6814 
 197   0.0000       0.286150         7.7865 
 198   0.0000       0.288897         7.8613 
 199   0.0000       0.294381         8.0105 
 200   0.0000       0.299481         8.1493 
 201   0.0000       0.300210         8.1691 
 202   0.0000       0.303580         8.2608 
 203   0.0000       0.309725         8.4280 
 204   0.0000       0.310502         8.4492 
 205   0.0000       0.320840         8.7305 
 206   0.0000       0.322149         8.7661 
 207   0.0000       0.328703         8.9445 
 208   0.0000       0.334701         9.1077 
 209   0.0000       0.335885         9.1399 
 210   0.0000       0.336283         9.1507 
 211   0.0000       0.337093         9.1728 
 212   0.0000       0.357551         9.7295 
 213   0.0000       0.359320         9.7776 
 214   0.0000       0.359433         9.7807 
 215   0.0000       0.368828        10.0363 
 216   0.0000       0.372537        10.1372 
 217   0.0000       0.373484        10.1630 
 218   0.0000       0.391091        10.6421 
 219   0.0000       0.393316        10.7027 
 220   0.0000       0.400266        10.8918 
 221   0.0000       0.402197        10.9443 
 222   0.0000       0.408584        11.1181 
 223   0.0000       0.413715        11.2578 
 224   0.0000       0.420215        11.4346 
 225   0.0000       0.423262        11.5176 
 226   0.0000       0.431160        11.7325 
 227   0.0000       0.436482        11.8773 
 228   0.0000       0.439003        11.9459 
 229   0.0000       0.439613        11.9625 
 230   0.0000       0.445469        12.1218 
 231   0.0000       0.449443        12.2300 
 232   0.0000       0.469065        12.7639 
 233   0.0000       0.473978        12.8976 
 234   0.0000       0.480156        13.0657 
 235   0.0000       0.480873        13.0852 
 236   0.0000       0.481679        13.1071 
 237   0.0000       0.481825        13.1111 
 238   0.0000       0.488251        13.2860 
 239   0.0000       0.489367        13.3163 
 240   0.0000       0.490035        13.3345 
 241   0.0000       0.494446        13.4546 
 242   0.0000       0.497951        13.5499 
 243   0.0000       0.507225        13.8023 
 244   0.0000       0.507492        13.8095 
 245   0.0000       0.519397        14.1335 
 246   0.0000       0.535054        14.5596 
 247   0.0000       0.540747        14.7145 
 248   0.0000       0.543797        14.7975 
 249   0.0000       0.549238        14.9455 
 250   0.0000       0.562689        15.3116 
 251   0.0000       0.570147        15.5145 
 252   0.0000       0.595987        16.2176 
 253   0.0000       0.604642        16.4531 
 254   0.0000       0.622881        16.9495 
 255   0.0000       0.624860        17.0033 
 256   0.0000       0.650291        17.6953 
 257   0.0000       0.665622        18.1125 
 258   0.0000       0.666584        18.1387 
 259   0.0000       0.684943        18.6382 
 260   0.0000       0.685764        18.6606 
 261   0.0000       0.712132        19.3781 
 262   0.0000       0.712844        19.3975 
 263   0.0000       0.712964        19.4007 
 264   0.0000       0.739387        20.1197 
 265   0.0000       0.742075        20.1929 
 266   0.0000       0.749405        20.3924 
 267   0.0000       0.759133        20.6571 
 268   0.0000       0.761011        20.7082 
 269   0.0000       0.780685        21.2435 
 270   0.0000       0.794141        21.6097 
 271   0.0000       0.801730        21.8162 
 272   0.0000       0.828318        22.5397 
 273   0.0000       0.831833        22.6353 
 274   0.0000       0.848317        23.0839 
 275   0.0000       0.856373        23.3031 
 276   0.0000       0.872666        23.7465 
 277   0.0000       0.888803        24.1856 
 278   0.0000       0.896408        24.3925 
 279   0.0000       0.898827        24.4583 
 280   0.0000       0.904161        24.6035 
 281   0.0000       0.922943        25.1146 
 282   0.0000       0.928182        25.2571 
 283   0.0000       0.938240        25.5308 
 284   0.0000       0.962226        26.1835 
 285   0.0000       0.979403        26.6509 
 286   0.0000       1.002354        27.2754 
 287   0.0000       1.022603        27.8264 
 288   0.0000       1.066857        29.0307 
 289   0.0000       1.093834        29.7647 
 290   0.0000       1.103681        30.0327 
 291   0.0000       1.160904        31.5898 
 292   0.0000       1.187131        32.3035 
 293   0.0000       1.196685        32.5635 
 294   0.0000       1.228753        33.4361 
 295   0.0000       1.229385        33.4533 
 296   0.0000       1.257748        34.2251 
 297   0.0000       1.262562        34.3561 
 298   0.0000       1.279803        34.8252 
 299   0.0000       1.297892        35.3174 
 300   0.0000       1.299314        35.3561 
 301   0.0000       1.301631        35.4192 
 302   0.0000       1.318746        35.8849 
 303   0.0000       1.321493        35.9597 
 304   0.0000       1.322551        35.9885 
 305   0.0000       1.333835        36.2955 
 306   0.0000       1.347857        36.6770 
 307   0.0000       1.367632        37.2152 
 308   0.0000       1.367992        37.2250 
 309   0.0000       1.377543        37.4849 
 310   0.0000       1.377759        37.4907 
 311   0.0000       1.378161        37.5017 
 312   0.0000       1.386798        37.7367 
 313   0.0000       1.396037        37.9881 
 314   0.0000       1.396521        38.0013 
 315   0.0000       1.401833        38.1458 
 316   0.0000       1.406995        38.2863 
 317   0.0000       1.409674        38.3592 
 318   0.0000       1.414557        38.4920 
 319   0.0000       1.417786        38.5799 
 320   0.0000       1.423410        38.7330 
 321   0.0000       1.425407        38.7873 
 322   0.0000       1.430468        38.9250 
 323   0.0000       1.439656        39.1750 
 324   0.0000       1.442228        39.2450 
 325   0.0000       1.444819        39.3155 
 326   0.0000       1.446856        39.3709 
 327   0.0000       1.450429        39.4682 
 328   0.0000       1.452850        39.5341 
 329   0.0000       1.453699        39.5572 
 330   0.0000       1.458425        39.6858 
 331   0.0000       1.458688        39.6929 
 332   0.0000       1.463627        39.8273 
 333   0.0000       1.464245        39.8441 
 334   0.0000       1.468050        39.9477 
 335   0.0000       1.469219        39.9795 
 336   0.0000       1.472083        40.0574 
 337   0.0000       1.472564        40.0705 
 338   0.0000       1.477073        40.1932 
 339   0.0000       1.480496        40.2863 
 340   0.0000       1.481972        40.3265 
 341   0.0000       1.482004        40.3274 
 342   0.0000       1.482993        40.3543 
 343   0.0000       1.484147        40.3857 
 344   0.0000       1.485086        40.4112 
 345   0.0000       1.486650        40.4538 
 346   0.0000       1.495624        40.6980 
 347   0.0000       1.495944        40.7067 
 348   0.0000       1.496335        40.7173 
 349   0.0000       1.497489        40.7487 
 350   0.0000       1.500395        40.8278 
 351   0.0000       1.500475        40.8300 
 352   0.0000       1.503981        40.9254 
 353   0.0000       1.504077        40.9280 
 354   0.0000       1.504261        40.9330 
 355   0.0000       1.508711        41.0541 
 356   0.0000       1.509502        41.0756 
 357   0.0000       1.511899        41.1409 
 358   0.0000       1.512057        41.1452 
 359   0.0000       1.513303        41.1791 
 360   0.0000       1.516248        41.2592 
 361   0.0000       1.516834        41.2752 
 362   0.0000       1.520544        41.3761 
 363   0.0000       1.521259        41.3956 
 364   0.0000       1.521994        41.4156 
 365   0.0000       1.523873        41.4667 
 366   0.0000       1.524329        41.4791 
 367   0.0000       1.528232        41.5853 
 368   0.0000       1.528323        41.5878 
 369   0.0000       1.531093        41.6632 
 370   0.0000       1.537070        41.8258 
 371   0.0000       1.538734        41.8711 
 372   0.0000       1.541684        41.9513 
 373   0.0000       1.541814        41.9549 
 374   0.0000       1.542785        41.9813 
 375   0.0000       1.545202        42.0471 
 376   0.0000       1.546017        42.0693 
 377   0.0000       1.548361        42.1331 
 378   0.0000       1.548606        42.1397 
 379   0.0000       1.549744        42.1707 
 380   0.0000       1.552069        42.2339 
 381   0.0000       1.552876        42.2559 
 382   0.0000       1.555070        42.3156 
 383   0.0000       1.560672        42.4680 
 384   0.0000       1.563712        42.5508 
 385   0.0000       1.565187        42.5909 
 386   0.0000       1.570243        42.7285 
 387   0.0000       1.570978        42.7485 
 388   0.0000       1.572879        42.8002 
 389   0.0000       1.587116        43.1876 
 390   0.0000       1.587150        43.1886 
 391   0.0000       1.589526        43.2532 
 392   0.0000       1.592164        43.3250 
 393   0.0000       1.594176        43.3797 
 394   0.0000       1.596528        43.4437 
 395   0.0000       1.599054        43.5125 
 396   0.0000       1.599545        43.5258 
 397   0.0000       1.608419        43.7673 
 398   0.0000       1.608825        43.7783 
 399   0.0000       1.612429        43.8764 
 400   0.0000       1.613330        43.9009 
 401   0.0000       1.615726        43.9661 
 402   0.0000       1.626785        44.2671 
 403   0.0000       1.627682        44.2915 
 404   0.0000       1.629093        44.3299 
 405   0.0000       1.634846        44.4864 
 406   0.0000       1.641837        44.6766 
 407   0.0000       1.645671        44.7810 
 408   0.0000       1.653231        44.9867 
 409   0.0000       1.654231        45.0139 
 410   0.0000       1.674353        45.5615 
 411   0.0000       1.674937        45.5773 
 412   0.0000       1.679464        45.7005 
 413   0.0000       1.687840        45.9285 
 414   0.0000       1.695243        46.1299 
 415   0.0000       1.708084        46.4793 
 416   0.0000       1.712144        46.5898 
 417   0.0000       1.714083        46.6426 
 418   0.0000       1.721731        46.8507 
 419   0.0000       1.732469        47.1429 
 420   0.0000       1.769704        48.1561 
 421   0.0000       1.772325        48.2274 
 422   0.0000       1.773052        48.2472 
 423   0.0000       1.782140        48.4945 
 424   0.0000       1.797165        48.9033 
 425   0.0000       1.800551        48.9955 
 426   0.0000       1.804118        49.0925 
 427   0.0000       1.805013        49.1169 
 428   0.0000       1.807093        49.1735 
 429   0.0000       1.864446        50.7341 
 430   0.0000       1.865076        50.7513 
 431   0.0000       1.879489        51.1435 
 432   0.0000       1.889671        51.4206 
 433   0.0000       1.892634        51.5012 
 434   0.0000       1.982552        53.9480 
 435   0.0000       2.032680        55.3120 
 436   0.0000       2.041492        55.5518 
 437   0.0000       2.107810        57.3564 
 438   0.0000       2.182883        59.3993 
 439   0.0000       2.231021        60.7092 
 440   0.0000       2.256320        61.3976 
 441   0.0000       2.305888        62.7464 
 442   0.0000       2.330118        63.4057 
 443   0.0000       2.355110        64.0858 
 444   0.0000       2.399654        65.2979 
 445   0.0000       2.403103        65.3918 
 446   0.0000       2.416888        65.7669 
 447   0.0000       2.420948        65.8773 
 448   0.0000       2.477244        67.4092 
 449   0.0000       2.484231        67.5994 
 450   0.0000       2.499825        68.0237 
 451   0.0000       2.546138        69.2839 
 452   0.0000       3.022133        82.2364 
 453   0.0000       3.228561        87.8536 
 454   0.0000       3.237249        88.0900 
 455   0.0000       3.245324        88.3098 
 456   0.0000       3.252371        88.5015 
 457   0.0000       3.253838        88.5414 
 458   0.0000       3.292616        89.5966 
 459   0.0000       3.293170        89.6117 
 460   0.0000       3.327029        90.5331 
 461   0.0000       3.354390        91.2776 
 462   0.0000       3.355850        91.3173 
 463   0.0000       3.484242        94.8111 
 464   0.0000       3.486132        94.8625 
 465   0.0000      23.755592       646.4225 
 466   0.0000      23.845487       648.8687 
 467   0.0000      23.849662       648.9823 
 468   0.0000      23.997960       653.0177 
 469   0.0000      24.491018       666.4345 
 470   0.0000      24.510932       666.9764 
 471   0.0000      24.612132       669.7302 
 472   0.0000      24.917420       678.0375 
 473   0.0000      25.185379       685.3290 
 474   0.0000      25.218054       686.2181 
 475   0.0000      25.241833       686.8652 
 476   0.0000      25.391308       690.9326 
 477   0.0000      25.414458       691.5626 
 478   0.0000      25.508466       694.1207 
 479   0.0000      25.900909       704.7996 
 480   0.0000      26.049766       708.8502 
 481   0.0000      26.058443       709.0863 
 482   0.0000      26.135300       711.1777 
 483   0.0000      26.206094       713.1041 
 484   0.0000      26.271891       714.8945 
 485   0.0000      26.471009       720.3128 
 486   0.0000      26.507218       721.2981 
 487   0.0000      26.588923       723.5214 
 488   0.0000      26.815181       729.6782 
 489   0.0000      26.927795       732.7425 
 490   0.0000      27.131655       738.2899 
 491   0.0000      27.228793       740.9331 
 492   0.0000      27.265068       741.9202 
 493   0.0000      27.908869       759.4389 
 494   0.0000      27.915244       759.6124 
 495   0.0000      28.119404       765.1679 
 496   0.0000      28.429073       773.5944 
 497   0.0000      28.771907       782.9234 
 498   0.0000      29.088538       791.5393 
 499   0.0000      29.575709       804.7959 
 500   0.0000      30.422025       827.8254 
 501   0.0000      43.846833      1193.1330 
 502   0.0000      43.983361      1196.8481 
 503   0.0000      44.023108      1197.9297 
 504   0.0000      44.029023      1198.0906 
 505   0.0000      44.073278      1199.2949 
 506   0.0000      44.104827      1200.1534 
 507   0.0000      44.106358      1200.1950 
 508   0.0000      44.123638      1200.6652 
 509   0.0000      44.134142      1200.9511 
 510   0.0000      44.159813      1201.6496 
 511   0.0000      44.182966      1202.2796 
 512   0.0000      44.213940      1203.1225 
 513   0.0000     205.068631      5580.2011 
 514   0.0000     205.126470      5581.7750 
 515   0.0000     205.135730      5582.0270 
 516   0.0000     205.137359      5582.0713 
 517   0.0000     205.160598      5582.7037 
 518   0.0000     205.174431      5583.0801 
 519   0.0000     205.180037      5583.2327 
 520   0.0000     205.182345      5583.2954 
 521   0.0000     205.183570      5583.3288 
 522   0.0000     205.200371      5583.7860 
 523   0.0000     205.207373      5583.9765 
 524   0.0000     205.216136      5584.2149 

                 SPIN DOWN ORBITALS
  NO   OCC          E(Eh)            E(eV) 
   0   1.0000    -234.196261     -6372.8042 
   1   1.0000     -26.828584      -730.0429 
   2   1.0000     -22.994273      -625.7060 
   3   1.0000     -22.993639      -625.6887 
   4   1.0000     -22.990488      -625.6030 
   5   1.0000      -4.037331      -109.8614 
   6   1.0000      -4.037321      -109.8611 
   7   1.0000      -4.029522      -109.6489 
   8   1.0000      -4.029464      -109.6473 
   9   1.0000      -4.026334      -109.5621 
  10   1.0000      -4.026028      -109.5538 
  11   1.0000      -4.019569      -109.3780 
  12   1.0000      -4.019562      -109.3778 
  13   1.0000      -4.019541      -109.3773 
  14   1.0000      -4.019534      -109.3771 
  15   1.0000      -4.017659      -109.3261 
  16   1.0000      -4.017653      -109.3259 
  17   1.0000      -2.943104       -80.0859 
  18   1.0000      -2.252806       -61.3020 
  19   1.0000      -2.252794       -61.3016 
  20   1.0000      -2.250556       -61.2407 
  21   1.0000      -2.250539       -61.2403 
  22   1.0000      -2.247950       -61.1698 
  23   1.0000      -2.247338       -61.1532 
  24   1.0000      -2.247307       -61.1523 
  25   1.0000      -2.245126       -61.0930 
  26   1.0000      -2.244741       -61.0825 
  27   1.0000      -2.242349       -61.0174 
  28   1.0000      -2.242131       -61.0115 
  29   1.0000      -2.241788       -61.0022 
  30   1.0000      -2.241696       -60.9997 
  31   1.0000      -2.240761       -60.9742 
  32   1.0000      -2.239828       -60.9488 
  33   1.0000      -2.239051       -60.9277 
  34   1.0000      -2.237484       -60.8850 
  35   1.0000      -2.237036       -60.8728 
  36   1.0000      -2.236883       -60.8687 
  37   1.0000      -2.236622       -60.8616 
  38   1.0000      -2.233498       -60.7766 
  39   1.0000      -2.233294       -60.7710 
  40   1.0000      -2.232363       -60.7457 
  41   1.0000      -2.231835       -60.7313 
  42   1.0000      -2.230499       -60.6950 
  43   1.0000      -2.230492       -60.6948 
  44   1.0000      -2.230132       -60.6850 
  45   1.0000      -2.230100       -60.6841 
  46   1.0000      -2.229015       -60.6546 
  47   1.0000      -2.229004       -60.6543 
  48   1.0000      -2.228716       -60.6465 
  49   1.0000      -2.228711       -60.6463 
  50   1.0000      -2.228361       -60.6368 
  51   1.0000      -2.228350       -60.6365 
  52   1.0000      -2.228146       -60.6309 
  53   1.0000      -2.228117       -60.6301 
  54   1.0000      -1.851688       -50.3870 
  55   1.0000      -1.850293       -50.3490 
  56   1.0000      -1.844581       -50.1936 
  57   1.0000      -0.419376       -11.4118 
  58   1.0000      -0.384960       -10.4753 
  59   1.0000      -0.382924       -10.4199 
  60   1.0000      -0.374629       -10.1942 
  61   1.0000      -0.368037       -10.0148 
  62   1.0000      -0.364091        -9.9074 
  63   1.0000      -0.363818        -9.9000 
  64   1.0000      -0.356894        -9.7116 
  65   1.0000      -0.351588        -9.5672 
  66   1.0000      -0.348827        -9.4921 
  67   1.0000      -0.340467        -9.2646 
  68   1.0000      -0.339216        -9.2305 
  69   1.0000      -0.336053        -9.1445 
  70   1.0000      -0.333769        -9.0823 
  71   1.0000      -0.333437        -9.0733 
  72   1.0000      -0.332710        -9.0535 
  73   1.0000      -0.329281        -8.9602 
  74   1.0000      -0.328627        -8.9424 
  75   1.0000      -0.324620        -8.8333 
  76   1.0000      -0.324166        -8.8210 
  77   1.0000      -0.322474        -8.7750 
  78   1.0000      -0.321428        -8.7465 
  79   1.0000      -0.317551        -8.6410 
  80   1.0000      -0.310047        -8.4368 
  81   1.0000      -0.309838        -8.4311 
  82   1.0000      -0.305743        -8.3197 
  83   1.0000      -0.304096        -8.2749 
  84   1.0000      -0.301723        -8.2103 
  85   1.0000      -0.298844        -8.1320 
  86   1.0000      -0.297546        -8.0966 
  87   1.0000      -0.295715        -8.0468 
  88   1.0000      -0.290898        -7.9157 
  89   1.0000      -0.290720        -7.9109 
  90   1.0000      -0.288197        -7.8422 
  91   1.0000      -0.288040        -7.8380 
  92   1.0000      -0.286067        -7.7843 
  93   1.0000      -0.280981        -7.6459 
  94   1.0000      -0.277692        -7.5564 
  95   1.0000      -0.277245        -7.5442 
  96   1.0000      -0.273097        -7.4313 
  97   1.0000      -0.272758        -7.4221 
  98   1.0000      -0.271716        -7.3938 
  99   1.0000      -0.269773        -7.3409 
 100   1.0000      -0.269362        -7.3297 
 101   1.0000      -0.266675        -7.2566 
 102   1.0000      -0.265677        -7.2294 
 103   1.0000      -0.262729        -7.1492 
 104   1.0000      -0.262666        -7.1475 
 105   1.0000      -0.261101        -7.1049 
 106   1.0000      -0.260880        -7.0989 
 107   1.0000      -0.259080        -7.0499 
 108   1.0000      -0.259078        -7.0499 
 109   1.0000      -0.258688        -7.0393 
 110   1.0000      -0.254848        -6.9348 
 111   1.0000      -0.254468        -6.9244 
 112   1.0000      -0.253586        -6.9004 
 113   1.0000      -0.249224        -6.7817 
 114   1.0000      -0.249209        -6.7813 
 115   1.0000      -0.247988        -6.7481 
 116   1.0000      -0.246427        -6.7056 
 117   1.0000      -0.246329        -6.7030 
 118   1.0000      -0.239750        -6.5239 
 119   1.0000      -0.235661        -6.4126 
 120   1.0000      -0.233222        -6.3463 
 121   1.0000      -0.221408        -6.0248 
 122   1.0000      -0.210450        -5.7266 
 123   1.0000      -0.192491        -5.2379 
 124   0.0000      -0.186699        -5.0803 
 125   0.0000      -0.148651        -4.0450 
 126   0.0000      -0.144388        -3.9290 
 127   0.0000      -0.140526        -3.8239 
 128   0.0000      -0.121991        -3.3195 
 129   0.0000      -0.121579        -3.3083 
 130   0.0000      -0.117161        -3.1881 
 131   0.0000      -0.116575        -3.1722 
 132   0.0000      -0.114518        -3.1162 
 133   0.0000      -0.113813        -3.0970 
 134   0.0000      -0.100718        -2.7407 
 135   0.0000      -0.068469        -1.8631 
 136   0.0000      -0.057209        -1.5567 
 137   0.0000      -0.053243        -1.4488 
 138   0.0000      -0.050865        -1.3841 
 139   0.0000      -0.047599        -1.2952 
 140   0.0000      -0.040395        -1.0992 
 141   0.0000      -0.032276        -0.8783 
 142   0.0000      -0.019373        -0.5272 
 143   0.0000      -0.015522        -0.4224 
 144   0.0000      -0.013147        -0.3577 
 145   0.0000       0.011272         0.3067 
 146   0.0000       0.011478         0.3123 
 147   0.0000       0.029727         0.8089 
 148   0.0000       0.038818         1.0563 
 149   0.0000       0.039279         1.0688 
 150   0.0000       0.045047         1.2258 
 151   0.0000       0.046300         1.2599 
 152   0.0000       0.050126         1.3640 
 153   0.0000       0.054985         1.4962 
 154   0.0000       0.056757         1.5444 
 155   0.0000       0.061003         1.6600 
 156   0.0000       0.061050         1.6612 
 157   0.0000       0.066121         1.7992 
 158   0.0000       0.074784         2.0350 
 159   0.0000       0.079155         2.1539 
 160   0.0000       0.084422         2.2972 
 161   0.0000       0.091457         2.4887 
 162   0.0000       0.092278         2.5110 
 163   0.0000       0.097932         2.6649 
 164   0.0000       0.111541         3.0352 
 165   0.0000       0.113482         3.0880 
 166   0.0000       0.122477         3.3328 
 167   0.0000       0.123331         3.3560 
 168   0.0000       0.125413         3.4127 
 169   0.0000       0.142197         3.8694 
 170   0.0000       0.147767         4.0210 
 171   0.0000       0.157600         4.2885 
 172   0.0000       0.159465         4.3393 
 173   0.0000       0.166294         4.5251 
 174   0.0000       0.168560         4.5868 
 175   0.0000       0.173778         4.7287 
 176   0.0000       0.182848         4.9755 
 177   0.0000       0.186255         5.0682 
 178   0.0000       0.186687         5.0800 
 179   0.0000       0.192765         5.2454 
 180   0.0000       0.208301         5.6682 
 181   0.0000       0.211307         5.7500 
 182   0.0000       0.217463         5.9175 
 183   0.0000       0.218717         5.9516 
 184   0.0000       0.224766         6.1162 
 185   0.0000       0.228403         6.2151 
 186   0.0000       0.238113         6.4794 
 187   0.0000       0.238631         6.4935 
 188   0.0000       0.240595         6.5469 
 189   0.0000       0.246633         6.7112 
 190   0.0000       0.250216         6.8087 
 191   0.0000       0.264083         7.1861 
 192   0.0000       0.265107         7.2139 
 193   0.0000       0.269802         7.3417 
 194   0.0000       0.273646         7.4463 
 195   0.0000       0.277750         7.5580 
 196   0.0000       0.284828         7.7506 
 197   0.0000       0.287388         7.8202 
[...]
 140( 0) :    -0.040366 a.u.    -1.098 eV
 141( 0) :    -0.033604 a.u.    -0.914 eV
 142( 0) :    -0.028048 a.u.    -0.763 eV
 143( 0) :    -0.022566 a.u.    -0.614 eV
 144( 0) :    -0.017281 a.u.    -0.470 eV
 145( 0) :     0.004471 a.u.     0.122 eV
 146( 0) :     0.004903 a.u.     0.133 eV
 147( 0) :     0.030251 a.u.     0.823 eV
 148( 0) :     0.037209 a.u.     1.013 eV
 149( 0) :     0.038928 a.u.     1.059 eV
 150( 0) :     0.040977 a.u.     1.115 eV
 151( 0) :     0.044697 a.u.     1.216 eV
 152( 0) :     0.046342 a.u.     1.261 eV
 153( 0) :     0.051534 a.u.     1.402 eV
 154( 0) :     0.052674 a.u.     1.433 eV
 155( 0) :     0.055276 a.u.     1.504 eV
 156( 0) :     0.056619 a.u.     1.541 eV
 157( 0) :     0.061761 a.u.     1.681 eV
 158( 0) :     0.072769 a.u.     1.980 eV
 159( 0) :     0.076773 a.u.     2.089 eV
 160( 0) :     0.079623 a.u.     2.167 eV
 161( 0) :     0.085446 a.u.     2.325 eV
 162( 0) :     0.087770 a.u.     2.388 eV
 163( 0) :     0.093714 a.u.     2.550 eV
 164( 0) :     0.106548 a.u.     2.899 eV
 165( 0) :     0.112369 a.u.     3.058 eV
 166( 0) :     0.113220 a.u.     3.081 eV
 167( 0) :     0.124800 a.u.     3.396 eV
 168( 0) :     0.129686 a.u.     3.529 eV
 169( 0) :     0.142505 a.u.     3.878 eV
 170( 0) :     0.146338 a.u.     3.982 eV
 171( 0) :     0.152486 a.u.     4.149 eV
 172( 0) :     0.153125 a.u.     4.167 eV
 173( 0) :     0.156013 a.u.     4.245 eV
 174( 0) :     0.164038 a.u.     4.464 eV
 175( 0) :     0.165845 a.u.     4.513 eV
 176( 0) :     0.170699 a.u.     4.645 eV
 177( 0) :     0.174859 a.u.     4.758 eV
 178( 0) :     0.178060 a.u.     4.845 eV
 179( 0) :     0.193437 a.u.     5.264 eV
 180( 0) :     0.203041 a.u.     5.525 eV
 181( 0) :     0.208384 a.u.     5.670 eV
 182( 0) :     0.214283 a.u.     5.831 eV
 183( 0) :     0.215237 a.u.     5.857 eV
 184( 0) :     0.224439 a.u.     6.107 eV
 185( 0) :     0.227992 a.u.     6.204 eV
 186( 0) :     0.231318 a.u.     6.294 eV
 187( 0) :     0.237075 a.u.     6.451 eV
 188( 0) :     0.240841 a.u.     6.554 eV
 189( 0) :     0.242390 a.u.     6.596 eV
 190( 0) :     0.243599 a.u.     6.629 eV
 191( 0) :     0.248834 a.u.     6.771 eV
 192( 0) :     0.264154 a.u.     7.188 eV
 193( 0) :     0.265196 a.u.     7.216 eV
 194( 0) :     0.273857 a.u.     7.452 eV
 195( 0) :     0.278304 a.u.     7.573 eV
 196( 0) :     0.286242 a.u.     7.789 eV
 197( 0) :     0.288954 a.u.     7.863 eV
 198( 0) :     0.295930 a.u.     8.053 eV
 199( 0) :     0.296632 a.u.     8.072 eV
 200( 0) :     0.301152 a.u.     8.195 eV
 201( 0) :     0.302788 a.u.     8.239 eV
 202( 0) :     0.304650 a.u.     8.290 eV
 203( 0) :     0.309409 a.u.     8.419 eV
 204( 0) :     0.309864 a.u.     8.432 eV
 205( 0) :     0.317872 a.u.     8.650 eV
 206( 0) :     0.323149 a.u.     8.793 eV
 207( 0) :     0.325648 a.u.     8.861 eV
 208( 0) :     0.337225 a.u.     9.176 eV
 209( 0) :     0.337365 a.u.     9.180 eV
 210( 0) :     0.338614 a.u.     9.214 eV
 211( 0) :     0.345784 a.u.     9.409 eV
 212( 0) :     0.356645 a.u.     9.705 eV
 213( 0) :     0.357154 a.u.     9.719 eV
 214( 0) :     0.358245 a.u.     9.748 eV
 215( 0) :     0.369014 a.u.    10.041 eV
 216( 0) :     0.371460 a.u.    10.108 eV
 217( 0) :     0.377794 a.u.    10.280 eV
 218( 0) :     0.388174 a.u.    10.563 eV
 219( 0) :     0.389644 a.u.    10.603 eV
 220( 0) :     0.398656 a.u.    10.848 eV
 221( 0) :     0.405709 a.u.    11.040 eV
 222( 0) :     0.410640 a.u.    11.174 eV
 223( 0) :     0.411995 a.u.    11.211 eV
 224( 0) :     0.424985 a.u.    11.564 eV
 225( 0) :     0.425105 a.u.    11.568 eV
 226( 0) :     0.425268 a.u.    11.572 eV
 227( 0) :     0.429725 a.u.    11.693 eV
 228( 0) :     0.432829 a.u.    11.778 eV
 229( 0) :     0.439346 a.u.    11.955 eV
 230( 0) :     0.444368 a.u.    12.092 eV
 231( 0) :     0.448753 a.u.    12.211 eV
 232( 0) :     0.455017 a.u.    12.382 eV
 233( 0) :     0.468067 a.u.    12.737 eV
 234( 0) :     0.473249 a.u.    12.878 eV
 235( 0) :     0.477489 a.u.    12.993 eV
 236( 0) :     0.482633 a.u.    13.133 eV
 237( 0) :     0.483213 a.u.    13.149 eV
 238( 0) :     0.489124 a.u.    13.310 eV
 239( 0) :     0.494297 a.u.    13.451 eV
 240( 0) :     0.494605 a.u.    13.459 eV
 241( 0) :     0.495171 a.u.    13.474 eV
 242( 0) :     0.502825 a.u.    13.683 eV
 243( 0) :     0.509992 a.u.    13.878 eV
 244( 0) :     0.513107 a.u.    13.962 eV
 245( 0) :     0.524255 a.u.    14.266 eV
 246( 0) :     0.527378 a.u.    14.351 eV
 247( 0) :     0.531032 a.u.    14.450 eV
 248( 0) :     0.546009 a.u.    14.858 eV
 249( 0) :     0.553415 a.u.    15.059 eV
 250( 0) :     0.558371 a.u.    15.194 eV
 251( 0) :     0.563218 a.u.    15.326 eV
 252( 0) :     0.565379 a.u.    15.385 eV
 253( 0) :     0.591702 a.u.    16.101 eV
 254( 0) :     0.625464 a.u.    17.020 eV
 255( 0) :     0.640439 a.u.    17.427 eV
 256( 0) :     0.645116 a.u.    17.555 eV
 257( 0) :     0.650257 a.u.    17.694 eV
 258( 0) :     0.664854 a.u.    18.092 eV
 259( 0) :     0.672884 a.u.    18.310 eV
 260( 0) :     0.681801 a.u.    18.553 eV
 261( 0) :     0.705065 a.u.    19.186 eV
 262( 0) :     0.705701 a.u.    19.203 eV
 263( 0) :     0.706458 a.u.    19.224 eV
 264( 0) :     0.729680 a.u.    19.856 eV
 265( 0) :     0.732121 a.u.    19.922 eV
 266( 0) :     0.739450 a.u.    20.121 eV
 267( 0) :     0.757402 a.u.    20.610 eV
 268( 0) :     0.764752 a.u.    20.810 eV
 269( 0) :     0.791598 a.u.    21.540 eV
 270( 0) :     0.792891 a.u.    21.576 eV
 271( 0) :     0.816005 a.u.    22.205 eV
 272( 0) :     0.821896 a.u.    22.365 eV
 273( 0) :     0.833714 a.u.    22.687 eV
 274( 0) :     0.848375 a.u.    23.085 eV
 275( 0) :     0.850731 a.u.    23.150 eV
 276( 0) :     0.876369 a.u.    23.847 eV
 277( 0) :     0.877473 a.u.    23.877 eV
 278( 0) :     0.889995 a.u.    24.218 eV
 279( 0) :     0.898628 a.u.    24.453 eV
 280( 0) :     0.908705 a.u.    24.727 eV
 281( 0) :     0.920620 a.u.    25.051 eV
 282( 0) :     0.921941 a.u.    25.087 eV
 283( 0) :     0.929586 a.u.    25.295 eV
 284( 0) :     0.941447 a.u.    25.618 eV
 285( 0) :     0.970615 a.u.    26.412 eV
 286( 0) :     0.981743 a.u.    26.715 eV
 287( 0) :     0.983920 a.u.    26.774 eV
 288( 0) :     1.034532 a.u.    28.151 eV
 289( 0) :     1.040331 a.u.    28.309 eV
 290( 0) :     1.108451 a.u.    30.162 eV
 291( 0) :     1.130025 a.u.    30.750 eV
 292( 0) :     1.180756 a.u.    32.130 eV
 293( 0) :     1.192521 a.u.    32.450 eV
 294( 0) :     1.215292 a.u.    33.070 eV
 295( 0) :     1.218914 a.u.    33.168 eV
 296( 0) :     1.248204 a.u.    33.965 eV
 297( 0) :     1.252996 a.u.    34.096 eV
 298( 0) :     1.264838 a.u.    34.418 eV
 299( 0) :     1.284820 a.u.    34.962 eV
 300( 0) :     1.303043 a.u.    35.458 eV
 301( 0) :     1.307046 a.u.    35.567 eV
 302( 0) :     1.315622 a.u.    35.800 eV
 303( 0) :     1.322353 a.u.    35.983 eV
 304( 0) :     1.330669 a.u.    36.209 eV
 305( 0) :     1.336331 a.u.    36.363 eV
 306( 0) :     1.342671 a.u.    36.536 eV
 307( 0) :     1.351009 a.u.    36.763 eV
 308( 0) :     1.360184 a.u.    37.013 eV
 309( 0) :     1.381673 a.u.    37.597 eV
 310( 0) :     1.381981 a.u.    37.606 eV
 311( 0) :     1.391797 a.u.    37.873 eV
 312( 0) :     1.393052 a.u.    37.907 eV
 313( 0) :     1.397274 a.u.    38.022 eV
 314( 0) :     1.401019 a.u.    38.124 eV
 315( 0) :     1.401888 a.u.    38.147 eV
 316( 0) :     1.409522 a.u.    38.355 eV
 317( 0) :     1.410000 a.u.    38.368 eV
 318( 0) :     1.413074 a.u.    38.452 eV
 319( 0) :     1.417020 a.u.    38.559 eV
 320( 0) :     1.417554 a.u.    38.574 eV
 321( 0) :     1.418050 a.u.    38.587 eV
 322( 0) :     1.428961 a.u.    38.884 eV
 323( 0) :     1.434157 a.u.    39.025 eV
 324( 0) :     1.437391 a.u.    39.113 eV
 325( 0) :     1.444585 a.u.    39.309 eV
 326( 0) :     1.447790 a.u.    39.396 eV
 327( 0) :     1.448592 a.u.    39.418 eV
 328( 0) :     1.452533 a.u.    39.525 eV
 329( 0) :     1.454347 a.u.    39.575 eV
 330( 0) :     1.460312 a.u.    39.737 eV
 331( 0) :     1.465207 a.u.    39.870 eV
 332( 0) :     1.467062 a.u.    39.921 eV
 333( 0) :     1.468033 a.u.    39.947 eV
 334( 0) :     1.470069 a.u.    40.003 eV
 335( 0) :     1.472662 a.u.    40.073 eV
 336( 0) :     1.473460 a.u.    40.095 eV
 337( 0) :     1.478968 a.u.    40.245 eV
 338( 0) :     1.479251 a.u.    40.252 eV
 339( 0) :     1.480539 a.u.    40.288 eV
 340( 0) :     1.483477 a.u.    40.367 eV
 341( 0) :     1.483557 a.u.    40.370 eV
 342( 0) :     1.485965 a.u.    40.435 eV
 343( 0) :     1.488302 a.u.    40.499 eV
 344( 0) :     1.489566 a.u.    40.533 eV
 345( 0) :     1.489852 a.u.    40.541 eV
 346( 0) :     1.494878 a.u.    40.678 eV
 347( 0) :     1.497048 a.u.    40.737 eV
 348( 0) :     1.497716 a.u.    40.755 eV
 349( 0) :     1.498088 a.u.    40.765 eV
 350( 0) :     1.498819 a.u.    40.785 eV
 351( 0) :     1.500321 a.u.    40.826 eV
 352( 0) :     1.500482 a.u.    40.830 eV
 353( 0) :     1.506631 a.u.    40.998 eV
 354( 0) :     1.512219 a.u.    41.150 eV
 355( 0) :     1.512478 a.u.    41.157 eV
 356( 0) :     1.512562 a.u.    41.159 eV
 357( 0) :     1.513178 a.u.    41.176 eV
 358( 0) :     1.515592 a.u.    41.241 eV
 359( 0) :     1.516108 a.u.    41.255 eV
 360( 0) :     1.517964 a.u.    41.306 eV
 361( 0) :     1.518316 a.u.    41.315 eV
 362( 0) :     1.519853 a.u.    41.357 eV
 363( 0) :     1.523711 a.u.    41.462 eV
 364( 0) :     1.524758 a.u.    41.491 eV
 365( 0) :     1.525858 a.u.    41.521 eV
 366( 0) :     1.528181 a.u.    41.584 eV
 367( 0) :     1.530038 a.u.    41.634 eV
 368( 0) :     1.531346 a.u.    41.670 eV
 369( 0) :     1.532454 a.u.    41.700 eV
 370( 0) :     1.533596 a.u.    41.731 eV
 371( 0) :     1.538412 a.u.    41.862 eV
 372( 0) :     1.538850 a.u.    41.874 eV
 373( 0) :     1.540050 a.u.    41.907 eV
 374( 0) :     1.542377 a.u.    41.970 eV
 375( 0) :     1.544098 a.u.    42.017 eV
 376( 0) :     1.545820 a.u.    42.064 eV
 377( 0) :     1.548685 a.u.    42.142 eV
 378( 0) :     1.549706 a.u.    42.170 eV
 379( 0) :     1.550531 a.u.    42.192 eV
 380( 0) :     1.551373 a.u.    42.215 eV
 381( 0) :     1.552205 a.u.    42.238 eV
 382( 0) :     1.555794 a.u.    42.335 eV
 383( 0) :     1.556324 a.u.    42.350 eV
 384( 0) :     1.560603 a.u.    42.466 eV
 385( 0) :     1.562472 a.u.    42.517 eV
 386( 0) :     1.565579 a.u.    42.602 eV
 387( 0) :     1.566534 a.u.    42.628 eV
 388( 0) :     1.571873 a.u.    42.773 eV
 389( 0) :     1.574939 a.u.    42.856 eV
 390( 0) :     1.577386 a.u.    42.923 eV
 391( 0) :     1.584577 a.u.    43.119 eV
 392( 0) :     1.584827 a.u.    43.125 eV
 393( 0) :     1.589865 a.u.    43.262 eV
 394( 0) :     1.591632 a.u.    43.311 eV
 395( 0) :     1.593101 a.u.    43.350 eV
 396( 0) :     1.593577 a.u.    43.363 eV
 397( 0) :     1.595610 a.u.    43.419 eV
 398( 0) :     1.599182 a.u.    43.516 eV
 399( 0) :     1.605263 a.u.    43.681 eV
 400( 0) :     1.606271 a.u.    43.709 eV
 401( 0) :     1.607744 a.u.    43.749 eV
 402( 0) :     1.607898 a.u.    43.753 eV
 403( 0) :     1.611924 a.u.    43.863 eV
 404( 0) :     1.613220 a.u.    43.898 eV
 405( 0) :     1.629189 a.u.    44.332 eV
 406( 0) :     1.634406 a.u.    44.474 eV
 407( 0) :     1.638332 a.u.    44.581 eV
 408( 0) :     1.641839 a.u.    44.677 eV
 409( 0) :     1.644909 a.u.    44.760 eV
 410( 0) :     1.652172 a.u.    44.958 eV
 411( 0) :     1.658456 a.u.    45.129 eV
 412( 0) :     1.662603 a.u.    45.242 eV
 413( 0) :     1.682522 a.u.    45.784 eV
 414( 0) :     1.687088 a.u.    45.908 eV
 415( 0) :     1.707602 a.u.    46.466 eV
 416( 0) :     1.720490 a.u.    46.817 eV
 417( 0) :     1.732635 a.u.    47.147 eV
 418( 0) :     1.734204 a.u.    47.190 eV
 419( 0) :     1.736357 a.u.    47.249 eV
 420( 0) :     1.769990 a.u.    48.164 eV
 421( 0) :     1.773535 a.u.    48.260 eV
 422( 0) :     1.782417 a.u.    48.502 eV
 423( 0) :     1.791283 a.u.    48.743 eV
 424( 0) :     1.803576 a.u.    49.078 eV
 425( 0) :     1.810911 a.u.    49.277 eV
 426( 0) :     1.813796 a.u.    49.356 eV
 427( 0) :     1.823927 a.u.    49.632 eV
 428( 0) :     1.831681 a.u.    49.843 eV
 429( 0) :     1.843895 a.u.    50.175 eV
 430( 0) :     1.873977 a.u.    50.994 eV
 431( 0) :     1.882799 a.u.    51.234 eV
 432( 0) :     1.912634 a.u.    52.045 eV
 433( 0) :     1.934722 a.u.    52.646 eV
 434( 0) :     1.963692 a.u.    53.435 eV
 435( 0) :     1.993352 a.u.    54.242 eV
 436( 0) :     1.999281 a.u.    54.403 eV
 437( 0) :     2.126249 a.u.    57.858 eV
 438( 0) :     2.158296 a.u.    58.730 eV
 439( 0) :     2.215448 a.u.    60.285 eV
 440( 0) :     2.252203 a.u.    61.286 eV
 441( 0) :     2.319770 a.u.    63.124 eV
 442( 0) :     2.320606 a.u.    63.147 eV
 443( 0) :     2.363611 a.u.    64.317 eV
 444( 0) :     2.381559 a.u.    64.806 eV
 445( 0) :     2.398280 a.u.    65.261 eV
 446( 0) :     2.420607 a.u.    65.868 eV
 447( 0) :     2.459285 a.u.    66.921 eV
 448( 0) :     2.466165 a.u.    67.108 eV
 449( 0) :     2.489215 a.u.    67.735 eV
 450( 0) :     2.515087 a.u.    68.439 eV
 451( 0) :     2.523650 a.u.    68.672 eV
 452( 0) :     2.952697 a.u.    80.347 eV
 453( 0) :     3.230681 a.u.    87.911 eV
 454( 0) :     3.240590 a.u.    88.181 eV
 455( 0) :     3.249314 a.u.    88.418 eV
 456( 0) :     3.249987 a.u.    88.437 eV
 457( 0) :     3.251450 a.u.    88.476 eV
 458( 0) :     3.267698 a.u.    88.919 eV
 459( 0) :     3.276828 a.u.    89.167 eV
 460( 0) :     3.324155 a.u.    90.455 eV
 461( 0) :     3.324822 a.u.    90.473 eV
 462( 0) :     3.378750 a.u.    91.940 eV
 463( 0) :     3.400339 a.u.    92.528 eV
 464( 0) :     3.471645 a.u.    94.468 eV
 465( 0) :    23.620262 a.u.   642.740 eV
 466( 0) :    23.702575 a.u.   644.980 eV
 467( 0) :    23.808912 a.u.   647.873 eV
 468( 0) :    23.829333 a.u.   648.429 eV
 469( 0) :    24.326991 a.u.   661.971 eV
 470( 0) :    24.365700 a.u.   663.024 eV
 471( 0) :    24.447370 a.u.   665.247 eV
 472( 0) :    24.639529 a.u.   670.476 eV
 473( 0) :    24.731513 a.u.   672.979 eV
 474( 0) :    24.734526 a.u.   673.061 eV
 475( 0) :    25.062106 a.u.   681.975 eV
 476( 0) :    25.142443 a.u.   684.161 eV
 477( 0) :    25.164571 a.u.   684.763 eV
 478( 0) :    25.820074 a.u.   702.600 eV
 479( 0) :    25.889171 a.u.   704.480 eV
 480( 0) :    26.194717 a.u.   712.794 eV
 481( 0) :    26.248710 a.u.   714.264 eV
 482( 0) :    26.252769 a.u.   714.374 eV
 483( 0) :    26.273782 a.u.   714.946 eV
 484( 0) :    26.380301 a.u.   717.844 eV
 485( 0) :    26.654180 a.u.   725.297 eV
 486( 0) :    26.706731 a.u.   726.727 eV
 487( 0) :    26.852201 a.u.   730.686 eV
 488( 0) :    26.878471 a.u.   731.400 eV
 489( 0) :    26.956913 a.u.   733.535 eV
 490( 0) :    27.117445 a.u.   737.903 eV
 491( 0) :    27.121947 a.u.   738.026 eV
 492( 0) :    27.189915 a.u.   739.875 eV
 493( 0) :    27.725297 a.u.   754.444 eV
 494( 0) :    27.884494 a.u.   758.776 eV
 495( 0) :    27.968751 a.u.   761.068 eV
 496( 0) :    28.189715 a.u.   767.081 eV
 497( 0) :    28.298297 a.u.   770.036 eV
 498( 0) :    28.322896 a.u.   770.705 eV
 499( 0) :    29.445533 a.u.   801.254 eV
 500( 0) :    29.453735 a.u.   801.477 eV
 501( 0) :    43.868336 a.u.  1193.718 eV
 502( 0) :    43.992005 a.u.  1197.083 eV
 503( 0) :    44.022501 a.u.  1197.913 eV
 504( 0) :    44.026964 a.u.  1198.035 eV
 505( 0) :    44.059875 a.u.  1198.930 eV
 506( 0) :    44.096097 a.u.  1199.916 eV
 507( 0) :    44.109800 a.u.  1200.289 eV
 508( 0) :    44.123840 a.u.  1200.671 eV
 509( 0) :    44.166549 a.u.  1201.833 eV
 510( 0) :    44.173028 a.u.  1202.009 eV
 511( 0) :    44.211347 a.u.  1203.052 eV
 512( 0) :    44.229404 a.u.  1203.543 eV
 513( 0) :   205.078246 a.u.  5580.463 eV
 514( 0) :   205.130740 a.u.  5581.891 eV
 515( 0) :   205.137276 a.u.  5582.069 eV
 516( 0) :   205.138351 a.u.  5582.098 eV
 517( 0) :   205.157391 a.u.  5582.616 eV
 518( 0) :   205.172000 a.u.  5583.014 eV
 519( 0) :   205.180162 a.u.  5583.236 eV
 520( 0) :   205.181762 a.u.  5583.280 eV
 521( 0) :   205.198372 a.u.  5583.732 eV
 522( 0) :   205.203701 a.u.  5583.877 eV
 523( 0) :   205.215252 a.u.  5584.191 eV
 524( 0) :   205.222707 a.u.  5584.394 eV
-------
TIMINGS
-------

Total SCF time: 0 days 0 hours 3 min 20 sec 

Total time                  ....     200.760 sec
Sum of individual times     ....     196.776 sec  ( 98.0%)

Fock matrix formation       ....     186.812 sec  ( 93.1%)
  Split-RI-J                ....      62.754 sec  ( 33.6% of F)
  XC integration            ....     123.730 sec  ( 66.2% of F)
    Basis function eval.    ....      24.394 sec  ( 19.7% of XC)
    Density eval.           ....      66.690 sec  ( 53.9% of XC)
    XC-Functional eval.     ....       4.140 sec  (  3.3% of XC)
    XC-Potential eval.      ....      25.907 sec  ( 20.9% of XC)
Diagonalization             ....       2.925 sec  (  1.5%)
Density matrix formation    ....       0.403 sec  (  0.2%)
Population analysis         ....       2.302 sec  (  1.1%)
Initial guess               ....       0.294 sec  (  0.1%)
Orbital Transformation      ....       0.000 sec  (  0.0%)
Orbital Orthonormalization  ....       0.247 sec  (  0.1%)
DIIS solution               ....       0.000 sec  (  0.0%)
Grid generation             ....       4.041 sec  (  2.0%)

Maximum memory used throughout the entire SCF-calculation: 457.4 MB

-------------------------   --------------------
FINAL SINGLE POINT ENERGY     -2780.700539992307
-------------------------   --------------------

                                *** OPTIMIZATION RUN DONE ***

                            ***************************************
                            *     ORCA property calculations      *
                            ***************************************

                                    ---------------------
                                    Active property flags
                                    ---------------------
   (+) Dipole Moment


------------------------------------------------------------------------------
                       ORCA ELECTRIC PROPERTIES CALCULATION
------------------------------------------------------------------------------

Dipole Moment Calculation                       ... on
Quadrupole Moment Calculation                   ... off
Polarizability Calculation                      ... off
GBWName                                         ... pbe.gbw
Electron density                                ... pbe.scfp
The origin for moment calculation is the CENTER OF MASS  = (14.032608, 14.478079 14.761272)

-------------
DIPOLE MOMENT
-------------
                                X             Y             Z
Electronic contribution:     -0.43159       0.42263       1.68952
Nuclear contribution   :      0.36442      -0.35543      -1.43425
                        -----------------------------------------
Total Dipole Moment    :     -0.06718       0.06720       0.25528
                        -----------------------------------------
Magnitude (a.u.)       :      0.27239
Magnitude (Debye)      :      0.69235



--------------------
Rotational spectrum 
--------------------
 
Rotational constants in cm-1:     0.001746     0.001047     0.000958 
Rotational constants in MHz :    52.342186    31.390193    28.725520 

 Dipole components along the rotational axes: 
x,y,z [a.u.] :     0.001454     0.272384    -0.000036 
x,y,z [Debye]:     0.003695     0.692345    -0.000091 

 

Timings for individual modules:

Sum of individual times         ...     7540.283 sec (= 125.671 min)
GTO integral calculation        ...      150.662 sec (=   2.511 min)   2.0 %
SCF iterations                  ...     5739.164 sec (=  95.653 min)  76.1 %
SCF Gradient evaluation         ...     1649.775 sec (=  27.496 min)  21.9 %
Geometry relaxation             ...        0.681 sec (=   0.011 min)   0.0 %
                             ****ORCA TERMINATED NORMALLY****
TOTAL RUN TIME: 0 days 2 hours 5 minutes 42 seconds 305 msec
