
                                 *****************
                                 * O   R   C   A *
                                 *****************

                                            #,                                       
                                            ###                                      
                                            ####                                     
                                            #####                                    
                                            ######                                   
                                           ########,                                 
                                     ,,################,,,,,                         
                               ,,#################################,,                 
                          ,,##########################################,,             
                       ,#########################################, ''#####,          
                    ,#############################################,,   '####,        
                  ,##################################################,,,,####,       
                ,###########''''           ''''###############################       
              ,#####''   ,,,,##########,,,,          '''####'''          '####       
            ,##' ,,,,###########################,,,                        '##       
           ' ,,###''''                  '''############,,,                           
         ,,##''                                '''############,,,,        ,,,,,,###''
      ,#''                                            '''#######################'''  
     '                                                          ''''####''''         
             ,#######,   #######,   ,#######,      ##                                
            ,#'     '#,  ##    ##  ,#'     '#,    #''#        ######   ,####,        
            ##       ##  ##   ,#'  ##            #'  '#       #        #'  '#        
            ##       ##  #######   ##           ,######,      #####,   #    #        
            '#,     ,#'  ##    ##  '#,     ,#' ,#      #,         ##   #,  ,#        
             '#######'   ##     ##  '#######'  #'      '#     #####' # '####'        



                  #######################################################
                  #                        -***-                        #
                  #          Department of theory and spectroscopy      #
                  #    Directorship and core code : Frank Neese         #
                  #        Max Planck Institute fuer Kohlenforschung    #
                  #                Kaiser Wilhelm Platz 1               #
                  #                 D-45470 Muelheim/Ruhr               #
                  #                      Germany                        #
                  #                                                     #
                  #                  All rights reserved                #
                  #                        -***-                        #
                  #######################################################


                         Program Version 5.0.3 -  RELEASE  -


 With contributions from (in alphabetic order):
   Daniel Aravena         : Magnetic Suceptibility
   Michael Atanasov       : Ab Initio Ligand Field Theory (pilot matlab implementation)
   Alexander A. Auer      : GIAO ZORA, VPT2 properties, NMR spectrum
   Ute Becker             : Parallelization
   Giovanni Bistoni       : ED, misc. LED, open-shell LED, HFLD
   Martin Brehm           : Molecular dynamics
   Dmytro Bykov           : SCF Hessian
   Vijay G. Chilkuri      : MRCI spin determinant printing, contributions to CSF-ICE
   Dipayan Datta          : RHF DLPNO-CCSD density
   Achintya Kumar Dutta   : EOM-CC, STEOM-CC
   Dmitry Ganyushin       : Spin-Orbit,Spin-Spin,Magnetic field MRCI
   Miquel Garcia          : C-PCM and meta-GGA Hessian, CC/C-PCM, Gaussian charge scheme
   Yang Guo               : DLPNO-NEVPT2, F12-NEVPT2, CIM, IAO-localization
   Andreas Hansen         : Spin unrestricted coupled pair/coupled cluster methods
   Benjamin Helmich-Paris : MC-RPA, TRAH-SCF, COSX integrals
   Lee Huntington         : MR-EOM, pCC
   Robert Izsak           : Overlap fitted RIJCOSX, COSX-SCS-MP3, EOM
   Marcus Kettner         : VPT2
   Christian Kollmar      : KDIIS, OOCD, Brueckner-CCSD(T), CCSD density, CASPT2, CASPT2-K
   Simone Kossmann        : Meta GGA functionals, TD-DFT gradient, OOMP2, MP2 Hessian
   Martin Krupicka        : Initial AUTO-CI
   Lucas Lang             : DCDCAS
   Marvin Lechner         : AUTO-CI (C++ implementation), FIC-MRCC
   Dagmar Lenk            : GEPOL surface, SMD
   Dimitrios Liakos       : Extrapolation schemes; Compound Job, initial MDCI parallelization
   Dimitrios Manganas     : Further ROCIS development; embedding schemes
   Dimitrios Pantazis     : SARC Basis sets
   Anastasios Papadopoulos: AUTO-CI, single reference methods and gradients
   Taras Petrenko         : DFT Hessian,TD-DFT gradient, ASA, ECA, R-Raman, ABS, FL, XAS/XES, NRVS
   Peter Pinski           : DLPNO-MP2, DLPNO-MP2 Gradient
   Christoph Reimann      : Effective Core Potentials
   Marius Retegan         : Local ZFS, SOC
   Christoph Riplinger    : Optimizer, TS searches, QM/MM, DLPNO-CCSD(T), (RO)-DLPNO pert. Triples
   Tobias Risthaus        : Range-separated hybrids, TD-DFT gradient, RPA, STAB
   Michael Roemelt        : Original ROCIS implementation
   Masaaki Saitow         : Open-shell DLPNO-CCSD energy and density
   Barbara Sandhoefer     : DKH picture change effects
   Avijit Sen             : IP-ROCIS
   Kantharuban Sivalingam : CASSCF convergence, NEVPT2, FIC-MRCI
   Bernardo de Souza      : ESD, SOC TD-DFT
   Georgi Stoychev        : AutoAux, RI-MP2 NMR, DLPNO-MP2 response
   Willem Van den Heuvel  : Paramagnetic NMR
   Boris Wezisla          : Elementary symmetry handling
   Frank Wennmohs         : Technical directorship


 We gratefully acknowledge several colleagues who have allowed us to
 interface, adapt or use parts of their codes:
   Stefan Grimme, W. Hujo, H. Kruse, P. Pracht,  : VdW corrections, initial TS optimization,
                  C. Bannwarth, S. Ehlert          DFT functionals, gCP, sTDA/sTD-DF
   Ed Valeev, F. Pavosevic, A. Kumar             : LibInt (2-el integral package), F12 methods
   Garnet Chan, S. Sharma, J. Yang, R. Olivares  : DMRG
   Ulf Ekstrom                                   : XCFun DFT Library
   Mihaly Kallay                                 : mrcc  (arbitrary order and MRCC methods)
   Jiri Pittner, Ondrej Demel                    : Mk-CCSD
   Frank Weinhold                                : gennbo (NPA and NBO analysis)
   Christopher J. Cramer and Donald G. Truhlar   : smd solvation model
   Lars Goerigk                                  : TD-DFT with DH, B97 family of functionals
   V. Asgeirsson, H. Jonsson                     : NEB implementation
   FAccTs GmbH                                   : IRC, NEB, NEB-TS, DLPNO-Multilevel, CI-OPT
                                                   MM, QMMM, 2- and 3-layer-ONIOM, Crystal-QMMM,
                                                   LR-CPCM, SF, NACMEs, symmetry and pop. for TD-DFT,
                                                   nearIR, NL-DFT gradient (VV10), updates on ESD,
                                                   ML-optimized integration grids
   S Lehtola, MJT Oliveira, MAL Marques          : LibXC Library
   Liviu Ungur et al                             : ANISO software


 Your calculation uses the libint2 library for the computation of 2-el integrals
 For citations please refer to: http://libint.valeyev.net

 Your ORCA version has been built with support for libXC version: 5.1.0
 For citations please refer to: https://tddft.org/programs/libxc/

 This ORCA versions uses:
   CBLAS   interface :  Fast vector & matrix operations
   LAPACKE interface :  Fast linear algebra routines
   SCALAPACK package :  Parallel linear algebra routines
   Shared memory     :  Shared parallel matrices
   BLAS/LAPACK       :  OpenBLAS 0.3.15  USE64BITINT DYNAMIC_ARCH NO_AFFINITY Haswell SINGLE_THREADED
        Core in use  :  Haswell
   Copyright (c) 2011-2014, The OpenBLAS Project




***************************************
The coordinates will be read from file: 3.xyz
***************************************


================================================================================

cite the ECPs for Au [Def2-ECP] as follows:
Ce-Yb(ecp-28): M. Dolg, H. Stoll, H.Preuss, J. Chem. Phys., 1989, 90, 1730-1734.
Y-Cd(ecp-28), Hf-Hg(ecp-46): D. Andrae,U. Haeussermann, M. Dolg, H. Stoll, H. Preuss, Theor. Chim. Acta, 1990, 77, 123-141.
In-Sb(ecp-28), Tl-Bi(ecp-46): B. Metz, H. Stoll, M. Dolg, J. Chem. Phys., 2000, 113, 2563-2569.
Te-Xe(ecp-28), Po-Rn(ecp-46): K. A. Peterson, D. Figgen, E. Goll, H. Stoll, M. Dolg, J. Chem. Phys., 2003, 119, 11113-11123.
Rb(ecp-28), Cs(ecp-46): T. Leininger, A. Nicklass, W. Kuechle, H. Stoll, M. Dolg, A. Bergner, Chem. Phys. Lett., 1996, 255, 274-280.
Sr(ecp-28), Ba(ecp-46): M. Kaupp, P. V. Schleyer, H. Stoll and H. Preuss, J. Chem. Phys., 1991, 94, 1360-1366.
La(ecp-46): M. Dolg, H. Stoll, A. Savin, H. Preuss, Theor. Chim. Acta, 1989, 75, 173-194.
Lu(ecp-28): X. Cao, M. Dolg, J. Chem. Phys., 2001, 115, 7348-7355.

ECP parameters for Au [Def2-ECP] have been obtained from:
TURBOMOLE (7.0.2)

----- Orbital basis set information -----
Your calculation utilizes the basis: def2-TZVP
   F. Weigend and R. Ahlrichs, Phys. Chem. Chem. Phys. 7, 3297 (2005).

----- AuxJ basis set information -----
Your calculation utilizes the auxiliary basis: def2/J
   F. Weigend, Phys. Chem. Chem. Phys. 8, 1057 (2006).

================================================================================
                                        WARNINGS
                       Please study these warnings very carefully!
================================================================================


WARNING: your system is open-shell and RHF/RKS was chosen
  ===> : WILL SWITCH to UHF/UKS


WARNING: Geometry Optimization
  ===> : Switching off AutoStart
         For restart on a previous wavefunction, please use MOREAD

INFO   : the flag for use of the SHARK integral package has been found!

================================================================================
                                       INPUT FILE
================================================================================
NAME = pbe.inp
|  1> %pal nprocs 1 end 
|  2> 
|  3> !PBE def2-TZVP OPT UNO
|  4> !SLOWCONV KDIIS 
|  5> 
|  6> %geom maxiter 300 end
|  7> 
|  8> *xyzfile 0 5 3.xyz                           ****END OF INPUT****
================================================================================

                       *****************************
                       * Geometry Optimization Run *
                       *****************************

Geometry optimization settings:
Update method            Update   .... BFGS
Choice of coordinates    CoordSys .... Z-matrix Internals
Initial Hessian          InHess   .... Almoef's Model

Convergence Tolerances:
Energy Change            TolE     ....  5.0000e-06 Eh
Max. Gradient            TolMAXG  ....  3.0000e-04 Eh/bohr
RMS Gradient             TolRMSG  ....  1.0000e-04 Eh/bohr
Max. Displacement        TolMAXD  ....  4.0000e-03 bohr
RMS Displacement         TolRMSD  ....  2.0000e-03 bohr
Strict Convergence                ....  False
------------------------------------------------------------------------------
                        ORCA OPTIMIZATION COORDINATE SETUP
------------------------------------------------------------------------------

The optimization will be done in new redundant internal coordinates
Making redundant internal coordinates   ...  (new redundants) done
Evaluating the initial hessian          ...  (Almloef) done
Evaluating the coordinates              ...  done
Calculating the B-matrix                .... done
Calculating the G-matrix                .... done
Diagonalizing the G-matrix              .... done
The first mode is                       ....   90
The number of degrees of freedom        ....   27

    -----------------------------------------------------------------
                    Redundant Internal Coordinates


    -----------------------------------------------------------------
         Definition                    Initial Value    Approx d2E/dq
    -----------------------------------------------------------------
      1. B(Au  1,Au  0)                  2.6401         0.012259   
      2. B(Au  2,Au  0)                  2.7968         0.006893   
      3. B(Au  3,Au  1)                  2.6230         0.013054   
      4. B(Au  4,Au  0)                  2.7974         0.006878   
      5. B(Au  6,Au  3)                  2.6589         0.011440   
      6. B(Au  9,Au  7)                  2.7682         0.007656   
      7. B(Au  9,Au  8)                  2.7269         0.008912   
      8. B(Au  9,Au  5)                  2.7685         0.007648   
      9. B(Fe 10,Au  8)                  2.4749         0.163530   
     10. B(Fe 10,Au  7)                  2.5383         0.129541   
     11. B(Fe 10,Au  4)                  2.5011         0.148513   
     12. B(Fe 10,Au  6)                  2.4984         0.149992   
     13. B(Fe 10,Au  5)                  2.5385         0.129457   
     14. B(Fe 10,Au  2)                  2.5010         0.148544   
     15. B(Fe 10,Au  1)                  2.6048         0.101473   
     16. A(Au  2,Au  0,Au  4)           69.4659         0.138373   
     17. A(Au  1,Au  0,Au  2)           68.6211         0.145273   
     18. A(Au  1,Au  0,Au  4)           68.6065         0.145246   
     19. A(Au  0,Au  1,Au  3)          154.2537         0.154025   
     20. A(Au  0,Au  1,Fe 10)           95.1078         0.205000   
     21. A(Au  3,Au  1,Fe 10)          110.6385         0.206662   
     22. A(Au  0,Au  2,Fe 10)           93.6965         0.199998   
     23. A(Au  1,Au  3,Au  6)           66.9111         0.153015   
     24. A(Au  0,Au  4,Fe 10)           93.6814         0.199940   
     25. A(Au  9,Au  5,Fe 10)           93.1830         0.199158   
     26. A(Au  3,Au  6,Fe 10)          112.8981         0.213761   
     27. A(Au  9,Au  7,Fe 10)           93.1942         0.199202   
     28. A(Au  9,Au  8,Fe 10)           95.6471         0.209232   
     29. A(Au  5,Au  9,Au  7)           66.9313         0.140790   
     30. A(Au  5,Au  9,Au  8)           69.3185         0.142601   
     31. A(Au  7,Au  9,Au  8)           69.3756         0.142615   
     32. A(Au  6,Fe 10,Au  7)          125.9045         0.331344   
     33. A(Au  5,Fe 10,Au  7)           73.9408         0.323401   
     34. A(Au  1,Fe 10,Au  6)           69.5522         0.318313   
     35. A(Au  4,Fe 10,Au  7)          108.9145         0.330801   
     36. A(Au  2,Fe 10,Au  7)           63.7673         0.330813   
     37. A(Au  4,Fe 10,Au  5)           63.7477         0.330766   
     38. A(Au  2,Fe 10,Au  4)           79.1661         0.338410   
     39. A(Au  1,Fe 10,Au  7)          135.5599         0.310829   
     40. A(Au  7,Fe 10,Au  8)           77.1848         0.336131   
     41. A(Au  6,Fe 10,Au  8)           63.3046         0.344468   
     42. A(Au  5,Fe 10,Au  6)          125.7995         0.331309   
     43. A(Au  2,Fe 10,Au  5)          108.9258         0.330777   
     44. A(Au  5,Fe 10,Au  8)           77.1208         0.336095   
     45. A(Au  4,Fe 10,Au  8)          135.6956         0.343895   
     46. A(Au  4,Fe 10,Au  6)          125.1111         0.338958   
     47. A(Au  2,Fe 10,Au  8)          135.8062         0.343907   
     48. A(Au  1,Fe 10,Au  8)          132.8568         0.322842   
     49. A(Au  2,Fe 10,Au  6)          125.2109         0.338970   
     50. A(Au  1,Fe 10,Au  5)          135.5251         0.310797   
     51. A(Au  1,Fe 10,Au  4)           73.8112         0.317799   
     52. A(Au  1,Fe 10,Au  2)           73.8186         0.317810   
     53. D(Au  3,Au  1,Au  0,Au  2)    142.3310         0.001504   
     54. D(Au  3,Au  1,Au  0,Au  4)   -142.2173         0.001504   
     55. D(Fe 10,Au  1,Au  0,Au  2)    -37.7147         0.001504   
     56. D(Fe 10,Au  1,Au  0,Au  4)     37.7370         0.001504   
     57. D(Fe 10,Au  2,Au  0,Au  1)     39.4865         0.001501   
     58. D(Fe 10,Au  2,Au  0,Au  4)    -34.7496         0.001501   
     59. D(Au  6,Au  3,Au  1,Fe 10)     -0.0269         0.001504   
     60. D(Au  6,Au  3,Au  1,Au  0)    179.9245         0.001504   
     61. D(Fe 10,Au  4,Au  0,Au  1)    -39.5084         0.001501   
     62. D(Fe 10,Au  4,Au  0,Au  2)     34.7480         0.001501   
     63. D(Fe 10,Au  6,Au  3,Au  1)      0.0284         0.001503   
     64. D(Au  7,Au  9,Au  5,Fe 10)    -40.6341         0.001501   
     65. D(Au  8,Au  9,Au  5,Fe 10)     34.9799         0.001501   
     66. D(Au  5,Au  9,Au  7,Fe 10)     40.6381         0.001501   
     67. D(Au  7,Au  9,Au  8,Fe 10)     36.0606         0.001502   
     68. D(Au  5,Au  9,Au  8,Fe 10)    -36.1555         0.001502   
     69. D(Au  8,Au  9,Au  7,Fe 10)    -34.8923         0.001501   
     70. D(Au  1,Fe 10,Au  2,Au  0)    -38.6769         0.001581   
     71. D(Au  4,Fe 10,Au  7,Au  9)    -97.0300         0.001562   
     72. D(Au  8,Fe 10,Au  1,Au  0)   -179.9293         0.001542   
     73. D(Au  7,Fe 10,Au  1,Au  0)     59.1394         0.001542   
     74. D(Au  6,Fe 10,Au  1,Au  3)      0.0281         0.001542   
     75. D(Au  2,Fe 10,Au  6,Au  3)     51.1322         0.001582   
     76. D(Au  1,Fe 10,Au  6,Au  3)     -0.0281         0.001582   
     77. D(Au  7,Fe 10,Au  6,Au  3)    132.1007         0.001582   
     78. D(Au  7,Fe 10,Au  1,Au  3)   -120.8819         0.001542   
     79. D(Au  5,Fe 10,Au  7,Au  9)    -42.8471         0.001562   
     80. D(Au  8,Fe 10,Au  1,Au  3)      0.0495         0.001542   
     81. D(Au  1,Fe 10,Au  8,Au  9)    179.9828         0.001597   
     82. D(Au  4,Fe 10,Au  2,Au  0)     37.4342         0.001581   
     83. D(Au  6,Fe 10,Au  1,Au  0)   -179.9507         0.001542   
     84. D(Au  5,Fe 10,Au  1,Au  3)    120.7808         0.001542   
     85. D(Au  4,Fe 10,Au  5,Au  9)    164.0446         0.001562   
     86. D(Au  5,Fe 10,Au  1,Au  0)    -59.1980         0.001542   
     87. D(Au  4,Fe 10,Au  1,Au  3)    138.3962         0.001542   
     88. D(Au  8,Fe 10,Au  4,Au  0)    174.4659         0.001581   
     89. D(Au  7,Fe 10,Au  4,Au  0)    -94.6521         0.001581   
     90. D(Au  4,Fe 10,Au  1,Au  0)    -41.5826         0.001542   
     91. D(Au  6,Fe 10,Au  4,Au  0)     88.2429         0.001581   
     92. D(Au  5,Fe 10,Au  4,Au  0)   -154.9791         0.001581   
     93. D(Au  1,Fe 10,Au  5,Au  9)   -177.0473         0.001562   
     94. D(Au  2,Fe 10,Au  5,Au  9)     97.0405         0.001562   
     95. D(Au  2,Fe 10,Au  1,Au  3)   -138.4702         0.001542   
     96. D(Au  6,Fe 10,Au  5,Au  9)    -80.1699         0.001562   
     97. D(Au  7,Fe 10,Au  5,Au  9)     42.8406         0.001562   
     98. D(Au  8,Fe 10,Au  5,Au  9)    -37.3163         0.001562   
     99. D(Au  2,Fe 10,Au  4,Au  0)    -37.4245         0.001581   
    100. D(Au  1,Fe 10,Au  4,Au  0)     38.6952         0.001581   
    101. D(Au  4,Fe 10,Au  6,Au  3)    -51.2808         0.001582   
    102. D(Au  5,Fe 10,Au  6,Au  3)   -132.0980         0.001582   
    103. D(Au  2,Fe 10,Au  1,Au  0)     41.5510         0.001542   
    104. D(Au  8,Fe 10,Au  6,Au  3)    179.9895         0.001582   
    105. D(Au  1,Fe 10,Au  7,Au  9)    177.0704         0.001562   
    106. D(Au  2,Fe 10,Au  7,Au  9)   -164.0533         0.001562   
    107. D(Au  8,Fe 10,Au  2,Au  0)   -174.5269         0.001581   
    108. D(Au  7,Fe 10,Au  2,Au  0)    154.9658         0.001581   
    109. D(Au  6,Fe 10,Au  7,Au  9)     80.0463         0.001562   
    110. D(Au  8,Fe 10,Au  7,Au  9)     37.2260         0.001562   
    111. D(Au  6,Fe 10,Au  2,Au  0)    -88.1350         0.001581   
    112. D(Au  2,Fe 10,Au  8,Au  9)    -65.8763         0.001597   
    113. D(Au  4,Fe 10,Au  8,Au  9)     66.0201         0.001597   
    114. D(Au  5,Fe 10,Au  8,Au  9)     38.1352         0.001597   
    115. D(Au  7,Fe 10,Au  8,Au  9)    -38.0368         0.001597   
    116. D(Au  6,Fe 10,Au  8,Au  9)   -179.9947         0.001597   
    117. D(Au  5,Fe 10,Au  2,Au  0)     94.6342         0.001581   
    -----------------------------------------------------------------

Number of atoms                         .... 11
Number of degrees of freedom            .... 117

         *************************************************************
         *                GEOMETRY OPTIMIZATION CYCLE   1            *
         *************************************************************
---------------------------------
CARTESIAN COORDINATES (ANGSTROEM)
---------------------------------
  Au    10.062401    2.840496    7.271447
  Au    11.553513    4.998672    7.569785
  Au     8.650821    4.885553    8.555009
  Au    13.794862    6.273960    8.049464
  Au     9.347433    4.835222    5.445128
  Au     8.031647    7.133462    5.181429
  Au    11.750947    7.903986    7.564425
  Au     7.363835    7.182038    8.160293
  Au     9.519676    9.154031    7.044578
  Au     6.862583    9.299432    6.448996
  Fe     9.619746    6.682032    7.109650

----------------------------
CARTESIAN COORDINATES (A.U.)
----------------------------
  NO LB      ZA    FRAG     MASS         X           Y           Z
   0 Au   19.0000*   0   196.966   19.015182    5.367759   13.741043
   1 Au   19.0000*   0   196.966   21.832975    9.446121   14.304821
   2 Au   19.0000*   0   196.966   16.347683    9.232358   16.166625
   3 Au   19.0000*   0   196.966   26.068511   11.856066   15.211282
   4 Au   19.0000*   0   196.966   17.664088    9.137245   10.289801
   5 Au   19.0000*   0   196.966   15.177613   13.480290    9.791481
   6 Au   19.0000*   0   196.966   22.206071   14.936369   14.294692
   7 Au   19.0000*   0   196.966   13.915632   13.572086   15.420719
   8 Au   19.0000*   0   196.966   17.989580   17.298611   13.312324
   9 Au   19.0000*   0   196.966   12.968402   17.573379   12.186836
  10 Fe   26.0000    0    55.850   18.178685   12.627210   13.435291
* core charge reduced due to ECP

--------------------------------
INTERNAL COORDINATES (ANGSTROEM)
--------------------------------
 Au     0   0   0     0.000000000000     0.00000000     0.00000000
 Au     1   0   0     2.640103212453     0.00000000     0.00000000
 Au     1   2   0     2.796846737827    68.62106721     0.00000000
 Au     2   1   3     2.622993885442   154.25366138   142.33097826
 Au     1   2   3     2.797418975994    68.60646349    75.45174472
 Au     5   1   2     2.661341585329   143.78665337   282.72711532
 Au     4   2   1     2.658916359981    66.91114542   179.92448399
 Au     3   1   2     2.661949797840   143.78192102    77.26240923
 Au     7   4   2     2.609869882737   170.80619159     0.08419427
 Au     9   7   4     2.726903606207   154.43438727   359.95161549
 Fe     9   7   4     2.474878945043    58.78730846   359.93937913

---------------------------
INTERNAL COORDINATES (A.U.)
---------------------------
 Au     0   0   0     0.000000000000     0.00000000     0.00000000
 Au     1   0   0     4.989072036823     0.00000000     0.00000000
 Au     1   2   0     5.285274373044    68.62106721     0.00000000
 Au     2   1   3     4.956740094435   154.25366138   142.33097826
 Au     1   2   3     5.286355746464    68.60646349    75.45174472
 Au     5   1   2     5.029206745087   143.78665337   282.72711532
 Au     4   2   1     5.024623733366    66.91114542   179.92448399
 Au     3   1   2     5.030356100165   143.78192102    77.26240923
 Au     7   4   2     4.931939323543   170.80619159     0.08419427
 Au     9   7   4     5.153101009333   154.43438727   359.95161549
 Fe     9   7   4     4.676843420738    58.78730846   359.93937913

---------------------
BASIS SET INFORMATION
---------------------
There are 2 groups of distinct atoms

 Group   1 Type Au  : 8s7p6d1f contracted to 6s4p3d1f pattern {311111/4111/411/1}
 Group   2 Type Fe  : 17s11p7d1f contracted to 6s4p4d1f pattern {842111/6311/4111/1}

Atom   0Au   basis set group =>   1
Atom   1Au   basis set group =>   1
Atom   2Au   basis set group =>   1
Atom   3Au   basis set group =>   1
Atom   4Au   basis set group =>   1
Atom   5Au   basis set group =>   1
Atom   6Au   basis set group =>   1
Atom   7Au   basis set group =>   1
Atom   8Au   basis set group =>   1
Atom   9Au   basis set group =>   1
Atom  10Fe   basis set group =>   2
---------------------------------
AUXILIARY/J BASIS SET INFORMATION
---------------------------------
There are 2 groups of distinct atoms

 Group   1 Type Au  : 11s5p5d3f3g contracted to 8s5p5d2f3g pattern {41111111/11111/11111/21/111}
 Group   2 Type Fe  : 19s5p5d3f3g contracted to 8s5p5d2f3g pattern {121111111/11111/11111/21/111}

Atom   0Au   basis set group =>   1
Atom   1Au   basis set group =>   1
Atom   2Au   basis set group =>   1
Atom   3Au   basis set group =>   1
Atom   4Au   basis set group =>   1
Atom   5Au   basis set group =>   1
Atom   6Au   basis set group =>   1
Atom   7Au   basis set group =>   1
Atom   8Au   basis set group =>   1
Atom   9Au   basis set group =>   1
Atom  10Fe   basis set group =>   2
-------------------------
ECP PARAMETER INFORMATION
-------------------------

 Group 1, Type Au ECP Def2-ECP (replacing 60 core electrons, lmax=3)

Atom   0Au   ECP group =>   1
Atom   1Au   ECP group =>   1
Atom   2Au   ECP group =>   1
Atom   3Au   ECP group =>   1
Atom   4Au   ECP group =>   1
Atom   5Au   ECP group =>   1
Atom   6Au   ECP group =>   1
Atom   7Au   ECP group =>   1
Atom   8Au   ECP group =>   1
Atom   9Au   ECP group =>   1

------------------------------------------------------------------------------
                           ORCA GTO INTEGRAL CALCULATION
                           -- RI-GTO INTEGRALS CHOSEN --
------------------------------------------------------------------------------
------------------------------------------------------------------------------
                   ___                                                        
                  /   \      - P O W E R E D   B Y -                         
                 /     \                                                     
                 |  |  |   _    _      __       _____    __    __             
                 |  |  |  | |  | |    /  \     |  _  \  |  |  /  |          
                  \  \/   | |  | |   /    \    | | | |  |  | /  /          
                 / \  \   | |__| |  /  /\  \   | |_| |  |  |/  /          
                |  |  |   |  __  | /  /__\  \  |    /   |      \           
                |  |  |   | |  | | |   __   |  |    \   |  |\   \          
                \     /   | |  | | |  |  |  |  | |\  \  |  | \   \       
                 \___/    |_|  |_| |__|  |__|  |_| \__\ |__|  \__/        
                                                                              
                      - O R C A' S   B I G   F R I E N D -                    
                                      &                                       
                       - I N T E G R A L  F E E D E R -                       
                                                                              
 v1 FN, 2020, v2 2021                                                         
------------------------------------------------------------------------------


Reading SHARK input file pbe.SHARKINP.tmp ... ok
----------------------
SHARK INTEGRAL PACKAGE
----------------------

Number of atoms                             ...     11
Number of basis functions                   ...    445
Number of shells                            ...    155
Maximum angular momentum                    ...      3
Integral batch strategy                     ... SHARK/LIBINT Hybrid
RI-J (if used) integral strategy            ... SPLIT-RIJ (Revised 2003 algorithm where possible)
Printlevel                                  ...      1
Contraction scheme used                     ... SEGMENTED contraction
Coulomb Range Separation                    ... NOT USED
Exchange Range Separation                   ... NOT USED
Finite Nucleus Model                        ... NOT USED
Auxiliary Coulomb fitting basis             ... AVAILABLE
   # of basis functions in Aux-J            ...    979
   # of shells in Aux-J                     ...    253
   Maximum angular momentum in Aux-J        ...      4
Auxiliary J/K fitting basis                 ... NOT available
Auxiliary Correlation fitting basis         ... NOT available
Auxiliary 'external' fitting basis          ... NOT available
Integral threshold                          ...     2.500000e-11
Primitive cut-off                           ...     2.500000e-12
Primitive pair pre-selection threshold      ...     2.500000e-12

Calculating pre-screening integrals         ... done (  0.2 sec) Dimension = 155
Organizing shell pair data                  ... done (  0.2 sec)
Shell pair information
Total number of shell pairs                 ...     12090
Shell pairs after pre-screening             ...      9771
Total number of primitive shell pairs       ...     33105
Primitive shell pairs kept                  ...     19778
          la=0 lb=0:   1547 shell pairs
          la=1 lb=0:   2244 shell pairs
          la=1 lb=1:    848 shell pairs
          la=2 lb=0:   1926 shell pairs
          la=2 lb=1:   1355 shell pairs
          la=2 lb=2:    563 shell pairs
          la=3 lb=0:    516 shell pairs
          la=3 lb=1:    383 shell pairs
          la=3 lb=2:    332 shell pairs
          la=3 lb=3:     57 shell pairs

Calculating one electron integrals          ... done (  0.1 sec)
Calculating ECP integrals                   ... done (  4.0 sec)
Calculating RI/J V-Matrix + Cholesky decomp.... done (  0.0 sec)
Calculating Nuclear repulsion               ... done (  0.0 sec) ENN=   3137.650663721534 Eh

SHARK setup successfully completed in   4.8 seconds

Maximum memory used throughout the entire GTOINT-calculation: 290.5 MB
-------------------------------------------------------------------------------
                                 ORCA SCF
-------------------------------------------------------------------------------

------------
SCF SETTINGS
------------
Hamiltonian:
 Density Functional     Method          .... DFT(GTOs)
 Exchange Functional    Exchange        .... PBE
   PBE kappa parameter   XKappa         ....  0.804000
   PBE mue parameter    XMuePBE         ....  0.219520
 Correlation Functional Correlation     .... PBE
   PBE beta parameter  CBetaPBE         ....  0.066725
 LDA part of GGA corr.  LDAOpt          .... PW91-LDA
 Gradients option       PostSCFGGA      .... off
   Density functional embedding theory  .... OFF
   NL short-range parameter             ....  6.400000
 RI-approximation to the Coulomb term is turned on
   Number of AuxJ basis functions       .... 979


General Settings:
 Integral files         IntName         .... pbe
 Hartree-Fock type      HFTyp           .... UHF
 Total Charge           Charge          ....    0
 Multiplicity           Mult            ....    5
 Number of Electrons    NEL             ....  216
 Basis Dimension        Dim             ....  445
 Nuclear Repulsion      ENuc            ....   3137.6506637215 Eh

Convergence Acceleration:
 DIIS                   CNVDIIS         .... off
 Trust-Rad. Augm. Hess. CNVTRAH         .... auto
   Auto Start mean grad. ratio tolernc. ....  1.125000
   Auto Start start iteration           ....    20
   Auto Start num. interpolation iter.  ....    10
   Max. Number of Micro iterations      ....    16
   Max. Number of Macro iterations      .... Maxiter - #DIIS iter
   Number of Davidson start vectors     ....     2
   Converg. threshold I  (grad. norm)   ....   1.000e-05
   Converg. threshold II (energy diff.) ....   1.000e-08
   Grad. Scal. Fac. for Micro threshold ....   0.100
   Minimum threshold for Micro iter.    ....   0.010
   NR start threshold (gradient norm)   ....   0.001
   Initial trust radius                 ....   0.400
   Minimum AH scaling param. (alpha)    ....   1.000
   Maximum AH scaling param. (alpha)    .... 1000.000
   Orbital update algorithm             .... Taylor
   White noise on init. David. guess    .... on
   Maximum white noise                  ....   0.010
   Quad. conv. algorithm                .... NR
 SOSCF                  CNVSOSCF        .... off
 Level Shifting         CNVShift        .... off
 Zerner damping         CNVZerner       .... off
 Static damping         CNVDamp         .... off
 Fernandez-Rico         CNVRico         .... off

SCF Procedure:
 Maximum # iterations   MaxIter         ....   125
 SCF integral mode      SCFMode         .... Direct
   Integral package                     .... SHARK and LIBINT hybrid scheme
 Reset frequency        DirectResetFreq ....    20
 Integral Threshold     Thresh          ....  2.500e-11 Eh
 Primitive CutOff       TCut            ....  2.500e-12 Eh

Convergence Tolerance:
 Convergence Check Mode ConvCheckMode   .... Total+1el-Energy
 Convergence forced     ConvForced      .... 0
 Energy Change          TolE            ....  1.000e-08 Eh
 1-El. energy change                    ....  1.000e-05 Eh


Diagonalization of the overlap matrix:
Smallest eigenvalue                        ... 4.487e-04
Time for diagonalization                   ...    0.022 sec
Threshold for overlap eigenvalues          ... 1.000e-08
Number of eigenvalues below threshold      ... 0
Time for construction of square roots      ...    0.010 sec
Total time needed                          ...    0.032 sec

Time for model grid setup =    0.714 sec

------------------------------
INITIAL GUESS: MODEL POTENTIAL
------------------------------
Loading Hartree-Fock densities                     ... done
  calling /media/Programs/ORCA501/orca pbe_atom79.inp > pbe_atom79.out in order to generate an atomic fitting density for atom 0 (Au with ECP) on-the-fly... 
    atom 0 (Au), assumed electronic state with S=2: 1s2 2s2 2p6 3s2 3p6 4s2 3d10 4p6 5s2 4d10 5p6 6s1 4f14 5d10           ... done
Calculating cut-offs                               ... done
Initializing the effective Hamiltonian             ... done
Setting up the integral package (SHARK)            ... done
Starting the Coulomb interaction                   ... done (   0.9 sec)
Reading the grid                                   ... done
Mapping shells                                     ... done
Starting the XC term evaluation                    ... done (   1.2 sec)
  promolecular density results
     # of electrons  =    816.012216186
     EX              =  -3712.314649203
     EC              =    -49.557769324
     EX+EC           =  -3761.872418528
Transforming the Hamiltonian                       ... done (   0.0 sec)
Diagonalizing the Hamiltonian                      ... done (   0.0 sec)
Back transforming the eigenvectors                 ... done (   0.0 sec)
Now organizing SCF variables                       ... done
                      ------------------
                      INITIAL GUESS DONE (   3.4 sec)
                      ------------------
-------------------
DFT GRID GENERATION
-------------------

General Integration Accuracy     IntAcc      ... 4.388
Radial Grid Type                 RadialGrid  ... OptM3 with GC (2021)
Angular Grid (max. ang.)         AngularGrid ... 4 (Lebedev-302)
Angular grid pruning method      GridPruning ... 4 (adaptive)
Weight generation scheme         WeightScheme... Becke
Basis function cutoff            BFCut       ... 1.0000e-11
Integration weight cutoff        WCut        ... 1.0000e-14
Angular grids for H and He will be reduced by one unit
Partially contracted basis set               ... off
Rotationally invariant grid construction     ... off

Total number of grid points                  ...   123719
Total number of batches                      ...     1940
Average number of points per batch           ...       63
Average number of grid points per atom       ...    11247
Time for grid setup =    1.774 sec

--------------
SCF ITERATIONS
--------------
ITER       Energy         Delta-E        Max-DP      RMS-DP      [F,P]   Gradient Norm
               ***  Starting incremental Fock matrix formation  ***
                             ****Resetting KDIIS****
                             ****Turning on KDIIS(Cayley)****
  0  -2619.3765280677   0.000000000000 0.44808119  0.00224806  0.4463015   0.243678789
  1  -2620.8297074267  -1.453179359039 0.72156314  0.00269882  0.3178425   0.167948551
  2  -2621.3442332365  -0.514525809794 0.17742224  0.00162275  0.2508404   0.123445283
  3  -2621.5569026779  -0.212669441412 0.25985485  0.00179100  0.1462845   0.073764445
  4  -2621.6062347089  -0.049332031009 0.03536558  0.00063897  0.0633124   0.027711032
  5  -2621.6613169226  -0.055082213685 0.34615132  0.00127883  0.0341269   0.009527792
  6  -2621.6891446897  -0.027827767065 0.08160164  0.00091552  0.0352947   0.011739751
  7  -2621.7130987456  -0.023954055900 0.05379219  0.00040179  0.0164510   0.009923022
  8  -2621.7145545495  -0.001455803951 0.05020992  0.00037842  0.0152630   0.010411853
  9  -2621.7270028493  -0.012448299776 0.01033329  0.00017003  0.0080729   0.003313671
 10  -2621.7275207554  -0.000517906070 0.01713767  0.00016572  0.0076950   0.005010024
 11  -2621.7301013739  -0.002580618501 0.01726190  0.00012938  0.0041968   0.001509559
 12  -2621.7304053621  -0.000303988260 0.01119390  0.00008085  0.0031767   0.002735688
 13  -2621.7306941677  -0.000288805550 0.00914243  0.00008686  0.0029514   0.001806761
 14  -2621.7310831174  -0.000388949727 0.00643512  0.00005414  0.0020431   0.001200530
 15  -2621.7309148715   0.000168245873 0.00962594  0.00005937  0.0035600   0.001625354
 16  -2621.7311677397  -0.000252868179 0.00206188  0.00002481  0.0010969   0.000949444
 17  -2621.7312210815  -0.000053341787 0.00279414  0.00002943  0.0011999   0.000460816
 18  -2621.7312763694  -0.000055287928 0.00160419  0.00001791  0.0009880   0.000389745
 19  -2621.7312801181  -0.000003748652 0.00165284  0.00001656  0.0006578   0.000501249
               *** Restarting incremental Fock matrix formation ***
                             ****Resetting KDIIS****
 20  -2621.7313074200  -0.000027301911 0.00032624  0.00000254  0.0005869   0.000255611
 21  -2621.7313117756  -0.000004355633 0.00031905  0.00000280  0.0006034   0.000178910
 22  -2621.7313156340  -0.000003858342 0.00063905  0.00000544  0.0005680   0.000153156
 23  -2621.7313221379  -0.000006503941 0.00577374  0.00004278  0.0005312   0.000123573
 24  -2621.7313469171  -0.000024779141 0.00134399  0.00000830  0.0000968   0.000170046
 25  -2621.7313499094  -0.000002992377 0.00024782  0.00000194  0.0000575   0.000023694
 26  -2621.7313500385  -0.000000129082 0.00013173  0.00000128  0.0000557   0.000043557
 27  -2621.7313502596  -0.000000221078 0.00026287  0.00000209  0.0000479   0.000013278
 28  -2621.7313505032  -0.000000243621 0.00048686  0.00000361  0.0000418   0.000025332
 29  -2621.7313508856  -0.000000382425 0.00005995  0.00000060  0.0000345   0.000018065
 30  -2621.7313509712  -0.000000085574 0.00012552  0.00000093  0.0000289   0.000015481
 31  -2621.7313510006  -0.000000029415 0.00016018  0.00000115  0.0000289   0.000016412
 32  -2621.7313511138  -0.000000113149 0.00007617  0.00000072  0.0000273   0.000007737
 33  -2621.7313511895  -0.000000075690 0.00020132  0.00000147  0.0000250   0.000012328

 WARNING: the maximum gradient error descreased on average only by a factor   1.1
          during the last 20 iterations

                      *** Initiating the TRAH-SCF procedure ***

                    *** KDIIS BlockDiag ( 0.044 sec) ***

TRAH GRID
---------

General Integration Accuracy     IntAcc      ... 3.467
Radial Grid Type                 RadialGrid  ... OptM3 with GC (2021)
Angular Grid (max. ang.)         AngularGrid ... 1 (Lebedev-50)
Angular grid pruning method      GridPruning ... 4 (adaptive)
Weight generation scheme         WeightScheme... Becke
Basis function cutoff            BFCut       ... 1.0000e-11
Integration weight cutoff        WCut        ... 1.0000e-14
Angular grids for H and He will be reduced by one unit
Partially contracted basis set               ... off
Rotationally invariant grid construction     ... off

Total number of grid points                  ...    53449
Total number of batches                      ...      839
Average number of points per batch           ...       63
Average number of grid points per atom       ...     4859

 --------------------------------------------------------------------------------------------
   Iter.        energy            ||Error||_2        Shift      TRadius  Mac/Mic        Rej.
 --------------------------------------------------------------------------------------------
    0      -2621.731351118700     1.544096e-04                     0.400 (TRAH MAcro)   No
WARNING : small    HOMO - LUMO gap : (op =  beta) 0.000596
    0     dE    -4.886490e-09     2.243586e-04    -4.8911e-09      0.000 (TRAH MIcro)
    0     dE    -1.103026e-07     4.996563e-04    -1.1030e-07      0.003 (TRAH MIcro)
    0     dE    -2.545777e-07     7.174265e-04    -2.5456e-07      0.007 (TRAH MIcro)
    0     dE    -1.379709e-04     1.641393e-02    -2.5900e-03      0.229 (TRAH MIcro)
    0     dE    -7.185477e-04     1.707016e-02    -4.4741e-03      0.400 (TRAH MIcro)
    0     dE    -3.250557e-04     5.746313e-03    -5.4360e-03      0.244 (TRAH MIcro)
    0     dE    -4.773921e-04     3.839165e-03    -5.6407e-03      0.290 (TRAH MIcro)
    0     dE    -6.974938e-04     2.644414e-03    -5.7449e-03      0.348 (TRAH MIcro)
    0     dE    -9.180405e-04     1.641495e-03    -5.7779e-03      0.398 (TRAH MIcro)
    0     dE    -9.281645e-04     1.316999e-03    -5.7923e-03      0.400 (TRAH MIcro)
    0     dE    -9.301949e-04     1.058210e-03    -5.8052e-03      0.400 (TRAH MIcro)
    0     dE    -9.306837e-04     4.908649e-04    -5.8082e-03      0.400 (TRAH MIcro)
    0     dE    -9.308237e-04     3.379403e-04    -5.8091e-03      0.400 (TRAH MIcro)
    0     dE    -9.309128e-04     1.824559e-04    -5.8095e-03      0.400 (TRAH MIcro)
    1      -2621.731861700840     3.235496e-02                     0.400 (TRAH MAcro)   No
WARNING : small    HOMO - LUMO gap : (op =  beta) 0.005500
    1     dE    -1.842148e-04     2.785704e-02    -1.8421e-04      0.006 (TRAH MIcro)
    1     dE    -4.448038e-04     1.734357e-02    -4.4294e-04      0.065 (TRAH MIcro)
    1     dE    -1.411159e-03     3.245463e-02    -2.0180e-03      0.400 (TRAH MIcro)
    1     dE    -1.807585e-03     1.866472e-02    -4.5078e-03      0.400 (TRAH MIcro)
    1     dE    -2.017620e-03     8.478068e-03    -5.5308e-03      0.400 (TRAH MIcro)
    1     dE    -2.058808e-03     5.907869e-03    -5.8069e-03      0.400 (TRAH MIcro)
    1     dE    -2.081371e-03     3.714597e-03    -5.9820e-03      0.400 (TRAH MIcro)
    1     dE    -2.090180e-03     2.565266e-03    -6.0564e-03      0.400 (TRAH MIcro)
    2      -2621.733846101896     1.757209e-02                     0.480 (TRAH MAcro)   No
WARNING : small    HOMO - LUMO gap : (op =  beta) 0.005370
    2     dE    -4.720813e-05     1.962218e-02    -4.7208e-05      0.003 (TRAH MIcro)
    2     dE    -5.138120e-04     3.456453e-02    -4.9979e-04      0.168 (TRAH MIcro)
    2     dE    -1.356321e-03     3.397182e-02    -1.1538e-03      0.419 (TRAH MIcro)
    2     dE    -1.930649e-03     2.142025e-02    -2.5634e-03      0.480 (TRAH MIcro)
    2     dE    -2.200839e-03     1.011615e-02    -3.5305e-03      0.480 (TRAH MIcro)
    2     dE    -2.270975e-03     7.823901e-03    -3.8583e-03      0.480 (TRAH MIcro)
    2     dE    -2.307768e-03     4.604098e-03    -4.1271e-03      0.480 (TRAH MIcro)
    2     dE    -2.322788e-03     2.847655e-03    -4.1997e-03      0.480 (TRAH MIcro)
    2     dE    -2.332601e-03     3.119997e-03    -4.1969e-03      0.480 (TRAH MIcro)
    2     dE    -2.341771e-03     1.365074e-03    -4.1966e-03      0.480 (TRAH MIcro)
    3      -2621.735780541293     2.529672e-02                     0.576 (TRAH MAcro)   No
WARNING : small    HOMO - LUMO gap : (op =  beta) 0.009731
    3     dE    -9.581563e-05     2.694175e-02    -9.5814e-05      0.004 (TRAH MIcro)
    3     dE    -2.294206e-04     1.715100e-02    -2.2924e-04      0.028 (TRAH MIcro)
    3     dE    -4.087119e-04     1.293222e-02    -4.0582e-04      0.084 (TRAH MIcro)
    3     dE    -5.465271e-04     1.125065e-02    -5.3496e-04      0.147 (TRAH MIcro)
    3     dE    -6.366458e-04     8.905829e-03    -6.1215e-04      0.200 (TRAH MIcro)
    3     dE    -7.095295e-04     6.100611e-03    -6.6971e-04      0.244 (TRAH MIcro)
    3     dE    -7.423451e-04     4.575939e-03    -6.9403e-04      0.264 (TRAH MIcro)
    3     dE    -7.622004e-04     4.031871e-03    -7.0814e-04      0.276 (TRAH MIcro)
    3     dE    -7.817691e-04     3.017376e-03    -7.2177e-04      0.288 (TRAH MIcro)
    3     dE    -7.881741e-04     1.791773e-03    -7.2639e-04      0.292 (TRAH MIcro)
    4      -2621.736465773494     1.837846e-02                     0.691 (TRAH MAcro)   No
WARNING : small    HOMO - LUMO gap : (op =  beta) 0.008647
    4     dE    -6.220206e-05     1.418673e-02    -6.2201e-05      0.003 (TRAH MIcro)
    4     dE    -9.848541e-05     5.983587e-03    -9.8476e-05      0.010 (TRAH MIcro)
    4     dE    -1.135104e-04     3.304444e-03    -1.1349e-04      0.014 (TRAH MIcro)
    4     dE    -1.206864e-04     1.507387e-03    -1.2064e-04      0.019 (TRAH MIcro)
    5      -2621.736586209223     1.505191e-03                     0.829 (TRAH MAcro)   No
WARNING : small    HOMO - LUMO gap : (op =  beta) 0.008993
    5     dE    -3.117170e-07     3.393761e-03    -3.1172e-07      0.000 (TRAH MIcro)
    5     dE    -1.694179e-06     1.675378e-03    -1.6941e-06      0.005 (TRAH MIcro)
    5     dE    -2.866310e-06     2.207345e-03    -2.8660e-06      0.011 (TRAH MIcro)
    5     dE    -4.713723e-06     2.529047e-03    -4.7118e-06      0.020 (TRAH MIcro)
    5     dE    -6.638484e-06     1.630525e-03    -6.6324e-06      0.030 (TRAH MIcro)
    5     dE    -7.231650e-06     8.101522e-04    -7.2233e-06      0.034 (TRAH MIcro)
    5     dE    -7.525070e-06     5.250311e-04    -7.5153e-06      0.036 (TRAH MIcro)
    5     dE    -7.686153e-06     5.101693e-04    -7.6754e-06      0.037 (TRAH MIcro)
    5     dE    -7.763987e-06     3.354585e-04    -7.7529e-06      0.038 (TRAH MIcro)
    5     dE    -7.791553e-06     1.346838e-04    -7.7805e-06      0.038 (TRAH MIcro)
    6      -2621.736594254309     2.949553e-04                           (NR   MAcro)
WARNING : small    HOMO - LUMO gap : (op =  beta) 0.009014
    6     dE    -2.359967e-08     1.762142e-04                           (NR   MIcro)
    6     dE    -4.502022e-08     1.183504e-04                           (NR   MIcro)
    6     dE    -5.807188e-08     9.496476e-05                           (NR   MIcro)
    6     dE    -6.447622e-08     7.466856e-05                           (NR   MIcro)
    6     dE    -6.913363e-08     6.247496e-05                           (NR   MIcro)
    6     dE    -7.170848e-08     5.707251e-05                           (NR   MIcro)
    6     dE    -7.386107e-08     3.975619e-05                           (NR   MIcro)
    6     dE    -7.477472e-08     2.729999e-05                           (NR   MIcro)
    6     dE    -7.539109e-08     2.064406e-05                           (NR   MIcro)
    6     dE    -7.573064e-08     1.256756e-05                           (NR   MIcro)
    6     dE    -7.578998e-08     6.756957e-06                           (NR   MIcro)
    6     dE    -7.580998e-08     2.725131e-06                           (NR   MIcro)
    6     dE    -7.581352e-08     1.360087e-06                           (NR   MIcro)
    6     dE    -7.581470e-08     7.767936e-07                           (NR   MIcro)
    7      -2621.736594332444     3.799501e-06                           (NR   MAcro)
WARNING : small    HOMO - LUMO gap : (op =  beta) 0.009008
    7     dE    -9.579712e-11     6.516469e-06                           (NR   MIcro)
    7     dE    -1.089452e-10     5.797960e-06                           (NR   MIcro)
    7     dE    -1.359287e-10     5.104195e-06                           (NR   MIcro)
    7     dE    -1.585362e-10     4.654213e-06                           (NR   MIcro)
    7     dE    -1.710020e-10     3.752854e-06                           (NR   MIcro)
    7     dE    -1.780569e-10     2.506305e-06                           (NR   MIcro)
    7     dE    -1.815728e-10     1.313234e-06                           (NR   MIcro)
    7     dE    -1.829028e-10     8.178892e-07                           (NR   MIcro)
    8      -2621.736594332642     9.019890e-07                           (NR   MAcro)
WARNING : small    HOMO - LUMO gap : (op =  beta) 0.009008

               *****************************************************
               *                     SUCCESS                       *
               *           SCF CONVERGED AFTER 121 CYCLES          *
               *****************************************************


----------------
TOTAL SCF ENERGY
----------------

Total Energy       :        -2621.73659433 Eh          -71341.07964 eV

Components:
Nuclear Repulsion  :         3137.65066372 Eh           85379.81519 eV
Electronic Energy  :        -5759.38725805 Eh         -156720.89483 eV
One Electron Energy:       -10399.84571737 Eh         -282994.18912 eV
Two Electron Energy:         4640.45845931 Eh          126273.29429 eV

Virial components:
Potential Energy   :        -4341.25656947 Eh         -118131.59695 eV
Kinetic Energy     :         1719.51997514 Eh           46790.51731 eV
Virial Ratio       :            2.52469098


DFT components:
N(Alpha)           :      109.999978822170 electrons
N(Beta)            :      105.999985259144 electrons
N(Total)           :      215.999964081314 electrons
E(X)               :     -174.802880953661 Eh       
E(C)               :       -9.401144054392 Eh       
E(XC)              :     -184.204025008053 Eh       
DFET-embed. en.    :        0.000000000000 Eh       

---------------
SCF CONVERGENCE
---------------

  Last Energy change         ...   -1.9782e-10  Tolerance :   1.0000e-08
  Last Orbital Gradient      ...    9.0199e-07  Tolerance :   1.0000e-05
  Last Orbital Rotation      ...    1.6717e-04

             **** THE GBW FILE WAS UPDATED (pbe.gbw) ****
             **** DENSITY pbe.scfp WAS UPDATED ****
             **** ENERGY FILE WAS UPDATED (pbe.en.tmp) ****
----------------------
UHF SPIN CONTAMINATION
----------------------

Warning: in a DFT calculation there is little theoretical justification to 
         calculate <S**2> as in Hartree-Fock theory. We will do it anyways
         but you should keep in mind that the values have only limited relevance

Expectation value of <S**2>     :     6.123739
Ideal value S*(S+1) for S=2.0   :     6.000000
Deviation                       :     0.123739

             **** THE GBW FILE WAS UPDATED (pbe.gbw) ****
             **** DENSITY pbe.scfp WAS UPDATED ****
----------------
ORBITAL ENERGIES
----------------
                 SPIN UP ORBITALS
  NO   OCC          E(Eh)            E(eV) 
   0   1.0000    -254.757298     -6932.2985 
   1   1.0000     -29.603729      -805.5584 
   2   1.0000     -25.549149      -695.2277 
   3   1.0000     -25.534152      -694.8196 
   4   1.0000     -25.531955      -694.7598 
   5   1.0000      -4.038443      -109.8916 
   6   1.0000      -4.034970      -109.7971 
   7   1.0000      -4.025583      -109.5417 
   8   1.0000      -4.024630      -109.5158 
   9   1.0000      -4.024613      -109.5153 
  10   1.0000      -4.022111      -109.4472 
  11   1.0000      -4.018494      -109.3488 
  12   1.0000      -4.018462      -109.3479 
  13   1.0000      -4.015160      -109.2581 
  14   1.0000      -4.012681      -109.1906 
  15   1.0000      -3.383876       -92.0799 
  16   1.0000      -2.258965       -61.4696 
  17   1.0000      -2.256566       -61.4043 
  18   1.0000      -2.253583       -61.3231 
  19   1.0000      -2.249788       -61.2199 
  20   1.0000      -2.245138       -61.0933 
  21   1.0000      -2.244607       -61.0789 
  22   1.0000      -2.244339       -61.0716 
  23   1.0000      -2.241772       -61.0017 
  24   1.0000      -2.240465       -60.9662 
  25   1.0000      -2.239595       -60.9425 
  26   1.0000      -2.238938       -60.9246 
  27   1.0000      -2.238683       -60.9177 
  28   1.0000      -2.237483       -60.8850 
  29   1.0000      -2.236349       -60.8542 
  30   1.0000      -2.236073       -60.8466 
  31   1.0000      -2.233108       -60.7660 
  32   1.0000      -2.232351       -60.7454 
  33   1.0000      -2.232287       -60.7436 
  34   1.0000      -2.232229       -60.7420 
  35   1.0000      -2.231545       -60.7234 
  36   1.0000      -2.230359       -60.6911 
  37   1.0000      -2.230151       -60.6855 
  38   1.0000      -2.229562       -60.6695 
  39   1.0000      -2.229237       -60.6606 
  40   1.0000      -2.226648       -60.5902 
  41   1.0000      -2.226303       -60.5808 
  42   1.0000      -2.225820       -60.5676 
  43   1.0000      -2.225010       -60.5456 
  44   1.0000      -2.224643       -60.5356 
  45   1.0000      -2.218417       -60.3662 
  46   1.0000      -2.218059       -60.3564 
  47   1.0000      -2.188058       -59.5401 
  48   1.0000      -2.184169       -59.4342 
  49   1.0000      -0.416855       -11.3432 
  50   1.0000      -0.390570       -10.6279 
  51   1.0000      -0.385562       -10.4917 
  52   1.0000      -0.378380       -10.2962 
  53   1.0000      -0.372725       -10.1424 
  54   1.0000      -0.370109       -10.0712 
  55   1.0000      -0.365262        -9.9393 
  56   1.0000      -0.349924        -9.5219 
  57   1.0000      -0.348959        -9.4957 
  58   1.0000      -0.341377        -9.2893 
  59   1.0000      -0.339460        -9.2372 
  60   1.0000      -0.339308        -9.2330 
  61   1.0000      -0.332547        -9.0491 
  62   1.0000      -0.328289        -8.9332 
  63   1.0000      -0.326863        -8.8944 
  64   1.0000      -0.326004        -8.8710 
  65   1.0000      -0.321212        -8.7406 
  66   1.0000      -0.319764        -8.7012 
  67   1.0000      -0.317650        -8.6437 
  68   1.0000      -0.314081        -8.5466 
  69   1.0000      -0.312452        -8.5022 
  70   1.0000      -0.302922        -8.2429 
  71   1.0000      -0.302868        -8.2415 
  72   1.0000      -0.300385        -8.1739 
  73   1.0000      -0.296547        -8.0694 
  74   1.0000      -0.295511        -8.0413 
  75   1.0000      -0.290748        -7.9117 
  76   1.0000      -0.290383        -7.9017 
  77   1.0000      -0.286297        -7.7905 
  78   1.0000      -0.284223        -7.7341 
  79   1.0000      -0.280223        -7.6253 
  80   1.0000      -0.279265        -7.5992 
  81   1.0000      -0.278129        -7.5683 
  82   1.0000      -0.276603        -7.5268 
  83   1.0000      -0.272838        -7.4243 
  84   1.0000      -0.269887        -7.3440 
  85   1.0000      -0.269621        -7.3368 
  86   1.0000      -0.269240        -7.3264 
  87   1.0000      -0.268422        -7.3041 
  88   1.0000      -0.265941        -7.2366 
  89   1.0000      -0.265790        -7.2325 
  90   1.0000      -0.263265        -7.1638 
  91   1.0000      -0.260294        -7.0830 
  92   1.0000      -0.260036        -7.0759 
  93   1.0000      -0.257891        -7.0176 
  94   1.0000      -0.257849        -7.0164 
  95   1.0000      -0.255206        -6.9445 
  96   1.0000      -0.254272        -6.9191 
  97   1.0000      -0.254261        -6.9188 
  98   1.0000      -0.251288        -6.8379 
  99   1.0000      -0.248543        -6.7632 
 100   1.0000      -0.246907        -6.7187 
 101   1.0000      -0.246280        -6.7016 
 102   1.0000      -0.245602        -6.6832 
 103   1.0000      -0.243003        -6.6125 
 104   1.0000      -0.241800        -6.5797 
 105   1.0000      -0.235385        -6.4052 
 106   1.0000      -0.224886        -6.1194 
 107   1.0000      -0.214168        -5.8278 
 108   1.0000      -0.212917        -5.7938 
 109   1.0000      -0.206952        -5.6315 
 110   0.0000      -0.155593        -4.2339 
 111   0.0000      -0.145451        -3.9579 
 112   0.0000      -0.129057        -3.5118 
 113   0.0000      -0.124897        -3.3986 
 114   0.0000      -0.090202        -2.4545 
 115   0.0000      -0.076679        -2.0865 
 116   0.0000      -0.065034        -1.7697 
 117   0.0000      -0.056155        -1.5281 
 118   0.0000      -0.053125        -1.4456 
 119   0.0000      -0.046843        -1.2747 
 120   0.0000      -0.038318        -1.0427 
 121   0.0000      -0.028987        -0.7888 
 122   0.0000      -0.024021        -0.6536 
 123   0.0000      -0.004149        -0.1129 
 124   0.0000       0.003376         0.0919 
 125   0.0000       0.023178         0.6307 
 126   0.0000       0.024804         0.6750 
 127   0.0000       0.028001         0.7619 
 128   0.0000       0.038363         1.0439 
 129   0.0000       0.039544         1.0761 
 130   0.0000       0.041890         1.1399 
 131   0.0000       0.053397         1.4530 
 132   0.0000       0.061636         1.6772 
 133   0.0000       0.066549         1.8109 
 134   0.0000       0.070376         1.9150 
 135   0.0000       0.071386         1.9425 
 136   0.0000       0.074728         2.0334 
 137   0.0000       0.076780         2.0893 
 138   0.0000       0.087651         2.3851 
 139   0.0000       0.095564         2.6004 
 140   0.0000       0.099874         2.7177 
 141   0.0000       0.100841         2.7440 
 142   0.0000       0.115288         3.1371 
 143   0.0000       0.138607         3.7717 
 144   0.0000       0.139012         3.7827 
 145   0.0000       0.149150         4.0586 
 146   0.0000       0.150583         4.0976 
 147   0.0000       0.157919         4.2972 
 148   0.0000       0.164440         4.4746 
 149   0.0000       0.175514         4.7760 
 150   0.0000       0.178040         4.8447 
 151   0.0000       0.186549         5.0763 
 152   0.0000       0.191648         5.2150 
 153   0.0000       0.198497         5.4014 
 154   0.0000       0.203370         5.5340 
 155   0.0000       0.207434         5.6446 
 156   0.0000       0.220391         5.9971 
 157   0.0000       0.228796         6.2258 
 158   0.0000       0.229641         6.2488 
 159   0.0000       0.241639         6.5753 
 160   0.0000       0.247139         6.7250 
 161   0.0000       0.254504         6.9254 
 162   0.0000       0.257137         6.9971 
 163   0.0000       0.260595         7.0912 
 164   0.0000       0.264916         7.2087 
 165   0.0000       0.274652         7.4736 
 166   0.0000       0.277490         7.5509 
 167   0.0000       0.279451         7.6042 
 168   0.0000       0.279636         7.6093 
 169   0.0000       0.287370         7.8197 
 170   0.0000       0.294757         8.0207 
 171   0.0000       0.303662         8.2631 
 172   0.0000       0.306858         8.3500 
 173   0.0000       0.307668         8.3721 
 174   0.0000       0.314778         8.5656 
 175   0.0000       0.320216         8.7135 
 176   0.0000       0.322833         8.7847 
 177   0.0000       0.331811         9.0290 
 178   0.0000       0.339306         9.2330 
 179   0.0000       0.340885         9.2760 
 180   0.0000       0.343775         9.3546 
 181   0.0000       0.346381         9.4255 
 182   0.0000       0.352238         9.5849 
 183   0.0000       0.354836         9.6556 
 184   0.0000       0.361323         9.8321 
 185   0.0000       0.379710        10.3324 
 186   0.0000       0.380006        10.3405 
 187   0.0000       0.384704        10.4683 
 188   0.0000       0.390309        10.6208 
 189   0.0000       0.392699        10.6859 
 190   0.0000       0.394643        10.7388 
 191   0.0000       0.406588        11.0638 
 192   0.0000       0.407443        11.0871 
 193   0.0000       0.418269        11.3817 
 194   0.0000       0.423188        11.5155 
 195   0.0000       0.433311        11.7910 
 196   0.0000       0.438027        11.9193 
 197   0.0000       0.438088        11.9210 
 198   0.0000       0.449353        12.2275 
 199   0.0000       0.450705        12.2643 
 200   0.0000       0.453801        12.3485 
 201   0.0000       0.462641        12.5891 
 202   0.0000       0.469564        12.7775 
 203   0.0000       0.478252        13.0139 
 204   0.0000       0.484123        13.1737 
 205   0.0000       0.490201        13.3391 
 206   0.0000       0.494101        13.4452 
 207   0.0000       0.499923        13.6036 
 208   0.0000       0.511790        13.9265 
 209   0.0000       0.511956        13.9310 
 210   0.0000       0.524999        14.2860 
 211   0.0000       0.546717        14.8769 
 212   0.0000       0.556830        15.1521 
 213   0.0000       0.558355        15.1936 
 214   0.0000       0.567858        15.4522 
 215   0.0000       0.598976        16.2990 
 216   0.0000       0.613538        16.6952 
 217   0.0000       0.614365        16.7177 
 218   0.0000       0.637499        17.3472 
 219   0.0000       0.654091        17.7987 
 220   0.0000       0.672422        18.2975 
 221   0.0000       0.673285        18.3210 
 222   0.0000       0.675296        18.3757 
 223   0.0000       0.712528        19.3889 
 224   0.0000       0.712619        19.3913 
 225   0.0000       0.737411        20.0660 
 226   0.0000       0.747129        20.3304 
 227   0.0000       0.787844        21.4383 
 228   0.0000       0.798114        21.7178 
 229   0.0000       0.798723        21.7343 
 230   0.0000       0.804764        21.8987 
 231   0.0000       0.825825        22.4718 
 232   0.0000       0.852426        23.1957 
 233   0.0000       0.855441        23.2777 
 234   0.0000       0.880153        23.9502 
 235   0.0000       0.884345        24.0642 
 236   0.0000       0.895324        24.3630 
 237   0.0000       0.899064        24.4648 
 238   0.0000       0.924921        25.1684 
 239   0.0000       0.943874        25.6841 
 240   0.0000       0.947845        25.7922 
 241   0.0000       0.965421        26.2704 
 242   0.0000       0.967451        26.3257 
 243   0.0000       0.981548        26.7093 
 244   0.0000       1.002864        27.2893 
 245   0.0000       1.020871        27.7793 
 246   0.0000       1.036018        28.1915 
 247   0.0000       1.084044        29.4983 
 248   0.0000       1.109240        30.1840 
 249   0.0000       1.190794        32.4031 
 250   0.0000       1.217156        33.1205 
 251   0.0000       1.225552        33.3490 
 252   0.0000       1.283038        34.9132 
 253   0.0000       1.286139        34.9976 
 254   0.0000       1.296413        35.2772 
 255   0.0000       1.303718        35.4760 
 256   0.0000       1.308403        35.6035 
 257   0.0000       1.325798        36.0768 
 258   0.0000       1.335996        36.3543 
 259   0.0000       1.337339        36.3908 
 260   0.0000       1.348131        36.6845 
 261   0.0000       1.361747        37.0550 
 262   0.0000       1.370126        37.2830 
 263   0.0000       1.377380        37.4804 
 264   0.0000       1.381311        37.5874 
 265   0.0000       1.383372        37.6435 
 266   0.0000       1.395159        37.9642 
 267   0.0000       1.396018        37.9876 
 268   0.0000       1.402603        38.1668 
 269   0.0000       1.410566        38.3834 
 270   0.0000       1.415194        38.5094 
 271   0.0000       1.418971        38.6122 
 272   0.0000       1.425255        38.7831 
 273   0.0000       1.429714        38.9045 
 274   0.0000       1.439181        39.1621 
 275   0.0000       1.439653        39.1750 
 276   0.0000       1.443056        39.2675 
 277   0.0000       1.444719        39.3128 
 278   0.0000       1.446320        39.3564 
 279   0.0000       1.459623        39.7184 
 280   0.0000       1.463629        39.8274 
 281   0.0000       1.465139        39.8685 
 282   0.0000       1.466683        39.9105 
 283   0.0000       1.468227        39.9525 
 284   0.0000       1.470426        40.0123 
 285   0.0000       1.471351        40.0375 
 286   0.0000       1.475183        40.1418 
 287   0.0000       1.477662        40.2092 
 288   0.0000       1.480475        40.2858 
 289   0.0000       1.482262        40.3344 
 290   0.0000       1.483795        40.3761 
 291   0.0000       1.486046        40.4374 
 292   0.0000       1.487520        40.4775 
 293   0.0000       1.489764        40.5386 
 294   0.0000       1.492169        40.6040 
 295   0.0000       1.493841        40.6495 
 296   0.0000       1.497342        40.7448 
 297   0.0000       1.497671        40.7537 
 298   0.0000       1.500271        40.8245 
 299   0.0000       1.502333        40.8806 
 300   0.0000       1.506157        40.9846 
 301   0.0000       1.507940        41.0331 
 302   0.0000       1.509584        41.0779 
 303   0.0000       1.510912        41.1140 
 304   0.0000       1.515613        41.2419 
 305   0.0000       1.516272        41.2599 
 306   0.0000       1.517834        41.3024 
 307   0.0000       1.517918        41.3047 
 308   0.0000       1.520287        41.3691 
 309   0.0000       1.521129        41.3920 
 310   0.0000       1.526021        41.5251 
 311   0.0000       1.528509        41.5928 
 312   0.0000       1.528663        41.5970 
 313   0.0000       1.532007        41.6880 
 314   0.0000       1.533013        41.7154 
 315   0.0000       1.533930        41.7404 
 316   0.0000       1.537034        41.8248 
 317   0.0000       1.538315        41.8597 
 318   0.0000       1.541079        41.9349 
 319   0.0000       1.541415        41.9440 
 320   0.0000       1.543608        42.0037 
 321   0.0000       1.546180        42.0737 
 322   0.0000       1.547957        42.1221 
 323   0.0000       1.552387        42.2426 
 324   0.0000       1.554441        42.2985 
 325   0.0000       1.555564        42.3290 
 326   0.0000       1.558377        42.4056 
 327   0.0000       1.559264        42.4297 
 328   0.0000       1.561962        42.5031 
 329   0.0000       1.571088        42.7515 
 330   0.0000       1.571435        42.7609 
 331   0.0000       1.572970        42.8027 
 332   0.0000       1.576773        42.9062 
 333   0.0000       1.581194        43.0265 
 334   0.0000       1.581355        43.0309 
 335   0.0000       1.585753        43.1505 
 336   0.0000       1.591363        43.3032 
 337   0.0000       1.592217        43.3264 
 338   0.0000       1.596300        43.4375 
 339   0.0000       1.597569        43.4721 
 340   0.0000       1.602732        43.6126 
 341   0.0000       1.606100        43.7042 
 342   0.0000       1.614775        43.9403 
 343   0.0000       1.614789        43.9406 
 344   0.0000       1.623315        44.1727 
 345   0.0000       1.628012        44.3005 
 346   0.0000       1.634314        44.4720 
 347   0.0000       1.635691        44.5094 
 348   0.0000       1.649103        44.8744 
 349   0.0000       1.656614        45.0787 
 350   0.0000       1.673215        45.5305 
 351   0.0000       1.698119        46.2082 
 352   0.0000       1.701335        46.2957 
 353   0.0000       1.706878        46.4465 
 354   0.0000       1.721998        46.8579 
 355   0.0000       1.744633        47.4739 
 356   0.0000       1.759677        47.8832 
 357   0.0000       1.769494        48.1504 
 358   0.0000       1.801582        49.0235 
 359   0.0000       1.805139        49.1203 
 360   0.0000       1.831508        49.8379 
 361   0.0000       1.861463        50.6530 
 362   0.0000       1.882748        51.2322 
 363   0.0000       1.899147        51.6784 
 364   0.0000       1.903192        51.7885 
 365   0.0000       1.918186        52.1965 
 366   0.0000       1.930398        52.5288 
 367   0.0000       1.972801        53.6827 
 368   0.0000       1.978549        53.8391 
 369   0.0000       2.058955        56.0270 
 370   0.0000       2.083290        56.6892 
 371   0.0000       2.163990        58.8852 
 372   0.0000       2.220501        60.4229 
 373   0.0000       2.232963        60.7620 
 374   0.0000       2.291391        62.3519 
 375   0.0000       2.334175        63.5161 
 376   0.0000       2.352270        64.0085 
 377   0.0000       2.361467        64.2588 
 378   0.0000       2.462699        67.0134 
 379   0.0000       2.463025        67.0223 
 380   0.0000       2.477330        67.4116 
 381   0.0000       2.531439        68.8840 
 382   0.0000       3.127815        85.1122 
 383   0.0000       3.516337        95.6844 
 384   0.0000       3.516696        95.6942 
 385   0.0000       3.600229        97.9672 
 386   0.0000       3.607699        98.1705 
 387   0.0000       3.633499        98.8725 
 388   0.0000       3.893203       105.9394 
 389   0.0000       3.894286       105.9689 
 390   0.0000       3.914399       106.5162 
 391   0.0000       3.914434       106.5172 
 392   0.0000       3.929142       106.9174 
 393   0.0000       3.944987       107.3485 
 394   0.0000       3.951781       107.5334 
 395   0.0000      23.381831       636.2520 
 396   0.0000      23.770659       646.8325 
 397   0.0000      23.994353       652.9195 
 398   0.0000      24.022268       653.6791 
 399   0.0000      24.184612       658.0967 
 400   0.0000      24.350709       662.6165 
 401   0.0000      24.467530       665.7953 
 402   0.0000      24.586664       669.0371 
 403   0.0000      24.743730       673.3111 
 404   0.0000      25.204488       685.8490 
 405   0.0000      25.470790       693.0954 
 406   0.0000      25.477511       693.2783 
 407   0.0000      25.912008       705.1016 
 408   0.0000      26.074571       709.5251 
 409   0.0000      26.120157       710.7656 
 410   0.0000      26.209577       713.1989 
 411   0.0000      26.240190       714.0319 
 412   0.0000      26.265740       714.7271 
 413   0.0000      26.422116       718.9823 
 414   0.0000      26.707605       726.7509 
 415   0.0000      27.063540       736.4364 
 416   0.0000      27.336233       743.8567 
 417   0.0000      27.475163       747.6372 
 418   0.0000      27.663902       752.7730 
 419   0.0000      27.720966       754.3258 
 420   0.0000      27.812378       756.8133 
 421   0.0000      28.199474       767.3467 
 422   0.0000      28.555785       777.0424 
 423   0.0000      29.319402       797.8215 
 424   0.0000      29.584975       805.0481 
 425   0.0000      43.830111      1192.6780 
 426   0.0000      43.928282      1195.3493 
 427   0.0000      43.954711      1196.0685 
 428   0.0000      43.999321      1197.2824 
 429   0.0000      44.027623      1198.0525 
 430   0.0000      44.047066      1198.5816 
 431   0.0000      44.106970      1200.2117 
 432   0.0000      44.149519      1201.3695 
 433   0.0000      44.151190      1201.4150 
 434   0.0000      44.184703      1202.3269 
 435   0.0000     205.061835      5580.0162 
 436   0.0000     205.102626      5581.1262 
 437   0.0000     205.112325      5581.3901 
 438   0.0000     205.132758      5581.9461 
 439   0.0000     205.143009      5582.2251 
 440   0.0000     205.153000      5582.4970 
 441   0.0000     205.170567      5582.9750 
 442   0.0000     205.193839      5583.6082 
 443   0.0000     205.196546      5583.6819 
 444   0.0000     205.200077      5583.7780 

                 SPIN DOWN ORBITALS
  NO   OCC          E(Eh)            E(eV) 
   0   1.0000    -254.756503     -6932.2769 
   1   1.0000     -29.542818      -803.9010 
   2   1.0000     -25.498331      -693.8449 
   3   1.0000     -25.489866      -693.6145 
   4   1.0000     -25.488980      -693.5904 
   5   1.0000      -4.036623      -109.8421 
   6   1.0000      -4.032413      -109.7275 
   7   1.0000      -4.023252      -109.4782 
   8   1.0000      -4.022958      -109.4703 
   9   1.0000      -4.022932      -109.4696 
  10   1.0000      -4.022292      -109.4521 
  11   1.0000      -4.017053      -109.3096 
  12   1.0000      -4.017017      -109.3086 
  13   1.0000      -4.015325      -109.2625 
  14   1.0000      -4.012516      -109.1861 
  15   1.0000      -3.246171       -88.3328 
  16   1.0000      -2.256876       -61.4127 
  17   1.0000      -2.252838       -61.3028 
  18   1.0000      -2.250520       -61.2398 
  19   1.0000      -2.246816       -61.1390 
  20   1.0000      -2.241997       -61.0078 
  21   1.0000      -2.241780       -61.0019 
  22   1.0000      -2.241679       -60.9992 
  23   1.0000      -2.240997       -60.9806 
  24   1.0000      -2.240015       -60.9539 
  25   1.0000      -2.237342       -60.8812 
  26   1.0000      -2.237286       -60.8797 
  27   1.0000      -2.236817       -60.8669 
  28   1.0000      -2.235456       -60.8299 
  29   1.0000      -2.234430       -60.8019 
  30   1.0000      -2.234253       -60.7971 
  31   1.0000      -2.232457       -60.7483 
  32   1.0000      -2.232341       -60.7451 
  33   1.0000      -2.232023       -60.7364 
  34   1.0000      -2.231946       -60.7343 
  35   1.0000      -2.230251       -60.6882 
  36   1.0000      -2.229176       -60.6589 
  37   1.0000      -2.228822       -60.6493 
  38   1.0000      -2.228603       -60.6434 
  39   1.0000      -2.227675       -60.6181 
  40   1.0000      -2.226577       -60.5882 
  41   1.0000      -2.226139       -60.5763 
  42   1.0000      -2.226120       -60.5758 
  43   1.0000      -2.223717       -60.5104 
  44   1.0000      -2.223319       -60.4996 
  45   1.0000      -2.217873       -60.3514 
  46   1.0000      -2.069393       -56.3110 
  47   1.0000      -2.059515       -56.0423 
  48   1.0000      -2.058855       -56.0243 
  49   1.0000      -0.411034       -11.1848 
  50   1.0000      -0.386533       -10.5181 
  51   1.0000      -0.380801       -10.3621 
  52   1.0000      -0.368425       -10.0254 
  53   1.0000      -0.361377        -9.8336 
  54   1.0000      -0.360872        -9.8198 
  55   1.0000      -0.356457        -9.6997 
  56   1.0000      -0.339674        -9.2430 
  57   1.0000      -0.337762        -9.1910 
  58   1.0000      -0.334403        -9.0996 
  59   1.0000      -0.329930        -8.9779 
  60   1.0000      -0.325920        -8.8687 
  61   1.0000      -0.324843        -8.8394 
  62   1.0000      -0.323986        -8.8161 
  63   1.0000      -0.319964        -8.7067 
  64   1.0000      -0.318914        -8.6781 
  65   1.0000      -0.316029        -8.5996 
  66   1.0000      -0.314829        -8.5669 
  67   1.0000      -0.310965        -8.4618 
  68   1.0000      -0.310520        -8.4497 
  69   1.0000      -0.305391        -8.3101 
  70   1.0000      -0.301478        -8.2036 
  71   1.0000      -0.297922        -8.1069 
  72   1.0000      -0.294763        -8.0209 
  73   1.0000      -0.293924        -7.9981 
  74   1.0000      -0.290063        -7.8930 
  75   1.0000      -0.287088        -7.8121 
  76   1.0000      -0.287063        -7.8114 
  77   1.0000      -0.282975        -7.7001 
  78   1.0000      -0.281881        -7.6704 
  79   1.0000      -0.278732        -7.5847 
  80   1.0000      -0.275503        -7.4968 
  81   1.0000      -0.274839        -7.4787 
  82   1.0000      -0.273466        -7.4414 
  83   1.0000      -0.271451        -7.3866 
  84   1.0000      -0.269028        -7.3206 
  85   1.0000      -0.267930        -7.2908 
  86   1.0000      -0.267090        -7.2679 
  87   1.0000      -0.265379        -7.2213 
  88   1.0000      -0.265133        -7.2146 
  89   1.0000      -0.263412        -7.1678 
  90   1.0000      -0.259385        -7.0582 
  91   1.0000      -0.258282        -7.0282 
  92   1.0000      -0.256225        -6.9722 
  93   1.0000      -0.255585        -6.9548 
  94   1.0000      -0.253248        -6.8912 
  95   1.0000      -0.252264        -6.8645 
  96   1.0000      -0.247357        -6.7309 
  97   1.0000      -0.246915        -6.7189 
  98   1.0000      -0.245685        -6.6854 
  99   1.0000      -0.243964        -6.6386 
 100   1.0000      -0.238705        -6.4955 
 101   1.0000      -0.238177        -6.4811 
 102   1.0000      -0.221148        -6.0177 
 103   1.0000      -0.220177        -5.9913 
 104   1.0000      -0.214414        -5.8345 
 105   1.0000      -0.179044        -4.8720 
 106   0.0000      -0.170036        -4.6269 
 107   0.0000      -0.161627        -4.3981 
 108   0.0000      -0.160527        -4.3682 
 109   0.0000      -0.150741        -4.1019 
 110   0.0000      -0.140871        -3.8333 
 111   0.0000      -0.137601        -3.7443 
 112   0.0000      -0.126159        -3.4330 
 113   0.0000      -0.119569        -3.2536 
 114   0.0000      -0.082922        -2.2564 
 115   0.0000      -0.072313        -1.9677 
 116   0.0000      -0.060414        -1.6440 
 117   0.0000      -0.052317        -1.4236 
 118   0.0000      -0.048478        -1.3192 
 119   0.0000      -0.042172        -1.1476 
 120   0.0000      -0.033355        -0.9076 
 121   0.0000      -0.024376        -0.6633 
 122   0.0000      -0.022042        -0.5998 
 123   0.0000      -0.001547        -0.0421 
 124   0.0000       0.005592         0.1522 
 125   0.0000       0.025285         0.6880 
 126   0.0000       0.026215         0.7134 
 127   0.0000       0.029345         0.7985 
 128   0.0000       0.040684         1.1071 
 129   0.0000       0.042098         1.1455 
 130   0.0000       0.044607         1.2138 
 131   0.0000       0.056302         1.5321 
 132   0.0000       0.062897         1.7115 
 133   0.0000       0.068085         1.8527 
 134   0.0000       0.071280         1.9396 
 135   0.0000       0.073168         1.9910 
 136   0.0000       0.077568         2.1107 
 137   0.0000       0.080566         2.1923 
 138   0.0000       0.090387         2.4595 
 139   0.0000       0.098308         2.6751 
 140   0.0000       0.101312         2.7568 
 141   0.0000       0.102719         2.7951 
 142   0.0000       0.117438         3.1957 
 143   0.0000       0.141331         3.8458 
 144   0.0000       0.147918         4.0251 
 145   0.0000       0.152625         4.1531 
 146   0.0000       0.156031         4.2458 
 147   0.0000       0.159639         4.3440 
 148   0.0000       0.170699         4.6450 
 149   0.0000       0.180714         4.9175 
 150   0.0000       0.184144         5.0108 
 151   0.0000       0.190062         5.1718 
 152   0.0000       0.195617         5.3230 
 153   0.0000       0.201819         5.4918 
 154   0.0000       0.207050         5.6341 
 155   0.0000       0.212741         5.7890 
 156   0.0000       0.222707         6.0602 
 157   0.0000       0.229845         6.2544 
 158   0.0000       0.230913         6.2835 
 159   0.0000       0.242427         6.5968 
 160   0.0000       0.250515         6.8169 
 161   0.0000       0.256059         6.9677 
 162   0.0000       0.259302         7.0560 
 163   0.0000       0.262236         7.1358 
 164   0.0000       0.268687         7.3114 
 165   0.0000       0.276930         7.5356 
 166   0.0000       0.278352         7.5743 
 167   0.0000       0.280661         7.6372 
 168   0.0000       0.286922         7.8075 
 169   0.0000       0.291094         7.9211 
 170   0.0000       0.295340         8.0366 
 171   0.0000       0.306607         8.3432 
 172   0.0000       0.308219         8.3871 
 173   0.0000       0.308521         8.3953 
 174   0.0000       0.317019         8.6265 
 175   0.0000       0.321940         8.7604 
 176   0.0000       0.323572         8.8048 
 177   0.0000       0.333281         9.0690 
 178   0.0000       0.340150         9.2560 
 179   0.0000       0.343117         9.3367 
 180   0.0000       0.345054         9.3894 
 181   0.0000       0.347655         9.4602 
 182   0.0000       0.353495         9.6191 
[...]
  63( 2) :    -0.316416 a.u.    -8.610 eV
  64( 2) :    -0.315475 a.u.    -8.584 eV
  65( 2) :    -0.314004 a.u.    -8.544 eV
  66( 2) :    -0.312965 a.u.    -8.516 eV
  67( 2) :    -0.309681 a.u.    -8.427 eV
  68( 2) :    -0.305593 a.u.    -8.316 eV
  69( 2) :    -0.303732 a.u.    -8.265 eV
  70( 2) :    -0.299279 a.u.    -8.144 eV
  71( 2) :    -0.296808 a.u.    -8.077 eV
  72( 2) :    -0.293624 a.u.    -7.990 eV
  73( 2) :    -0.292480 a.u.    -7.959 eV
  74( 2) :    -0.287590 a.u.    -7.826 eV
  75( 2) :    -0.285865 a.u.    -7.779 eV
  76( 2) :    -0.285638 a.u.    -7.773 eV
  77( 2) :    -0.281103 a.u.    -7.649 eV
  78( 2) :    -0.281042 a.u.    -7.648 eV
  79( 2) :    -0.276575 a.u.    -7.526 eV
  80( 2) :    -0.274652 a.u.    -7.474 eV
  81( 2) :    -0.274052 a.u.    -7.457 eV
  82( 2) :    -0.271722 a.u.    -7.394 eV
  83( 2) :    -0.271057 a.u.    -7.376 eV
  84( 2) :    -0.268001 a.u.    -7.293 eV
  85( 2) :    -0.267327 a.u.    -7.274 eV
  86( 2) :    -0.265915 a.u.    -7.236 eV
  87( 2) :    -0.264998 a.u.    -7.211 eV
  88( 2) :    -0.264499 a.u.    -7.197 eV
  89( 2) :    -0.262526 a.u.    -7.144 eV
  90( 2) :    -0.258613 a.u.    -7.037 eV
  91( 2) :    -0.257706 a.u.    -7.013 eV
  92( 2) :    -0.255526 a.u.    -6.953 eV
  93( 2) :    -0.254792 a.u.    -6.933 eV
  94( 2) :    -0.252589 a.u.    -6.873 eV
  95( 2) :    -0.251991 a.u.    -6.857 eV
  96( 2) :    -0.245965 a.u.    -6.693 eV
  97( 2) :    -0.245704 a.u.    -6.686 eV
  98( 2) :    -0.245066 a.u.    -6.669 eV
  99( 2) :    -0.243049 a.u.    -6.614 eV
 100( 2) :    -0.240728 a.u.    -6.551 eV
 101( 2) :    -0.237562 a.u.    -6.464 eV
 102( 2) :    -0.220736 a.u.    -6.007 eV
 103( 2) :    -0.220585 a.u.    -6.002 eV
 104( 2) :    -0.214640 a.u.    -5.841 eV
 105( 2) :    -0.179546 a.u.    -4.886 eV
 106( 1) :    -0.220217 a.u.    -5.992 eV alpha=   -7.584 beta=   -4.400
 107( 1) :    -0.210466 a.u.    -5.727 eV alpha=   -7.182 beta=   -4.272
 108( 1) :    -0.204978 a.u.    -5.578 eV alpha=   -7.046 beta=   -4.109
 109( 1) :    -0.201631 a.u.    -5.487 eV alpha=   -7.014 beta=   -3.959
 110( 0) :    -0.156919 a.u.    -4.270 eV
 111( 0) :    -0.147749 a.u.    -4.020 eV
 112( 0) :    -0.129867 a.u.    -3.534 eV
 113( 0) :    -0.126321 a.u.    -3.437 eV
 114( 0) :    -0.093391 a.u.    -2.541 eV
 115( 0) :    -0.076751 a.u.    -2.089 eV
 116( 0) :    -0.066727 a.u.    -1.816 eV
 117( 0) :    -0.055612 a.u.    -1.513 eV
 118( 0) :    -0.054888 a.u.    -1.494 eV
 119( 0) :    -0.046450 a.u.    -1.264 eV
 120( 0) :    -0.037887 a.u.    -1.031 eV
 121( 0) :    -0.030766 a.u.    -0.837 eV
 122( 0) :    -0.025450 a.u.    -0.693 eV
 123( 0) :    -0.006989 a.u.    -0.190 eV
 124( 0) :     0.003031 a.u.     0.082 eV
 125( 0) :     0.018747 a.u.     0.510 eV
 126( 0) :     0.024501 a.u.     0.667 eV
 127( 0) :     0.028574 a.u.     0.778 eV
 128( 0) :     0.038284 a.u.     1.042 eV
 129( 0) :     0.039352 a.u.     1.071 eV
 130( 0) :     0.041169 a.u.     1.120 eV
 131( 0) :     0.053044 a.u.     1.443 eV
 132( 0) :     0.061675 a.u.     1.678 eV
 133( 0) :     0.064380 a.u.     1.752 eV
 134( 0) :     0.068413 a.u.     1.862 eV
 135( 0) :     0.070293 a.u.     1.913 eV
 136( 0) :     0.072833 a.u.     1.982 eV
 137( 0) :     0.075945 a.u.     2.067 eV
 138( 0) :     0.088547 a.u.     2.409 eV
 139( 0) :     0.094815 a.u.     2.580 eV
 140( 0) :     0.097327 a.u.     2.648 eV
 141( 0) :     0.100549 a.u.     2.736 eV
 142( 0) :     0.114635 a.u.     3.119 eV
 143( 0) :     0.136100 a.u.     3.703 eV
 144( 0) :     0.137234 a.u.     3.734 eV
 145( 0) :     0.149348 a.u.     4.064 eV
 146( 0) :     0.151121 a.u.     4.112 eV
 147( 0) :     0.156896 a.u.     4.269 eV
 148( 0) :     0.164873 a.u.     4.486 eV
 149( 0) :     0.176312 a.u.     4.798 eV
 150( 0) :     0.176700 a.u.     4.808 eV
 151( 0) :     0.184376 a.u.     5.017 eV
 152( 0) :     0.193504 a.u.     5.266 eV
 153( 0) :     0.195591 a.u.     5.322 eV
 154( 0) :     0.200790 a.u.     5.464 eV
 155( 0) :     0.205371 a.u.     5.588 eV
 156( 0) :     0.217934 a.u.     5.930 eV
 157( 0) :     0.227069 a.u.     6.179 eV
 158( 0) :     0.228538 a.u.     6.219 eV
 159( 0) :     0.244811 a.u.     6.662 eV
 160( 0) :     0.247613 a.u.     6.738 eV
 161( 0) :     0.253835 a.u.     6.907 eV
 162( 0) :     0.254911 a.u.     6.936 eV
 163( 0) :     0.258434 a.u.     7.032 eV
 164( 0) :     0.264345 a.u.     7.193 eV
 165( 0) :     0.275491 a.u.     7.496 eV
 166( 0) :     0.276997 a.u.     7.537 eV
 167( 0) :     0.277742 a.u.     7.558 eV
 168( 0) :     0.281354 a.u.     7.656 eV
 169( 0) :     0.285123 a.u.     7.759 eV
 170( 0) :     0.301859 a.u.     8.214 eV
 171( 0) :     0.303307 a.u.     8.253 eV
 172( 0) :     0.304930 a.u.     8.298 eV
 173( 0) :     0.309423 a.u.     8.420 eV
 174( 0) :     0.316300 a.u.     8.607 eV
 175( 0) :     0.319484 a.u.     8.694 eV
 176( 0) :     0.322125 a.u.     8.765 eV
 177( 0) :     0.329960 a.u.     8.979 eV
 178( 0) :     0.339014 a.u.     9.225 eV
 179( 0) :     0.342506 a.u.     9.320 eV
 180( 0) :     0.343977 a.u.     9.360 eV
 181( 0) :     0.346552 a.u.     9.430 eV
 182( 0) :     0.355056 a.u.     9.662 eV
 183( 0) :     0.357360 a.u.     9.724 eV
 184( 0) :     0.361771 a.u.     9.844 eV
 185( 0) :     0.375312 a.u.    10.213 eV
 186( 0) :     0.378636 a.u.    10.303 eV
 187( 0) :     0.384058 a.u.    10.451 eV
 188( 0) :     0.390977 a.u.    10.639 eV
 189( 0) :     0.391158 a.u.    10.644 eV
 190( 0) :     0.395831 a.u.    10.771 eV
 191( 0) :     0.404239 a.u.    11.000 eV
 192( 0) :     0.409389 a.u.    11.140 eV
 193( 0) :     0.413781 a.u.    11.260 eV
 194( 0) :     0.424271 a.u.    11.545 eV
 195( 0) :     0.427886 a.u.    11.643 eV
 196( 0) :     0.435880 a.u.    11.861 eV
 197( 0) :     0.437584 a.u.    11.907 eV
 198( 0) :     0.447568 a.u.    12.179 eV
 199( 0) :     0.449775 a.u.    12.239 eV
 200( 0) :     0.456495 a.u.    12.422 eV
 201( 0) :     0.460270 a.u.    12.525 eV
 202( 0) :     0.467540 a.u.    12.722 eV
 203( 0) :     0.473442 a.u.    12.883 eV
 204( 0) :     0.480824 a.u.    13.084 eV
 205( 0) :     0.489190 a.u.    13.312 eV
 206( 0) :     0.498449 a.u.    13.563 eV
 207( 0) :     0.500681 a.u.    13.624 eV
 208( 0) :     0.508012 a.u.    13.824 eV
 209( 0) :     0.509706 a.u.    13.870 eV
 210( 0) :     0.524433 a.u.    14.271 eV
 211( 0) :     0.541643 a.u.    14.739 eV
 212( 0) :     0.555507 a.u.    15.116 eV
 213( 0) :     0.555924 a.u.    15.127 eV
 214( 0) :     0.564093 a.u.    15.350 eV
 215( 0) :     0.588172 a.u.    16.005 eV
 216( 0) :     0.606004 a.u.    16.490 eV
 217( 0) :     0.607137 a.u.    16.521 eV
 218( 0) :     0.631923 a.u.    17.196 eV
 219( 0) :     0.646185 a.u.    17.584 eV
 220( 0) :     0.656768 a.u.    17.872 eV
 221( 0) :     0.667470 a.u.    18.163 eV
 222( 0) :     0.671652 a.u.    18.277 eV
 223( 0) :     0.705919 a.u.    19.209 eV
 224( 0) :     0.714625 a.u.    19.446 eV
 225( 0) :     0.724998 a.u.    19.728 eV
 226( 0) :     0.747759 a.u.    20.348 eV
 227( 0) :     0.786323 a.u.    21.397 eV
 228( 0) :     0.795610 a.u.    21.650 eV
 229( 0) :     0.797615 a.u.    21.704 eV
 230( 0) :     0.802447 a.u.    21.836 eV
 231( 0) :     0.824637 a.u.    22.440 eV
 232( 0) :     0.852854 a.u.    23.207 eV
 233( 0) :     0.854054 a.u.    23.240 eV
 234( 0) :     0.873070 a.u.    23.757 eV
 235( 0) :     0.874073 a.u.    23.785 eV
 236( 0) :     0.888667 a.u.    24.182 eV
 237( 0) :     0.898938 a.u.    24.461 eV
 238( 0) :     0.909357 a.u.    24.745 eV
 239( 0) :     0.934715 a.u.    25.435 eV
 240( 0) :     0.940769 a.u.    25.600 eV
 241( 0) :     0.954555 a.u.    25.975 eV
 242( 0) :     0.956825 a.u.    26.037 eV
 243( 0) :     0.965290 a.u.    26.267 eV
 244( 0) :     0.978159 a.u.    26.617 eV
 245( 0) :     1.006691 a.u.    27.393 eV
 246( 0) :     1.031538 a.u.    28.070 eV
 247( 0) :     1.066085 a.u.    29.010 eV
 248( 0) :     1.093541 a.u.    29.757 eV
 249( 0) :     1.195122 a.u.    32.521 eV
 250( 0) :     1.218053 a.u.    33.145 eV
 251( 0) :     1.222292 a.u.    33.260 eV
 252( 0) :     1.281794 a.u.    34.879 eV
 253( 0) :     1.284423 a.u.    34.951 eV
 254( 0) :     1.297620 a.u.    35.310 eV
 255( 0) :     1.312189 a.u.    35.706 eV
 256( 0) :     1.312695 a.u.    35.720 eV
 257( 0) :     1.328744 a.u.    36.157 eV
 258( 0) :     1.339643 a.u.    36.454 eV
 259( 0) :     1.344768 a.u.    36.593 eV
 260( 0) :     1.351307 a.u.    36.771 eV
 261( 0) :     1.365482 a.u.    37.157 eV
 262( 0) :     1.378289 a.u.    37.505 eV
 263( 0) :     1.380333 a.u.    37.561 eV
 264( 0) :     1.388001 a.u.    37.769 eV
 265( 0) :     1.390929 a.u.    37.849 eV
 266( 0) :     1.398352 a.u.    38.051 eV
 267( 0) :     1.399348 a.u.    38.078 eV
 268( 0) :     1.407398 a.u.    38.297 eV
 269( 0) :     1.415803 a.u.    38.526 eV
 270( 0) :     1.418840 a.u.    38.609 eV
 271( 0) :     1.418999 a.u.    38.613 eV
 272( 0) :     1.425016 a.u.    38.777 eV
 273( 0) :     1.433198 a.u.    38.999 eV
 274( 0) :     1.437164 a.u.    39.107 eV
 275( 0) :     1.442307 a.u.    39.247 eV
 276( 0) :     1.443215 a.u.    39.272 eV
 277( 0) :     1.445360 a.u.    39.330 eV
 278( 0) :     1.447710 a.u.    39.394 eV
 279( 0) :     1.456679 a.u.    39.638 eV
 280( 0) :     1.460884 a.u.    39.753 eV
 281( 0) :     1.462967 a.u.    39.809 eV
 282( 0) :     1.467891 a.u.    39.943 eV
 283( 0) :     1.468242 a.u.    39.953 eV
 284( 0) :     1.471070 a.u.    40.030 eV
 285( 0) :     1.472173 a.u.    40.060 eV
 286( 0) :     1.475157 a.u.    40.141 eV
 287( 0) :     1.476906 a.u.    40.189 eV
 288( 0) :     1.477861 a.u.    40.215 eV
 289( 0) :     1.478483 a.u.    40.232 eV
 290( 0) :     1.479895 a.u.    40.270 eV
 291( 0) :     1.485025 a.u.    40.410 eV
 292( 0) :     1.487053 a.u.    40.465 eV
 293( 0) :     1.490354 a.u.    40.555 eV
 294( 0) :     1.492167 a.u.    40.604 eV
 295( 0) :     1.495619 a.u.    40.698 eV
 296( 0) :     1.497420 a.u.    40.747 eV
 297( 0) :     1.497580 a.u.    40.751 eV
 298( 0) :     1.499633 a.u.    40.807 eV
 299( 0) :     1.502108 a.u.    40.874 eV
 300( 0) :     1.506552 a.u.    40.995 eV
 301( 0) :     1.508990 a.u.    41.062 eV
 302( 0) :     1.509588 a.u.    41.078 eV
 303( 0) :     1.509763 a.u.    41.083 eV
 304( 0) :     1.510837 a.u.    41.112 eV
 305( 0) :     1.513008 a.u.    41.171 eV
 306( 0) :     1.517737 a.u.    41.300 eV
 307( 0) :     1.518067 a.u.    41.309 eV
 308( 0) :     1.519397 a.u.    41.345 eV
 309( 0) :     1.521308 a.u.    41.397 eV
 310( 0) :     1.525862 a.u.    41.521 eV
 311( 0) :     1.526363 a.u.    41.534 eV
 312( 0) :     1.529348 a.u.    41.616 eV
 313( 0) :     1.531155 a.u.    41.665 eV
 314( 0) :     1.532443 a.u.    41.700 eV
 315( 0) :     1.533443 a.u.    41.727 eV
 316( 0) :     1.536189 a.u.    41.802 eV
 317( 0) :     1.537103 a.u.    41.827 eV
 318( 0) :     1.539178 a.u.    41.883 eV
 319( 0) :     1.540486 a.u.    41.919 eV
 320( 0) :     1.543076 a.u.    41.989 eV
 321( 0) :     1.546055 a.u.    42.070 eV
 322( 0) :     1.546645 a.u.    42.086 eV
 323( 0) :     1.551696 a.u.    42.224 eV
 324( 0) :     1.553671 a.u.    42.278 eV
 325( 0) :     1.556798 a.u.    42.363 eV
 326( 0) :     1.557748 a.u.    42.388 eV
 327( 0) :     1.559054 a.u.    42.424 eV
 328( 0) :     1.560769 a.u.    42.471 eV
 329( 0) :     1.565542 a.u.    42.601 eV
 330( 0) :     1.566250 a.u.    42.620 eV
 331( 0) :     1.569039 a.u.    42.696 eV
 332( 0) :     1.572706 a.u.    42.796 eV
 333( 0) :     1.575708 a.u.    42.877 eV
 334( 0) :     1.578508 a.u.    42.953 eV
 335( 0) :     1.582087 a.u.    43.051 eV
 336( 0) :     1.586386 a.u.    43.168 eV
 337( 0) :     1.589093 a.u.    43.241 eV
 338( 0) :     1.590660 a.u.    43.284 eV
 339( 0) :     1.595749 a.u.    43.423 eV
 340( 0) :     1.599629 a.u.    43.528 eV
 341( 0) :     1.602702 a.u.    43.612 eV
 342( 0) :     1.610176 a.u.    43.815 eV
 343( 0) :     1.614464 a.u.    43.932 eV
 344( 0) :     1.616824 a.u.    43.996 eV
 345( 0) :     1.632191 a.u.    44.414 eV
 346( 0) :     1.635229 a.u.    44.497 eV
 347( 0) :     1.639020 a.u.    44.600 eV
 348( 0) :     1.646752 a.u.    44.810 eV
 349( 0) :     1.650234 a.u.    44.905 eV
 350( 0) :     1.653800 a.u.    45.002 eV
 351( 0) :     1.675756 a.u.    45.600 eV
 352( 0) :     1.681906 a.u.    45.767 eV
 353( 0) :     1.687137 a.u.    45.909 eV
 354( 0) :     1.694296 a.u.    46.104 eV
 355( 0) :     1.712976 a.u.    46.612 eV
 356( 0) :     1.724199 a.u.    46.918 eV
 357( 0) :     1.743641 a.u.    47.447 eV
 358( 0) :     1.787939 a.u.    48.652 eV
 359( 0) :     1.802328 a.u.    49.044 eV
 360( 0) :     1.825372 a.u.    49.671 eV
 361( 0) :     1.846172 a.u.    50.237 eV
 362( 0) :     1.863874 a.u.    50.719 eV
 363( 0) :     1.886167 a.u.    51.325 eV
 364( 0) :     1.898493 a.u.    51.661 eV
 365( 0) :     1.911522 a.u.    52.015 eV
 366( 0) :     1.927277 a.u.    52.444 eV
 367( 0) :     1.953176 a.u.    53.149 eV
 368( 0) :     1.967496 a.u.    53.538 eV
 369( 0) :     2.035039 a.u.    55.376 eV
 370( 0) :     2.087735 a.u.    56.810 eV
 371( 0) :     2.148833 a.u.    58.473 eV
 372( 0) :     2.218337 a.u.    60.364 eV
 373( 0) :     2.233208 a.u.    60.769 eV
 374( 0) :     2.279606 a.u.    62.031 eV
 375( 0) :     2.321756 a.u.    63.178 eV
 376( 0) :     2.330271 a.u.    63.410 eV
 377( 0) :     2.350876 a.u.    63.971 eV
 378( 0) :     2.459542 a.u.    66.928 eV
 379( 0) :     2.460053 a.u.    66.941 eV
 380( 0) :     2.465613 a.u.    67.093 eV
 381( 0) :     2.513870 a.u.    68.406 eV
 382( 0) :     3.092749 a.u.    84.158 eV
 383( 0) :     3.494084 a.u.    95.079 eV
 384( 0) :     3.498491 a.u.    95.199 eV
 385( 0) :     3.575149 a.u.    97.285 eV
 386( 0) :     3.575800 a.u.    97.302 eV
 387( 0) :     3.622266 a.u.    98.567 eV
 388( 0) :     3.889750 a.u.   105.845 eV
 389( 0) :     3.891546 a.u.   105.894 eV
 390( 0) :     3.901125 a.u.   106.155 eV
 391( 0) :     3.908671 a.u.   106.360 eV
 392( 0) :     3.913116 a.u.   106.481 eV
 393( 0) :     3.928858 a.u.   106.910 eV
 394( 0) :     3.931789 a.u.   106.989 eV
 395( 0) :    23.358801 a.u.   635.625 eV
 396( 0) :    23.707668 a.u.   645.118 eV
 397( 0) :    23.860553 a.u.   649.279 eV
 398( 0) :    23.936580 a.u.   651.347 eV
 399( 0) :    24.061125 a.u.   654.736 eV
 400( 0) :    24.318503 a.u.   661.740 eV
 401( 0) :    24.372757 a.u.   663.216 eV
 402( 0) :    24.393908 a.u.   663.792 eV
 403( 0) :    24.563986 a.u.   668.420 eV
 404( 0) :    24.921107 a.u.   678.138 eV
 405( 0) :    25.291557 a.u.   688.218 eV
 406( 0) :    25.388999 a.u.   690.870 eV
 407( 0) :    25.890413 a.u.   704.514 eV
 408( 0) :    26.018901 a.u.   708.010 eV
 409( 0) :    26.106291 a.u.   710.388 eV
 410( 0) :    26.144652 a.u.   711.432 eV
 411( 0) :    26.167982 a.u.   712.067 eV
 412( 0) :    26.210677 a.u.   713.229 eV
 413( 0) :    26.384993 a.u.   717.972 eV
 414( 0) :    26.621232 a.u.   724.401 eV
 415( 0) :    26.902525 a.u.   732.055 eV
 416( 0) :    27.223071 a.u.   740.777 eV
 417( 0) :    27.265206 a.u.   741.924 eV
 418( 0) :    27.409331 a.u.   745.846 eV
 419( 0) :    27.593623 a.u.   750.861 eV
 420( 0) :    27.657176 a.u.   752.590 eV
 421( 0) :    28.039146 a.u.   762.984 eV
 422( 0) :    28.233490 a.u.   768.272 eV
 423( 0) :    28.761654 a.u.   782.644 eV
 424( 0) :    29.250628 a.u.   795.950 eV
 425( 0) :    43.830491 a.u.  1192.688 eV
 426( 0) :    43.922125 a.u.  1195.182 eV
 427( 0) :    43.957912 a.u.  1196.156 eV
 428( 0) :    43.991350 a.u.  1197.065 eV
 429( 0) :    44.014988 a.u.  1197.709 eV
 430( 0) :    44.045039 a.u.  1198.526 eV
 431( 0) :    44.095126 a.u.  1199.889 eV
 432( 0) :    44.143185 a.u.  1201.197 eV
 433( 0) :    44.145365 a.u.  1201.256 eV
 434( 0) :    44.170856 a.u.  1201.950 eV
 435( 0) :   205.062387 a.u.  5580.031 eV
 436( 0) :   205.101210 a.u.  5581.088 eV
 437( 0) :   205.114371 a.u.  5581.446 eV
 438( 0) :   205.130794 a.u.  5581.893 eV
 439( 0) :   205.139393 a.u.  5582.127 eV
 440( 0) :   205.152322 a.u.  5582.478 eV
 441( 0) :   205.166411 a.u.  5582.862 eV
 442( 0) :   205.190285 a.u.  5583.512 eV
 443( 0) :   205.195360 a.u.  5583.650 eV
 444( 0) :   205.197585 a.u.  5583.710 eV
-------
TIMINGS
-------

Total SCF time: 0 days 0 hours 3 min 9 sec 

Total time                  ....     189.420 sec
Sum of individual times     ....     180.616 sec  ( 95.4%)

Fock matrix formation       ....     175.893 sec  ( 92.9%)
  Split-RI-J                ....      59.328 sec  ( 33.7% of F)
  XC integration            ....     108.948 sec  ( 61.9% of F)
    Basis function eval.    ....      18.636 sec  ( 17.1% of XC)
    Density eval.           ....      42.640 sec  ( 39.1% of XC)
    XC-Functional eval.     ....       2.810 sec  (  2.6% of XC)
    XC-Potential eval.      ....      39.026 sec  ( 35.8% of XC)
Diagonalization             ....       1.939 sec  (  1.0%)
Density matrix formation    ....       0.242 sec  (  0.1%)
Population analysis         ....       0.331 sec  (  0.2%)
Initial guess               ....       0.072 sec  (  0.0%)
Orbital Transformation      ....       0.368 sec  (  0.2%)
Orbital Orthonormalization  ....       0.059 sec  (  0.0%)
DIIS solution               ....       0.000 sec  (  0.0%)
Grid generation             ....       1.769 sec  (  0.9%)

Maximum memory used throughout the entire SCF-calculation: 346.1 MB

-------------------------   --------------------
FINAL SINGLE POINT ENERGY     -2621.739556540822
-------------------------   --------------------

                                *** OPTIMIZATION RUN DONE ***

                            ***************************************
                            *     ORCA property calculations      *
                            ***************************************

                                    ---------------------
                                    Active property flags
                                    ---------------------
   (+) Dipole Moment


------------------------------------------------------------------------------
                       ORCA ELECTRIC PROPERTIES CALCULATION
------------------------------------------------------------------------------

Dipole Moment Calculation                       ... on
Quadrupole Moment Calculation                   ... off
Polarizability Calculation                      ... off
GBWName                                         ... pbe.gbw
Electron density                                ... pbe.scfp
The origin for moment calculation is the CENTER OF MASS  = (18.312985, 12.200587 13.470303)

-------------
DIPOLE MOMENT
-------------
                                X             Y             Z
Electronic contribution:      2.42877      -9.57769       0.57109
Nuclear contribution   :     -2.25609       9.23632      -0.52970
                        -----------------------------------------
Total Dipole Moment    :      0.17268      -0.34136       0.04139
                        -----------------------------------------
Magnitude (a.u.)       :      0.38479
Magnitude (Debye)      :      0.97805



--------------------
Rotational spectrum 
--------------------
 
Rotational constants in cm-1:     0.002095     0.001358     0.001016 
Rotational constants in MHz :    62.807837    40.705007    30.469913 

 Dipole components along the rotational axes: 
x,y,z [a.u.] :    -0.350009    -0.159830    -0.002823 
x,y,z [Debye]:    -0.889652    -0.406256    -0.007174 

 

Timings for individual modules:

Sum of individual times         ...     3999.542 sec (=  66.659 min)
GTO integral calculation        ...       80.500 sec (=   1.342 min)   2.0 %
SCF iterations                  ...     3312.672 sec (=  55.211 min)  82.8 %
SCF Gradient evaluation         ...      605.461 sec (=  10.091 min)  15.1 %
Geometry relaxation             ...        0.909 sec (=   0.015 min)   0.0 %
                             ****ORCA TERMINATED NORMALLY****
TOTAL RUN TIME: 0 days 1 hours 6 minutes 47 seconds 69 msec
