
                                 *****************
                                 * O   R   C   A *
                                 *****************

                                            #,                                       
                                            ###                                      
                                            ####                                     
                                            #####                                    
                                            ######                                   
                                           ########,                                 
                                     ,,################,,,,,                         
                               ,,#################################,,                 
                          ,,##########################################,,             
                       ,#########################################, ''#####,          
                    ,#############################################,,   '####,        
                  ,##################################################,,,,####,       
                ,###########''''           ''''###############################       
              ,#####''   ,,,,##########,,,,          '''####'''          '####       
            ,##' ,,,,###########################,,,                        '##       
           ' ,,###''''                  '''############,,,                           
         ,,##''                                '''############,,,,        ,,,,,,###''
      ,#''                                            '''#######################'''  
     '                                                          ''''####''''         
             ,#######,   #######,   ,#######,      ##                                
            ,#'     '#,  ##    ##  ,#'     '#,    #''#        ######   ,####,        
            ##       ##  ##   ,#'  ##            #'  '#       #        #'  '#        
            ##       ##  #######   ##           ,######,      #####,   #    #        
            '#,     ,#'  ##    ##  '#,     ,#' ,#      #,         ##   #,  ,#        
             '#######'   ##     ##  '#######'  #'      '#     #####' # '####'        



                  #######################################################
                  #                        -***-                        #
                  #          Department of theory and spectroscopy      #
                  #    Directorship and core code : Frank Neese         #
                  #        Max Planck Institute fuer Kohlenforschung    #
                  #                Kaiser Wilhelm Platz 1               #
                  #                 D-45470 Muelheim/Ruhr               #
                  #                      Germany                        #
                  #                                                     #
                  #                  All rights reserved                #
                  #                        -***-                        #
                  #######################################################


                         Program Version 5.0.3 -  RELEASE  -


 With contributions from (in alphabetic order):
   Daniel Aravena         : Magnetic Suceptibility
   Michael Atanasov       : Ab Initio Ligand Field Theory (pilot matlab implementation)
   Alexander A. Auer      : GIAO ZORA, VPT2 properties, NMR spectrum
   Ute Becker             : Parallelization
   Giovanni Bistoni       : ED, misc. LED, open-shell LED, HFLD
   Martin Brehm           : Molecular dynamics
   Dmytro Bykov           : SCF Hessian
   Vijay G. Chilkuri      : MRCI spin determinant printing, contributions to CSF-ICE
   Dipayan Datta          : RHF DLPNO-CCSD density
   Achintya Kumar Dutta   : EOM-CC, STEOM-CC
   Dmitry Ganyushin       : Spin-Orbit,Spin-Spin,Magnetic field MRCI
   Miquel Garcia          : C-PCM and meta-GGA Hessian, CC/C-PCM, Gaussian charge scheme
   Yang Guo               : DLPNO-NEVPT2, F12-NEVPT2, CIM, IAO-localization
   Andreas Hansen         : Spin unrestricted coupled pair/coupled cluster methods
   Benjamin Helmich-Paris : MC-RPA, TRAH-SCF, COSX integrals
   Lee Huntington         : MR-EOM, pCC
   Robert Izsak           : Overlap fitted RIJCOSX, COSX-SCS-MP3, EOM
   Marcus Kettner         : VPT2
   Christian Kollmar      : KDIIS, OOCD, Brueckner-CCSD(T), CCSD density, CASPT2, CASPT2-K
   Simone Kossmann        : Meta GGA functionals, TD-DFT gradient, OOMP2, MP2 Hessian
   Martin Krupicka        : Initial AUTO-CI
   Lucas Lang             : DCDCAS
   Marvin Lechner         : AUTO-CI (C++ implementation), FIC-MRCC
   Dagmar Lenk            : GEPOL surface, SMD
   Dimitrios Liakos       : Extrapolation schemes; Compound Job, initial MDCI parallelization
   Dimitrios Manganas     : Further ROCIS development; embedding schemes
   Dimitrios Pantazis     : SARC Basis sets
   Anastasios Papadopoulos: AUTO-CI, single reference methods and gradients
   Taras Petrenko         : DFT Hessian,TD-DFT gradient, ASA, ECA, R-Raman, ABS, FL, XAS/XES, NRVS
   Peter Pinski           : DLPNO-MP2, DLPNO-MP2 Gradient
   Christoph Reimann      : Effective Core Potentials
   Marius Retegan         : Local ZFS, SOC
   Christoph Riplinger    : Optimizer, TS searches, QM/MM, DLPNO-CCSD(T), (RO)-DLPNO pert. Triples
   Tobias Risthaus        : Range-separated hybrids, TD-DFT gradient, RPA, STAB
   Michael Roemelt        : Original ROCIS implementation
   Masaaki Saitow         : Open-shell DLPNO-CCSD energy and density
   Barbara Sandhoefer     : DKH picture change effects
   Avijit Sen             : IP-ROCIS
   Kantharuban Sivalingam : CASSCF convergence, NEVPT2, FIC-MRCI
   Bernardo de Souza      : ESD, SOC TD-DFT
   Georgi Stoychev        : AutoAux, RI-MP2 NMR, DLPNO-MP2 response
   Willem Van den Heuvel  : Paramagnetic NMR
   Boris Wezisla          : Elementary symmetry handling
   Frank Wennmohs         : Technical directorship


 We gratefully acknowledge several colleagues who have allowed us to
 interface, adapt or use parts of their codes:
   Stefan Grimme, W. Hujo, H. Kruse, P. Pracht,  : VdW corrections, initial TS optimization,
                  C. Bannwarth, S. Ehlert          DFT functionals, gCP, sTDA/sTD-DF
   Ed Valeev, F. Pavosevic, A. Kumar             : LibInt (2-el integral package), F12 methods
   Garnet Chan, S. Sharma, J. Yang, R. Olivares  : DMRG
   Ulf Ekstrom                                   : XCFun DFT Library
   Mihaly Kallay                                 : mrcc  (arbitrary order and MRCC methods)
   Jiri Pittner, Ondrej Demel                    : Mk-CCSD
   Frank Weinhold                                : gennbo (NPA and NBO analysis)
   Christopher J. Cramer and Donald G. Truhlar   : smd solvation model
   Lars Goerigk                                  : TD-DFT with DH, B97 family of functionals
   V. Asgeirsson, H. Jonsson                     : NEB implementation
   FAccTs GmbH                                   : IRC, NEB, NEB-TS, DLPNO-Multilevel, CI-OPT
                                                   MM, QMMM, 2- and 3-layer-ONIOM, Crystal-QMMM,
                                                   LR-CPCM, SF, NACMEs, symmetry and pop. for TD-DFT,
                                                   nearIR, NL-DFT gradient (VV10), updates on ESD,
                                                   ML-optimized integration grids
   S Lehtola, MJT Oliveira, MAL Marques          : LibXC Library
   Liviu Ungur et al                             : ANISO software


 Your calculation uses the libint2 library for the computation of 2-el integrals
 For citations please refer to: http://libint.valeyev.net

 Your ORCA version has been built with support for libXC version: 5.1.0
 For citations please refer to: https://tddft.org/programs/libxc/

 This ORCA versions uses:
   CBLAS   interface :  Fast vector & matrix operations
   LAPACKE interface :  Fast linear algebra routines
   SCALAPACK package :  Parallel linear algebra routines
   Shared memory     :  Shared parallel matrices
   BLAS/LAPACK       :  OpenBLAS 0.3.15  USE64BITINT DYNAMIC_ARCH NO_AFFINITY Sandybridge SINGLE_THREADED
        Core in use  :  Sandybridge
   Copyright (c) 2011-2014, The OpenBLAS Project




***************************************
The coordinates will be read from file: pbe.xyz
***************************************


================================================================================

cite the ECPs for Au [Def2-ECP] as follows:
Ce-Yb(ecp-28): M. Dolg, H. Stoll, H.Preuss, J. Chem. Phys., 1989, 90, 1730-1734.
Y-Cd(ecp-28), Hf-Hg(ecp-46): D. Andrae,U. Haeussermann, M. Dolg, H. Stoll, H. Preuss, Theor. Chim. Acta, 1990, 77, 123-141.
In-Sb(ecp-28), Tl-Bi(ecp-46): B. Metz, H. Stoll, M. Dolg, J. Chem. Phys., 2000, 113, 2563-2569.
Te-Xe(ecp-28), Po-Rn(ecp-46): K. A. Peterson, D. Figgen, E. Goll, H. Stoll, M. Dolg, J. Chem. Phys., 2003, 119, 11113-11123.
Rb(ecp-28), Cs(ecp-46): T. Leininger, A. Nicklass, W. Kuechle, H. Stoll, M. Dolg, A. Bergner, Chem. Phys. Lett., 1996, 255, 274-280.
Sr(ecp-28), Ba(ecp-46): M. Kaupp, P. V. Schleyer, H. Stoll and H. Preuss, J. Chem. Phys., 1991, 94, 1360-1366.
La(ecp-46): M. Dolg, H. Stoll, A. Savin, H. Preuss, Theor. Chim. Acta, 1989, 75, 173-194.
Lu(ecp-28): X. Cao, M. Dolg, J. Chem. Phys., 2001, 115, 7348-7355.

ECP parameters for Au [Def2-ECP] have been obtained from:
TURBOMOLE (7.0.2)

----- Orbital basis set information -----
Your calculation utilizes the basis: def2-TZVP
   F. Weigend and R. Ahlrichs, Phys. Chem. Chem. Phys. 7, 3297 (2005).

----- AuxJ basis set information -----
Your calculation utilizes the auxiliary basis: def2/J
   F. Weigend, Phys. Chem. Chem. Phys. 8, 1057 (2006).

================================================================================
                                        WARNINGS
                       Please study these warnings very carefully!
================================================================================

Using LibXC functional ID 497 : Re-regularized SCAN exchange by Furness et al
[ 1]  J. W. Furness, A. D. Kaplan, J. Ning, J. P. Perdew, and J. Sun, J. Phys. Chem. Lett. 11, 8208 (2020)
[ 2]  J. W. Furness, A. D. Kaplan, J. Ning, J. P. Perdew, and J. Sun, J. Phys. Chem. Lett. 11, 9248 (2020)
Using LibXC functional ID 498 : Re-regularized SCAN correlation by Furness et al
[ 1]  J. W. Furness, A. D. Kaplan, J. Ning, J. P. Perdew, and J. Sun, J. Phys. Chem. Lett. 11, 8208 (2020)
[ 2]  J. W. Furness, A. D. Kaplan, J. Ning, J. P. Perdew, and J. Sun, J. Phys. Chem. Lett. 11, 9248 (2020)
Using LibXC functional ID 497 : Re-regularized SCAN exchange by Furness et al
[ 1]  J. W. Furness, A. D. Kaplan, J. Ning, J. P. Perdew, and J. Sun, J. Phys. Chem. Lett. 11, 8208 (2020)
[ 2]  J. W. Furness, A. D. Kaplan, J. Ning, J. P. Perdew, and J. Sun, J. Phys. Chem. Lett. 11, 9248 (2020)
Using LibXC functional ID 498 : Re-regularized SCAN correlation by Furness et al
[ 1]  J. W. Furness, A. D. Kaplan, J. Ning, J. P. Perdew, and J. Sun, J. Phys. Chem. Lett. 11, 8208 (2020)
[ 2]  J. W. Furness, A. D. Kaplan, J. Ning, J. P. Perdew, and J. Sun, J. Phys. Chem. Lett. 11, 9248 (2020)

WARNING: your system is open-shell and RHF/RKS was chosen
  ===> : WILL SWITCH to UHF/UKS


INFO   : the flag for use of the SHARK integral package has been found!



***************************************
The coordinates will be read from file: pbe.xyz
***************************************


================================================================================

cite the ECPs for Au [Def2-ECP] as follows:
Ce-Yb(ecp-28): M. Dolg, H. Stoll, H.Preuss, J. Chem. Phys., 1989, 90, 1730-1734.
Y-Cd(ecp-28), Hf-Hg(ecp-46): D. Andrae,U. Haeussermann, M. Dolg, H. Stoll, H. Preuss, Theor. Chim. Acta, 1990, 77, 123-141.
In-Sb(ecp-28), Tl-Bi(ecp-46): B. Metz, H. Stoll, M. Dolg, J. Chem. Phys., 2000, 113, 2563-2569.
Te-Xe(ecp-28), Po-Rn(ecp-46): K. A. Peterson, D. Figgen, E. Goll, H. Stoll, M. Dolg, J. Chem. Phys., 2003, 119, 11113-11123.
Rb(ecp-28), Cs(ecp-46): T. Leininger, A. Nicklass, W. Kuechle, H. Stoll, M. Dolg, A. Bergner, Chem. Phys. Lett., 1996, 255, 274-280.
Sr(ecp-28), Ba(ecp-46): M. Kaupp, P. V. Schleyer, H. Stoll and H. Preuss, J. Chem. Phys., 1991, 94, 1360-1366.
La(ecp-46): M. Dolg, H. Stoll, A. Savin, H. Preuss, Theor. Chim. Acta, 1989, 75, 173-194.
Lu(ecp-28): X. Cao, M. Dolg, J. Chem. Phys., 2001, 115, 7348-7355.

ECP parameters for Au [Def2-ECP] have been obtained from:
TURBOMOLE (7.0.2)

----- Orbital basis set information -----
Your calculation utilizes the basis: def2-TZVP
   F. Weigend and R. Ahlrichs, Phys. Chem. Chem. Phys. 7, 3297 (2005).

----- AuxJ basis set information -----
Your calculation utilizes the auxiliary basis: def2/J
   F. Weigend, Phys. Chem. Chem. Phys. 8, 1057 (2006).

================================================================================
                                        WARNINGS
                       Please study these warnings very carefully!
================================================================================

Using LibXC functional ID 497 : Re-regularized SCAN exchange by Furness et al
[ 1]  J. W. Furness, A. D. Kaplan, J. Ning, J. P. Perdew, and J. Sun, J. Phys. Chem. Lett. 11, 8208 (2020)
[ 2]  J. W. Furness, A. D. Kaplan, J. Ning, J. P. Perdew, and J. Sun, J. Phys. Chem. Lett. 11, 9248 (2020)
Using LibXC functional ID 498 : Re-regularized SCAN correlation by Furness et al
[ 1]  J. W. Furness, A. D. Kaplan, J. Ning, J. P. Perdew, and J. Sun, J. Phys. Chem. Lett. 11, 8208 (2020)
[ 2]  J. W. Furness, A. D. Kaplan, J. Ning, J. P. Perdew, and J. Sun, J. Phys. Chem. Lett. 11, 9248 (2020)
Using LibXC functional ID 497 : Re-regularized SCAN exchange by Furness et al
[ 1]  J. W. Furness, A. D. Kaplan, J. Ning, J. P. Perdew, and J. Sun, J. Phys. Chem. Lett. 11, 8208 (2020)
[ 2]  J. W. Furness, A. D. Kaplan, J. Ning, J. P. Perdew, and J. Sun, J. Phys. Chem. Lett. 11, 9248 (2020)
Using LibXC functional ID 498 : Re-regularized SCAN correlation by Furness et al
[ 1]  J. W. Furness, A. D. Kaplan, J. Ning, J. P. Perdew, and J. Sun, J. Phys. Chem. Lett. 11, 8208 (2020)
[ 2]  J. W. Furness, A. D. Kaplan, J. Ning, J. P. Perdew, and J. Sun, J. Phys. Chem. Lett. 11, 9248 (2020)

INFO   : the flag for use of the SHARK integral package has been found!

================================================================================
                                       INPUT FILE
================================================================================
NAME = scan.inp
|  1> !R2SCAN def2-TZVP VERYSLOWCONV
|  2> !KDIIS
|  3> %scf
|  4>   AutoTRAHIter 200
|  5>   maxiter 400
|  6> end
|  7> 
|  8> %pal nprocs 6 end 
|  9> 
| 10> *xyzfile 0 6 pbe.xyz
| 11> 
| 12> $new_job
| 13> 
| 14> !R2SCAN def2-TZVP VERYSLOWCONV
| 15> !KDIIS
| 16> %scf
| 17>   AutoTRAHIter 200
| 18>   maxiter 400
| 19> end
| 20> 
| 21> 
| 22> %pal nprocs 6 end 
| 23> 
| 24> *xyzfile 0 4 pbe.xyz
| 25> 
| 26> 
| 27> 
| 28> 
| 29> 
| 30>                          ****END OF INPUT****
================================================================================


                 $$$$$$$$$$$$$$$$$$$$$$$$$$$$$$$$$$$$$$$$$$$$$$ 
                 $ THERE ARE  2 JOBS TO BE PROCESSED THIS RUN $
                 $$$$$$$$$$$$$$$$$$$$$$$$$$$$$$$$$$$$$$$$$$$$$$ 




                 $$$$$$$$$$$$$$$$  JOB NUMBER  1 $$$$$$$$$$$$$$


                       ****************************
                       * Single Point Calculation *
                       ****************************

---------------------------------
CARTESIAN COORDINATES (ANGSTROEM)
---------------------------------
  Au     8.223142    8.974742   10.708606
  Au     9.919438    7.524330    8.956072
  Au     6.517022    7.546549    8.946978
  Au     9.937985   10.408418    8.960451
  Au     6.536043   10.430427    8.951372
  Au     6.543204   10.434449    6.252537
  Au     9.945682   10.412232    6.261583
  Au     6.524406    7.550424    6.248161
  Au     9.926890    7.528421    6.257178
  Au     8.239523    8.983912    4.500083
  Mn     8.231338    8.979337    7.604210

----------------------------
CARTESIAN COORDINATES (A.U.)
----------------------------
  NO LB      ZA    FRAG     MASS         X           Y           Z
   0 Au   19.0000*   0   196.966   15.539486   16.959805   20.236332
   1 Au   19.0000*   0   196.966   18.745021   14.218922   16.924523
   2 Au   19.0000*   0   196.966   12.315386   14.260912   16.907338
   3 Au   19.0000*   0   196.966   18.780070   19.669059   16.932798
   4 Au   19.0000*   0   196.966   12.351332   19.710651   16.915641
   5 Au   19.0000*   0   196.966   12.364863   19.718252   11.815582
   6 Au   19.0000*   0   196.966   18.794616   19.676266   11.832676
   7 Au   19.0000*   0   196.966   12.329340   14.268233   11.807312
   8 Au   19.0000*   0   196.966   18.759103   14.226654   11.824352
   9 Au   19.0000*   0   196.966   15.570441   16.977133    8.503925
  10 Mn   25.0000    0    54.940   15.554975   16.968488   14.369874
* core charge reduced due to ECP

--------------------------------
INTERNAL COORDINATES (ANGSTROEM)
--------------------------------
 Au     0   0   0     0.000000000000     0.00000000     0.00000000
 Au     1   0   0     2.837691261133     0.00000000     0.00000000
 Au     1   2   0     2.837941946320    73.66715106     0.00000000
 Au     1   2   3     2.837632582154    61.08687770   243.78182916
 Au     1   2   3     2.837814740072   103.59990752   306.11490240
 Au     5   1   2     2.698847495979   128.19975984     0.00000000
 Au     4   1   2     2.698881675895   128.20635233    62.31874554
 Au     3   1   2     2.698830116595   128.19728052   306.12248507
 Au     2   1   3     2.698907480992   128.20406624    53.89253554
 Au     8   3   1     2.837655292422   128.19973360     0.00000000
 Mn     6   5   1     2.606562878300    58.82347640     0.00000000

---------------------------
INTERNAL COORDINATES (A.U.)
---------------------------
 Au     0   0   0     0.000000000000     0.00000000     0.00000000
 Au     1   0   0     5.362459336163     0.00000000     0.00000000
 Au     1   2   0     5.362933062512    73.66715106     0.00000000
 Au     1   2   3     5.362348448964    61.08687770   243.78182916
 Au     1   2   3     5.362692677542   103.59990752   306.11490240
 Au     5   1   2     5.100082644619   128.19975984     0.00000000
 Au     4   1   2     5.100147235299   128.20635233    62.31874554
 Au     3   1   2     5.100049802343   128.19728052   306.12248507
 Au     2   1   3     5.100195999866   128.20406624    53.89253554
 Au     8   3   1     5.362391365149   128.19973360     0.00000000
 Mn     6   5   1     4.925689990832    58.82347640     0.00000000

---------------------
BASIS SET INFORMATION
---------------------
There are 2 groups of distinct atoms

 Group   1 Type Au  : 8s7p6d1f contracted to 6s4p3d1f pattern {311111/4111/411/1}
 Group   2 Type Mn  : 17s11p7d1f contracted to 6s4p4d1f pattern {842111/6311/4111/1}

Atom   0Au   basis set group =>   1
Atom   1Au   basis set group =>   1
Atom   2Au   basis set group =>   1
Atom   3Au   basis set group =>   1
Atom   4Au   basis set group =>   1
Atom   5Au   basis set group =>   1
Atom   6Au   basis set group =>   1
Atom   7Au   basis set group =>   1
Atom   8Au   basis set group =>   1
Atom   9Au   basis set group =>   1
Atom  10Mn   basis set group =>   2
---------------------------------
AUXILIARY/J BASIS SET INFORMATION
---------------------------------
There are 2 groups of distinct atoms

 Group   1 Type Au  : 11s5p5d3f3g contracted to 8s5p5d2f3g pattern {41111111/11111/11111/21/111}
 Group   2 Type Mn  : 19s5p5d3f3g contracted to 8s5p5d2f3g pattern {121111111/11111/11111/21/111}

Atom   0Au   basis set group =>   1
Atom   1Au   basis set group =>   1
Atom   2Au   basis set group =>   1
Atom   3Au   basis set group =>   1
Atom   4Au   basis set group =>   1
Atom   5Au   basis set group =>   1
Atom   6Au   basis set group =>   1
Atom   7Au   basis set group =>   1
Atom   8Au   basis set group =>   1
Atom   9Au   basis set group =>   1
Atom  10Mn   basis set group =>   2
-------------------------
ECP PARAMETER INFORMATION
-------------------------

 Group 1, Type Au ECP Def2-ECP (replacing 60 core electrons, lmax=3)

Atom   0Au   ECP group =>   1
Atom   1Au   ECP group =>   1
Atom   2Au   ECP group =>   1
Atom   3Au   ECP group =>   1
Atom   4Au   ECP group =>   1
Atom   5Au   ECP group =>   1
Atom   6Au   ECP group =>   1
Atom   7Au   ECP group =>   1
Atom   8Au   ECP group =>   1
Atom   9Au   ECP group =>   1



           ************************************************************
           *        Program running with 6 parallel MPI-processes     *
           *              working on a common directory               *
           ************************************************************
------------------------------------------------------------------------------
                           ORCA GTO INTEGRAL CALCULATION
                           -- RI-GTO INTEGRALS CHOSEN --
------------------------------------------------------------------------------
------------------------------------------------------------------------------
                   ___                                                        
                  /   \      - P O W E R E D   B Y -                         
                 /     \                                                     
                 |  |  |   _    _      __       _____    __    __             
                 |  |  |  | |  | |    /  \     |  _  \  |  |  /  |          
                  \  \/   | |  | |   /    \    | | | |  |  | /  /          
                 / \  \   | |__| |  /  /\  \   | |_| |  |  |/  /          
                |  |  |   |  __  | /  /__\  \  |    /   |      \           
                |  |  |   | |  | | |   __   |  |    \   |  |\   \          
                \     /   | |  | | |  |  |  |  | |\  \  |  | \   \       
                 \___/    |_|  |_| |__|  |__|  |_| \__\ |__|  \__/        
                                                                              
                      - O R C A' S   B I G   F R I E N D -                    
                                      &                                       
                       - I N T E G R A L  F E E D E R -                       
                                                                              
 v1 FN, 2020, v2 2021                                                         
------------------------------------------------------------------------------


Reading SHARK input file scan.SHARKINP.tmp ... ok
----------------------
SHARK INTEGRAL PACKAGE
----------------------

Number of atoms                             ...     11
Number of basis functions                   ...    445
Number of shells                            ...    155
Maximum angular momentum                    ...      3
Integral batch strategy                     ... SHARK/LIBINT Hybrid
RI-J (if used) integral strategy            ... SPLIT-RIJ (Revised 2003 algorithm where possible)
Printlevel                                  ...      1
Contraction scheme used                     ... SEGMENTED contraction
Coulomb Range Separation                    ... NOT USED
Exchange Range Separation                   ... NOT USED
Finite Nucleus Model                        ... NOT USED
Auxiliary Coulomb fitting basis             ... AVAILABLE
   # of basis functions in Aux-J            ...    979
   # of shells in Aux-J                     ...    253
   Maximum angular momentum in Aux-J        ...      4
Auxiliary J/K fitting basis                 ... NOT available
Auxiliary Correlation fitting basis         ... NOT available
Auxiliary 'external' fitting basis          ... NOT available
Integral threshold                          ...     1.000000e-10
Primitive cut-off                           ...     1.000000e-11
Primitive pair pre-selection threshold      ...     1.000000e-11

Calculating pre-screening integrals         ... done (  0.2 sec) Dimension = 155
Organizing shell pair data                  ... done (  0.3 sec)
Shell pair information
Total number of shell pairs                 ...     12090
Shell pairs after pre-screening             ...     10126
Total number of primitive shell pairs       ...     33105
Primitive shell pairs kept                  ...     20531
          la=0 lb=0:   1579 shell pairs
          la=1 lb=0:   2296 shell pairs
          la=1 lb=1:    876 shell pairs
          la=2 lb=0:   1998 shell pairs
          la=2 lb=1:   1420 shell pairs
          la=2 lb=2:    580 shell pairs
          la=3 lb=0:    554 shell pairs
          la=3 lb=1:    414 shell pairs
          la=3 lb=2:    348 shell pairs
          la=3 lb=3:     61 shell pairs

Calculating one electron integrals          ... done (  0.0 sec)
Calculating ECP integrals                   ... done (  9.7 sec)
Calculating RI/J V-Matrix + Cholesky decomp.... done (  0.1 sec)
Calculating Nuclear repulsion               ... done (  0.0 sec) ENN=   3269.507253443251 Eh

SHARK setup successfully completed in  10.7 seconds

Maximum memory used throughout the entire GTOINT-calculation: 27.4 MB


           ************************************************************
           *        Program running with 6 parallel MPI-processes     *
           *              working on a common directory               *
           ************************************************************
-------------------------------------------------------------------------------
                                 ORCA SCF
-------------------------------------------------------------------------------

------------
SCF SETTINGS
------------
Hamiltonian:
 Density Functional     Method          .... DFT(GTOs)
  Functional kind                       .... Exchange
  Functional name                       .... Re-regularized SCAN exchange by Furness et al
  Functional family                     .... MGGA
  Functional refs                              
    [ 0] J. W. Furness, A. D. Kaplan, J. Ning, J. P. Perdew, and J. Sun, J. Phys. Chem. Lett. 11, 8208 (2020)
    [ 1] J. W. Furness, A. D. Kaplan, J. Ning, J. P. Perdew, and J. Sun, J. Phys. Chem. Lett. 11, 9248 (2020)
  Functional external parameters         .... 8
 Parameter  0 :         c1 parameter
 Parameter  1 :         c2 parameter
 Parameter  2 :          d parameter
 Parameter  3 :         k1 parameter
 Parameter  4 :       taur parameter
 Parameter  5 :     alphar parameter
 Parameter  6 :        eta parameter
 Parameter  7 :        dp2 parameter
  Functional kind                       .... Correlation
  Functional name                       .... Re-regularized SCAN correlation by Furness et al
  Functional family                     .... MGGA
  Functional refs                              
    [ 0] J. W. Furness, A. D. Kaplan, J. Ning, J. P. Perdew, and J. Sun, J. Phys. Chem. Lett. 11, 8208 (2020)
    [ 1] J. W. Furness, A. D. Kaplan, J. Ning, J. P. Perdew, and J. Sun, J. Phys. Chem. Lett. 11, 9248 (2020)
  Functional external parameters         .... 0
 Gradients option       PostSCFGGA      .... off
   Density functional embedding theory  .... OFF
   NL short-range parameter             .... 12.300000
 RI-approximation to the Coulomb term is turned on
   Number of AuxJ basis functions       .... 979


General Settings:
 Integral files         IntName         .... scan
 Hartree-Fock type      HFTyp           .... UHF
 Total Charge           Charge          ....    0
 Multiplicity           Mult            ....    6
 Number of Electrons    NEL             ....  215
 Basis Dimension        Dim             ....  445
 Nuclear Repulsion      ENuc            ....   3269.5072534433 Eh

Convergence Acceleration:
 DIIS                   CNVDIIS         .... off
 Trust-Rad. Augm. Hess. CNVTRAH         .... auto
   Auto Start mean grad. ratio tolernc. ....  1.125000
   Auto Start start iteration           ....   200
   Auto Start num. interpolation iter.  ....    10
   Max. Number of Micro iterations      ....    16
   Max. Number of Macro iterations      .... Maxiter - #DIIS iter
   Number of Davidson start vectors     ....     2
   Converg. threshold I  (grad. norm)   ....   5.000e-05
   Converg. threshold II (energy diff.) ....   1.000e-06
   Grad. Scal. Fac. for Micro threshold ....   0.100
   Minimum threshold for Micro iter.    ....   0.010
   NR start threshold (gradient norm)   ....   0.001
   Initial trust radius                 ....   0.400
   Minimum AH scaling param. (alpha)    ....   1.000
   Maximum AH scaling param. (alpha)    .... 1000.000
   Orbital update algorithm             .... Taylor
   White noise on init. David. guess    .... on
   Maximum white noise                  ....   0.010
   Quad. conv. algorithm                .... NR
 SOSCF                  CNVSOSCF        .... off
 Level Shifting         CNVShift        .... off
 Zerner damping         CNVZerner       .... off
 Static damping         CNVDamp         .... off
 Fernandez-Rico         CNVRico         .... off

SCF Procedure:
 Maximum # iterations   MaxIter         ....   400
 SCF integral mode      SCFMode         .... Direct
   Integral package                     .... SHARK and LIBINT hybrid scheme
 Reset frequency        DirectResetFreq ....    20
 Integral Threshold     Thresh          ....  1.000e-10 Eh
 Primitive CutOff       TCut            ....  1.000e-11 Eh

Convergence Tolerance:
 Convergence Check Mode ConvCheckMode   .... All-Criteria
 Convergence forced     ConvForced      .... 0
 Energy Change          TolE            ....  1.000e-06 Eh
 Max Density Change     TolMaxP         ....  1.000e-05
 RMS Density Change     TolRMSP         ....  1.000e-06


Diagonalization of the overlap matrix:
Smallest eigenvalue                        ... 3.147e-04
Time for diagonalization                   ...    0.071 sec
Threshold for overlap eigenvalues          ... 1.000e-08
Number of eigenvalues below threshold      ... 0
Time for construction of square roots      ...    0.053 sec
Total time needed                          ...    0.126 sec

Time for model grid setup =    0.623 sec

------------------------------
INITIAL GUESS: MODEL POTENTIAL
------------------------------
Loading Hartree-Fock densities                     ... done
  calling /home/ehlert/src/miniconda3/envs/orca500/Programs/ORCA501/orca scan_atom79.inp > scan_atom79.out in order to generate an atomic fitting density for atom 0 (Au with ECP) on-the-fly... 
    atom 0 (Au), assumed electronic state with S=2: 1s2 2s2 2p6 3s2 3p6 4s2 3d10 4p6 5s2 4d10 5p6 6s1 4f14 5d10           ... done
Calculating cut-offs                               ... done
Initializing the effective Hamiltonian             ... done
Setting up the integral package (SHARK)            ... done
Starting the Coulomb interaction                   ... done (   0.5 sec)
Reading the grid                                   ... done
Mapping shells                                     ... done
Starting the XC term evaluation                    ... done (   0.6 sec)
  promolecular density results
     # of electrons  =    815.010979638
     EX              =  -3708.828714021
     EC              =    -49.505534775
     EX+EC           =  -3758.334248796
Transforming the Hamiltonian                       ... done (   0.0 sec)
Diagonalizing the Hamiltonian                      ... done (   0.1 sec)
Back transforming the eigenvectors                 ... done (   0.0 sec)
Now organizing SCF variables                       ... done
                      ------------------
                      INITIAL GUESS DONE (   2.9 sec)
                      ------------------
-------------------
DFT GRID GENERATION
-------------------

General Integration Accuracy     IntAcc      ... 4.388
Radial Grid Type                 RadialGrid  ... OptM3 with GC (2021)
Angular Grid (max. ang.)         AngularGrid ... 4 (Lebedev-302)
Angular grid pruning method      GridPruning ... 4 (adaptive)
Weight generation scheme         WeightScheme... Becke
Basis function cutoff            BFCut       ... 1.0000e-10
Integration weight cutoff        WCut        ... 1.0000e-14
Angular grids for H and He will be reduced by one unit
Partially contracted basis set               ... off
Rotationally invariant grid construction     ... off

Total number of grid points                  ...   122872
Total number of batches                      ...     1926
Average number of points per batch           ...       63
Average number of grid points per atom       ...    11170
Time for grid setup =    1.991 sec

--------------
SCF ITERATIONS
--------------
ITER       Energy         Delta-E        Max-DP      RMS-DP      [F,P]   Gradient Norm
               ***  Starting incremental Fock matrix formation  ***
                             ****Resetting KDIIS****
                             ****Turning on KDIIS(Cayley)****
  0  -2507.5836203938   0.000000000000 0.18353250  0.00142379  0.4550805   0.223602741
  1  -2508.4079038942  -0.824283500407 0.72918374  0.00272843  0.4075731   0.175091780
  2  -2508.9260843157  -0.518180421499 0.15495749  0.00165010  0.3230186   0.128192339
  3  -2509.1577335428  -0.231649227063 0.28178095  0.00177434  0.1891811   0.075889145
  4  -2509.2155750676  -0.057841524788 0.13926421  0.00054790  0.0853946   0.028514926
  5  -2509.2646886436  -0.049113575999 0.08487566  0.00039923  0.0463756   0.006972570
  6  -2509.2789913823  -0.014302738713 0.15842823  0.00086320  0.0370913   0.006299937
  7  -2509.2923558471  -0.013364464804 0.12130371  0.00056693  0.0525824   0.011470356
  8  -2509.3119121408  -0.019556293700 0.07888685  0.00036231  0.0187473   0.003989181
  9  -2509.3163337148  -0.004421574031 0.03638183  0.00016354  0.0126256   0.005235495
 10  -2509.3189513989  -0.002617684083 0.03780312  0.00025887  0.0171372   0.003358306
 11  -2509.3224588802  -0.003507481270 0.03643216  0.00026025  0.0069266   0.002634817
 12  -2509.3248493575  -0.002390477329 0.00984288  0.00007037  0.0071534   0.001849846
 13  -2509.3252643352  -0.000414977675 0.00738961  0.00005495  0.0073948   0.001990609
 14  -2509.3259339022  -0.000669567022 0.00033215  0.00000381  0.0085345   0.000968888
 15  -2509.3258989560   0.000034946236 0.00646812  0.00006212  0.0084770   0.001009077
 16  -2509.3251637230   0.000735232918 0.00784698  0.00008778  0.0071174   0.001059523
 17  -2509.3242340046   0.000929718401 0.00709244  0.00009210  0.0041933   0.000716785
 18  -2509.3240383139   0.000195690755 0.00371973  0.00003452  0.0049794   0.001106166
 19  -2509.3240337194   0.000004594514 0.00696633  0.00007406  0.0046618   0.001546351
               *** Restarting incremental Fock matrix formation ***
                             ****Resetting KDIIS****
 20  -2509.3242660296  -0.000232310185 0.00084922  0.00000709  0.0033209   0.000718149
 21  -2509.3243001668  -0.000034137233 0.00092650  0.00000881  0.0027017   0.000500917
 22  -2509.3243471755  -0.000047008751 0.00155064  0.00001744  0.0026894   0.000415174
 23  -2509.3244281280  -0.000080952496 0.01268495  0.00011995  0.0022569   0.000358666
 24  -2509.3248271547  -0.000399026626 0.00593013  0.00005017  0.0007724   0.000616912
 25  -2509.3249578545  -0.000130699824 0.00362654  0.00001486  0.0006339   0.000109623
 26  -2509.3249747979  -0.000016943421 0.00178618  0.00000794  0.0005523   0.000135626
 27  -2509.3249844318  -0.000009633869 0.00252488  0.00001078  0.0005042   0.000096101
 28  -2509.3249962349  -0.000011803128 0.00548094  0.00002239  0.0004879   0.000152058
 29  -2509.3250187723  -0.000022537404 0.00026666  0.00000255  0.0005948   0.000090491
 30  -2509.3250175052   0.000001267135 0.00183435  0.00000766  0.0006257   0.000080602
 31  -2509.3250094203   0.000008084914 0.00090040  0.00000375  0.0005914   0.000077336
 32  -2509.3250134145  -0.000003994193 0.00096289  0.00000403  0.0006378   0.000081081
 33  -2509.3250169153  -0.000003500822 0.00059799  0.00000339  0.0006634   0.000092785
 34  -2509.3250192608  -0.000002345500 0.00087574  0.00000448  0.0006233   0.000122900
 35  -2509.3250138096   0.000005451221 0.00079657  0.00000686  0.0005887   0.000174178
                          ***Energy convergence achieved***
 36  -2509.3250142561  -0.000000446510 0.00144589  0.00000974  0.0005097   0.000175173
 37  -2509.3250218623  -0.000007606247 0.00204356  0.00000733  0.0007200   0.000119351
 38  -2509.3250266280  -0.000004765703 0.00132832  0.00000506  0.0007428   0.000103634
 39  -2509.3250243239   0.000002304119 0.00082338  0.00000372  0.0007389   0.000095160
               *** Restarting incremental Fock matrix formation ***
                             ****Resetting KDIIS****
 40  -2509.3250283303  -0.000004006446 0.00012500  0.00000102  0.0007789   0.000125458
                          ***Energy convergence achieved***
 41  -2509.3250285218  -0.000000191478 0.00026885  0.00000155  0.0007993   0.000091891
 42  -2509.3250304443  -0.000001922439 0.00038311  0.00000231  0.0008428   0.000084858
 43  -2509.3250330015  -0.000002557224 0.00665590  0.00002948  0.0009019   0.000091546
 44  -2509.3250095425   0.000023459005 0.00194557  0.00000602  0.0002946   0.000076744
 45  -2509.3250108480  -0.000001305497 0.00334473  0.00001136  0.0002841   0.000035572
 46  -2509.3250125584  -0.000001710444 0.00096857  0.00000370  0.0002597   0.000037311
 47  -2509.3250135750  -0.000001016625 0.00420066  0.00001510  0.0002336   0.000040080
 48  -2509.3250201666  -0.000006591537 0.00255746  0.00000979  0.0002091   0.000075286
                          ***Energy convergence achieved***
 49  -2509.3250210437  -0.000000877155 0.00046880  0.00000222  0.0001011   0.000031718
 50  -2509.3250225535  -0.000001509749 0.00058440  0.00000230  0.0000894   0.000039144
                          ***Energy convergence achieved***
                           ***RMSP convergence achieved***
 51  -2509.3250230809  -0.000000527440 0.00010855  0.00000065  0.0001070   0.000024050
 52  -2509.3250231598  -0.000000078860 0.00038093  0.00000139  0.0001075   0.000018474
 53  -2509.3250229907   0.000000169062 0.00066204  0.00000251  0.0001015   0.000014999
 54  -2509.3250243432  -0.000001352486 0.00033192  0.00000117  0.0001304   0.000015399
                          ***Energy convergence achieved***
 55  -2509.3250243033   0.000000039929 0.00056126  0.00000286  0.0001249   0.000027409
                           ***RMSP convergence achieved***
 56  -2509.3250225560   0.000001747242 0.00017967  0.00000068  0.0000949   0.000014806
                          ***Energy convergence achieved***
 57  -2509.3250223946   0.000000161437 0.00015484  0.00000078  0.0000972   0.000014755

            ***Energy convergence in two consecutive cycles with***
                    ***'reasonable' density convergence***
                       *** signaling convergence ***

                    *** KDIIS BlockDiag ( 0.119 sec) ***

               *****************************************************
               *                     SUCCESS                       *
               *           SCF CONVERGED AFTER  58 CYCLES          *
               *****************************************************


----------------
TOTAL SCF ENERGY
----------------

Total Energy       :        -2509.32502275 Eh          -68282.20527 eV

Components:
Nuclear Repulsion  :         3269.50725344 Eh           88967.81540 eV
Electronic Energy  :        -5778.83227619 Eh         -157250.02067 eV
One Electron Energy:       -10507.29696224 Eh         -285918.08614 eV
Two Electron Energy:         4728.46468605 Eh          128668.06547 eV

Virial components:
Potential Energy   :        -4117.30183759 Eh         -112037.47888 eV
Kinetic Energy     :         1607.97681484 Eh           43755.27361 eV
Virial Ratio       :            2.56054801


DFT components:
N(Alpha)           :      110.000018515979 electrons
N(Beta)            :      105.000018754337 electrons
N(Total)           :      215.000037270316 electrons
E(X)               :     -172.384754745041 Eh       
E(C)               :       -8.911859494663 Eh       
E(XC)              :     -181.296614239703 Eh       
DFET-embed. en.    :        0.000000000000 Eh       

---------------
SCF CONVERGENCE
---------------

  Last Energy change         ...   -3.5652e-07  Tolerance :   1.0000e-06
  Last MAX-Density change    ...    4.9136e-05  Tolerance :   1.0000e-05
  Last RMS-Density change    ...    5.3162e-07  Tolerance :   1.0000e-06

             **** THE GBW FILE WAS UPDATED (scan.gbw) ****
             **** DENSITY scan.scfp WAS UPDATED ****
             **** ENERGY FILE WAS UPDATED (scan.en.tmp) ****
----------------------
UHF SPIN CONTAMINATION
----------------------

Warning: in a DFT calculation there is little theoretical justification to 
         calculate <S**2> as in Hartree-Fock theory. We will do it anyways
         but you should keep in mind that the values have only limited relevance

Expectation value of <S**2>     :     8.866276
Ideal value S*(S+1) for S=2.5   :     8.750000
Deviation                       :     0.116276

             **** THE GBW FILE WAS UPDATED (scan.gbw) ****
             **** DENSITY scan.scfp WAS UPDATED ****
----------------
ORBITAL ENERGIES
----------------
                 SPIN UP ORBITALS
  NO   OCC          E(Eh)            E(eV) 
   0   1.0000    -235.008996     -6394.9199 
   1   1.0000     -27.176404      -739.5075 
   2   1.0000     -23.235741      -632.2767 
   3   1.0000     -23.222077      -631.9048 
   4   1.0000     -23.220571      -631.8638 
   5   1.0000      -4.117588      -112.0453 
   6   1.0000      -4.117556      -112.0444 
   7   1.0000      -4.117455      -112.0416 
   8   1.0000      -4.117419      -112.0407 
   9   1.0000      -4.117349      -112.0388 
  10   1.0000      -4.117319      -112.0380 
  11   1.0000      -4.117217      -112.0352 
  12   1.0000      -4.117184      -112.0343 
  13   1.0000      -4.109243      -111.8182 
  14   1.0000      -4.109134      -111.8152 
  15   1.0000      -3.180884       -86.5563 
  16   1.0000      -2.308737       -62.8239 
  17   1.0000      -2.308695       -62.8228 
  18   1.0000      -2.308404       -62.8149 
  19   1.0000      -2.308321       -62.8126 
  20   1.0000      -2.306232       -62.7558 
  21   1.0000      -2.306134       -62.7531 
  22   1.0000      -2.306069       -62.7513 
  23   1.0000      -2.306027       -62.7502 
  24   1.0000      -2.304786       -62.7164 
  25   1.0000      -2.304664       -62.7131 
  26   1.0000      -2.304545       -62.7099 
  27   1.0000      -2.304285       -62.7028 
  28   1.0000      -2.303356       -62.6775 
  29   1.0000      -2.303329       -62.6768 
  30   1.0000      -2.302806       -62.6625 
  31   1.0000      -2.302599       -62.6569 
  32   1.0000      -2.299722       -62.5786 
  33   1.0000      -2.299487       -62.5722 
  34   1.0000      -2.299262       -62.5661 
  35   1.0000      -2.299022       -62.5596 
  36   1.0000      -2.298763       -62.5525 
  37   1.0000      -2.298574       -62.5474 
  38   1.0000      -2.298318       -62.5404 
  39   1.0000      -2.298129       -62.5353 
  40   1.0000      -2.294856       -62.4462 
  41   1.0000      -2.294737       -62.4430 
  42   1.0000      -2.294631       -62.4401 
  43   1.0000      -2.294508       -62.4367 
  44   1.0000      -2.292458       -62.3810 
  45   1.0000      -2.292349       -62.3780 
  46   1.0000      -2.062563       -56.1252 
  47   1.0000      -2.030077       -55.2412 
  48   1.0000      -2.022302       -55.0296 
  49   1.0000      -0.419550       -11.4165 
  50   1.0000      -0.378279       -10.2935 
  51   1.0000      -0.377493       -10.2721 
  52   1.0000      -0.370887       -10.0923 
  53   1.0000      -0.367935       -10.0120 
  54   1.0000      -0.363476        -9.8907 
  55   1.0000      -0.362765        -9.8713 
  56   1.0000      -0.358616        -9.7584 
  57   1.0000      -0.356291        -9.6952 
  58   1.0000      -0.351912        -9.5760 
  59   1.0000      -0.350162        -9.5284 
  60   1.0000      -0.346895        -9.4395 
  61   1.0000      -0.345360        -9.3977 
  62   1.0000      -0.343436        -9.3454 
  63   1.0000      -0.338908        -9.2222 
  64   1.0000      -0.334101        -9.0913 
  65   1.0000      -0.332235        -9.0406 
  66   1.0000      -0.329258        -8.9596 
  67   1.0000      -0.323719        -8.8088 
  68   1.0000      -0.321612        -8.7515 
  69   1.0000      -0.320965        -8.7339 
  70   1.0000      -0.318774        -8.6743 
  71   1.0000      -0.318621        -8.6701 
  72   1.0000      -0.315933        -8.5970 
  73   1.0000      -0.315020        -8.5721 
  74   1.0000      -0.308509        -8.3949 
  75   1.0000      -0.307789        -8.3754 
  76   1.0000      -0.304436        -8.2841 
  77   1.0000      -0.301527        -8.2050 
  78   1.0000      -0.297189        -8.0869 
  79   1.0000      -0.294967        -8.0265 
  80   1.0000      -0.288450        -7.8491 
  81   1.0000      -0.281721        -7.6660 
  82   1.0000      -0.281687        -7.6651 
  83   1.0000      -0.281477        -7.6594 
  84   1.0000      -0.279715        -7.6114 
  85   1.0000      -0.278098        -7.5674 
  86   1.0000      -0.277207        -7.5432 
  87   1.0000      -0.276106        -7.5132 
  88   1.0000      -0.274155        -7.4601 
  89   1.0000      -0.271605        -7.3907 
  90   1.0000      -0.270691        -7.3659 
  91   1.0000      -0.267923        -7.2905 
  92   1.0000      -0.267140        -7.2692 
  93   1.0000      -0.265378        -7.2213 
  94   1.0000      -0.265264        -7.2182 
  95   1.0000      -0.265091        -7.2135 
  96   1.0000      -0.260826        -7.0974 
  97   1.0000      -0.259896        -7.0721 
  98   1.0000      -0.253804        -6.9064 
  99   1.0000      -0.251155        -6.8343 
 100   1.0000      -0.251128        -6.8335 
 101   1.0000      -0.243835        -6.6351 
 102   1.0000      -0.242991        -6.6121 
 103   1.0000      -0.231892        -6.3101 
 104   1.0000      -0.228447        -6.2164 
 105   1.0000      -0.224616        -6.1121 
 106   1.0000      -0.222830        -6.0635 
 107   1.0000      -0.212175        -5.7736 
 108   1.0000      -0.192644        -5.2421 
 109   1.0000      -0.177015        -4.8168 
 110   0.0000      -0.168103        -4.5743 
 111   0.0000      -0.158074        -4.3014 
 112   0.0000      -0.109826        -2.9885 
 113   0.0000      -0.107155        -2.9158 
 114   0.0000      -0.106750        -2.9048 
 115   0.0000      -0.075437        -2.0527 
 116   0.0000      -0.065261        -1.7759 
 117   0.0000      -0.048039        -1.3072 
 118   0.0000      -0.047484        -1.2921 
 119   0.0000      -0.046711        -1.2711 
 120   0.0000      -0.038708        -1.0533 
 121   0.0000      -0.006084        -0.1656 
 122   0.0000      -0.004633        -0.1261 
 123   0.0000       0.004039         0.1099 
 124   0.0000       0.026490         0.7208 
 125   0.0000       0.027411         0.7459 
 126   0.0000       0.031045         0.8448 
 127   0.0000       0.035543         0.9672 
 128   0.0000       0.053193         1.4475 
 129   0.0000       0.059832         1.6281 
 130   0.0000       0.060516         1.6467 
 131   0.0000       0.062067         1.6889 
 132   0.0000       0.062147         1.6911 
 133   0.0000       0.071614         1.9487 
 134   0.0000       0.081755         2.2247 
 135   0.0000       0.081959         2.2302 
 136   0.0000       0.087314         2.3759 
 137   0.0000       0.090225         2.4552 
 138   0.0000       0.104347         2.8394 
 139   0.0000       0.106653         2.9022 
 140   0.0000       0.113613         3.0916 
 141   0.0000       0.140418         3.8210 
 142   0.0000       0.146142         3.9767 
 143   0.0000       0.147208         4.0057 
 144   0.0000       0.153260         4.1704 
 145   0.0000       0.155912         4.2426 
 146   0.0000       0.159115         4.3298 
 147   0.0000       0.173532         4.7221 
 148   0.0000       0.184766         5.0277 
 149   0.0000       0.184877         5.0308 
 150   0.0000       0.188930         5.1410 
 151   0.0000       0.196639         5.3508 
 152   0.0000       0.204918         5.5761 
 153   0.0000       0.215991         5.8774 
 154   0.0000       0.225700         6.1416 
 155   0.0000       0.229216         6.2373 
 156   0.0000       0.229534         6.2459 
 157   0.0000       0.237837         6.4719 
 158   0.0000       0.243640         6.6298 
 159   0.0000       0.244222         6.6456 
 160   0.0000       0.251148         6.8341 
 161   0.0000       0.264212         7.1896 
 162   0.0000       0.273981         7.4554 
 163   0.0000       0.276398         7.5212 
 164   0.0000       0.283334         7.7099 
 165   0.0000       0.291938         7.9440 
 166   0.0000       0.296297         8.0626 
 167   0.0000       0.301565         8.2060 
 168   0.0000       0.303467         8.2578 
 169   0.0000       0.305084         8.3018 
 170   0.0000       0.312780         8.5112 
 171   0.0000       0.319112         8.6835 
 172   0.0000       0.323602         8.8056 
 173   0.0000       0.326955         8.8969 
 174   0.0000       0.332514         9.0482 
 175   0.0000       0.337370         9.1803 
 176   0.0000       0.338069         9.1993 
 177   0.0000       0.353654         9.6234 
 178   0.0000       0.363109         9.8807 
 179   0.0000       0.380677        10.3587 
 180   0.0000       0.381859        10.3909 
 181   0.0000       0.384640        10.4666 
 182   0.0000       0.390735        10.6324 
 183   0.0000       0.394380        10.7316 
 184   0.0000       0.395142        10.7524 
 185   0.0000       0.398877        10.8540 
 186   0.0000       0.400818        10.9068 
 187   0.0000       0.420453        11.4411 
 188   0.0000       0.426299        11.6002 
 189   0.0000       0.426391        11.6027 
 190   0.0000       0.430667        11.7191 
 191   0.0000       0.435659        11.8549 
 192   0.0000       0.440561        11.9883 
 193   0.0000       0.441978        12.0268 
 194   0.0000       0.444673        12.1002 
 195   0.0000       0.455554        12.3962 
 196   0.0000       0.477647        12.9974 
 197   0.0000       0.481694        13.1076 
 198   0.0000       0.498672        13.5695 
 199   0.0000       0.509308        13.8590 
 200   0.0000       0.511199        13.9104 
 201   0.0000       0.514828        14.0092 
 202   0.0000       0.515333        14.0229 
 203   0.0000       0.516067        14.0429 
 204   0.0000       0.522288        14.2122 
 205   0.0000       0.523162        14.2360 
 206   0.0000       0.535308        14.5665 
 207   0.0000       0.536662        14.6033 
 208   0.0000       0.537120        14.6158 
 209   0.0000       0.539884        14.6910 
 210   0.0000       0.556874        15.1533 
 211   0.0000       0.561275        15.2731 
 212   0.0000       0.566869        15.4253 
 213   0.0000       0.572782        15.5862 
 214   0.0000       0.641430        17.4542 
 215   0.0000       0.653680        17.7875 
 216   0.0000       0.673031        18.3141 
 217   0.0000       0.696036        18.9401 
 218   0.0000       0.710659        19.3380 
 219   0.0000       0.712071        19.3764 
 220   0.0000       0.718638        19.5551 
 221   0.0000       0.724234        19.7074 
 222   0.0000       0.729614        19.8538 
 223   0.0000       0.743709        20.2374 
 224   0.0000       0.757296        20.6071 
 225   0.0000       0.766295        20.8520 
 226   0.0000       0.773337        21.0436 
 227   0.0000       0.780884        21.2489 
 228   0.0000       0.800042        21.7702 
 229   0.0000       0.805282        21.9128 
 230   0.0000       0.805733        21.9251 
 231   0.0000       0.849557        23.1176 
 232   0.0000       0.855691        23.2845 
 233   0.0000       0.874360        23.7925 
 234   0.0000       0.883894        24.0520 
 235   0.0000       0.899791        24.4846 
 236   0.0000       0.901866        24.5410 
 237   0.0000       0.903816        24.5941 
 238   0.0000       0.921325        25.0705 
 239   0.0000       0.928374        25.2623 
 240   0.0000       0.966623        26.3031 
 241   0.0000       0.983340        26.7580 
 242   0.0000       1.012870        27.5616 
 243   0.0000       1.058818        28.8119 
 244   0.0000       1.063662        28.9437 
 245   0.0000       1.138611        30.9832 
 246   0.0000       1.236677        33.6517 
 247   0.0000       1.247013        33.9330 
 248   0.0000       1.276625        34.7387 
 249   0.0000       1.298341        35.3296 
 250   0.0000       1.313369        35.7386 
 251   0.0000       1.321004        35.9464 
 252   0.0000       1.341358        36.5002 
 253   0.0000       1.342158        36.5220 
 254   0.0000       1.343974        36.5714 
 255   0.0000       1.356443        36.9107 
 256   0.0000       1.367444        37.2100 
 257   0.0000       1.382984        37.6329 
 258   0.0000       1.391249        37.8578 
 259   0.0000       1.392876        37.9021 
 260   0.0000       1.396335        37.9962 
 261   0.0000       1.407436        38.2983 
 262   0.0000       1.410069        38.3699 
 263   0.0000       1.413450        38.4619 
 264   0.0000       1.424735        38.7690 
 265   0.0000       1.437172        39.1074 
 266   0.0000       1.448213        39.4079 
 267   0.0000       1.449645        39.4468 
 268   0.0000       1.455601        39.6089 
 269   0.0000       1.462274        39.7905 
 270   0.0000       1.475068        40.1386 
 271   0.0000       1.475357        40.1465 
 272   0.0000       1.478006        40.2186 
 273   0.0000       1.489501        40.5314 
 274   0.0000       1.500631        40.8343 
 275   0.0000       1.505414        40.9644 
 276   0.0000       1.507695        41.0265 
 277   0.0000       1.514638        41.2154 
 278   0.0000       1.518272        41.3143 
 279   0.0000       1.518929        41.3322 
 280   0.0000       1.524205        41.4757 
 281   0.0000       1.526766        41.5454 
 282   0.0000       1.528961        41.6052 
 283   0.0000       1.528983        41.6057 
 284   0.0000       1.532197        41.6932 
 285   0.0000       1.534800        41.7640 
 286   0.0000       1.538317        41.8597 
 287   0.0000       1.543800        42.0089 
 288   0.0000       1.546400        42.0797 
 289   0.0000       1.547776        42.1171 
 290   0.0000       1.548785        42.1446 
 291   0.0000       1.550425        42.1892 
 292   0.0000       1.550939        42.2032 
 293   0.0000       1.559264        42.4297 
 294   0.0000       1.559854        42.4458 
 295   0.0000       1.560999        42.4769 
 296   0.0000       1.561214        42.4828 
 297   0.0000       1.561787        42.4984 
 298   0.0000       1.563883        42.5554 
 299   0.0000       1.565074        42.5878 
 300   0.0000       1.566294        42.6210 
 301   0.0000       1.569142        42.6985 
 302   0.0000       1.572609        42.7929 
 303   0.0000       1.574545        42.8455 
 304   0.0000       1.574914        42.8556 
 305   0.0000       1.580539        43.0086 
 306   0.0000       1.582235        43.0548 
 307   0.0000       1.583085        43.0779 
 308   0.0000       1.583357        43.0853 
 309   0.0000       1.590910        43.2909 
 310   0.0000       1.592534        43.3351 
 311   0.0000       1.592624        43.3375 
 312   0.0000       1.596260        43.4365 
 313   0.0000       1.597393        43.4673 
 314   0.0000       1.598027        43.4845 
 315   0.0000       1.598284        43.4915 
 316   0.0000       1.599458        43.5235 
 317   0.0000       1.601275        43.5729 
 318   0.0000       1.608530        43.7703 
 319   0.0000       1.611083        43.8398 
 320   0.0000       1.613232        43.8983 
 321   0.0000       1.614761        43.9399 
 322   0.0000       1.616644        43.9911 
 323   0.0000       1.620462        44.0950 
 324   0.0000       1.628451        44.3124 
 325   0.0000       1.629338        44.3365 
 326   0.0000       1.634957        44.4894 
 327   0.0000       1.636773        44.5389 
 328   0.0000       1.638318        44.5809 
 329   0.0000       1.640901        44.6512 
 330   0.0000       1.642035        44.6821 
 331   0.0000       1.644886        44.7596 
 332   0.0000       1.647536        44.8317 
 333   0.0000       1.652152        44.9574 
 334   0.0000       1.652164        44.9577 
 335   0.0000       1.653393        44.9911 
 336   0.0000       1.654512        45.0216 
 337   0.0000       1.659026        45.1444 
 338   0.0000       1.668578        45.4043 
 339   0.0000       1.668630        45.4057 
 340   0.0000       1.676926        45.6315 
 341   0.0000       1.689459        45.9725 
 342   0.0000       1.691333        46.0235 
 343   0.0000       1.691751        46.0349 
 344   0.0000       1.698394        46.2157 
 345   0.0000       1.708853        46.5002 
 346   0.0000       1.712014        46.5863 
 347   0.0000       1.712168        46.5905 
 348   0.0000       1.716491        46.7081 
 349   0.0000       1.726479        46.9799 
 350   0.0000       1.771490        48.2047 
 351   0.0000       1.778189        48.3870 
 352   0.0000       1.789231        48.6874 
 353   0.0000       1.812182        49.3120 
 354   0.0000       1.826348        49.6975 
 355   0.0000       1.839947        50.0675 
 356   0.0000       1.845916        50.2299 
 357   0.0000       1.861865        50.6639 
 358   0.0000       1.878660        51.1209 
 359   0.0000       1.885167        51.2980 
 360   0.0000       1.895963        51.5918 
 361   0.0000       1.901752        51.7493 
 362   0.0000       1.948388        53.0183 
 363   0.0000       1.963469        53.4287 
 364   0.0000       1.992183        54.2101 
 365   0.0000       2.011540        54.7368 
 366   0.0000       2.017026        54.8861 
 367   0.0000       2.048247        55.7356 
 368   0.0000       2.051417        55.8219 
 369   0.0000       2.154312        58.6218 
 370   0.0000       2.228731        60.6469 
 371   0.0000       2.301871        62.6371 
 372   0.0000       2.306094        62.7520 
 373   0.0000       2.337502        63.6067 
 374   0.0000       2.353852        64.0516 
 375   0.0000       2.375279        64.6346 
 376   0.0000       2.459689        66.9315 
 377   0.0000       2.479111        67.4600 
 378   0.0000       2.553684        69.4893 
 379   0.0000       2.561074        69.6904 
 380   0.0000       2.565792        69.8188 
 381   0.0000       2.574779        70.0633 
 382   0.0000       3.188991        86.7768 
 383   0.0000       3.365335        91.5754 
 384   0.0000       3.369057        91.6767 
 385   0.0000       3.372916        91.7817 
 386   0.0000       3.396514        92.4238 
 387   0.0000       3.410619        92.8077 
 388   0.0000       3.414451        92.9119 
 389   0.0000       3.416210        92.9598 
 390   0.0000       3.426987        93.2531 
 391   0.0000       3.434679        93.4624 
 392   0.0000       3.550958        96.6265 
 393   0.0000       3.754762       102.1723 
 394   0.0000       3.813286       103.7648 
 395   0.0000      23.529383       640.2671 
 396   0.0000      23.598890       642.1585 
 397   0.0000      24.059062       654.6804 
 398   0.0000      24.396414       663.8602 
 399   0.0000      24.641990       670.5426 
 400   0.0000      24.842562       676.0005 
 401   0.0000      25.171906       684.9624 
 402   0.0000      25.398296       691.1228 
 403   0.0000      25.555847       695.4099 
 404   0.0000      25.682453       698.8551 
 405   0.0000      25.849165       703.3915 
 406   0.0000      26.200576       712.9539 
 407   0.0000      26.213520       713.3061 
 408   0.0000      26.309769       715.9252 
 409   0.0000      26.463331       720.1039 
 410   0.0000      26.561170       722.7662 
 411   0.0000      26.804155       729.3781 
 412   0.0000      26.841447       730.3929 
 413   0.0000      26.911319       732.2942 
 414   0.0000      27.150608       738.8056 
 415   0.0000      27.221072       740.7230 
 416   0.0000      27.319727       743.4076 
 417   0.0000      27.364358       744.6220 
 418   0.0000      27.619224       751.5573 
 419   0.0000      27.812814       756.8251 
 420   0.0000      27.843944       757.6722 
 421   0.0000      29.274520       796.6002 
 422   0.0000      30.197413       821.7134 
 423   0.0000      30.259116       823.3924 
 424   0.0000      31.339648       852.7952 
 425   0.0000      44.368781      1207.3359 
 426   0.0000      44.435298      1209.1459 
 427   0.0000      44.463295      1209.9078 
 428   0.0000      44.489138      1210.6110 
 429   0.0000      44.546742      1212.1785 
 430   0.0000      44.578150      1213.0331 
 431   0.0000      44.584481      1213.2054 
 432   0.0000      44.604718      1213.7561 
 433   0.0000      44.688341      1216.0316 
 434   0.0000      44.705297      1216.4930 
 435   0.0000     205.242928      5584.9440 
 436   0.0000     205.273157      5585.7666 
 437   0.0000     205.285087      5586.0912 
 438   0.0000     205.293899      5586.3310 
 439   0.0000     205.322005      5587.0958 
 440   0.0000     205.331384      5587.3510 
 441   0.0000     205.339815      5587.5804 
 442   0.0000     205.342518      5587.6540 
 443   0.0000     205.375457      5588.5503 
 444   0.0000     205.378944      5588.6452 

                 SPIN DOWN ORBITALS
  NO   OCC          E(Eh)            E(eV) 
   0   1.0000    -235.008208     -6394.8984 
   1   1.0000     -27.111943      -737.7535 
   2   1.0000     -23.178526      -630.7198 
   3   1.0000     -23.175960      -630.6499 
   4   1.0000     -23.175404      -630.6348 
   5   1.0000      -4.115221      -111.9808 
   6   1.0000      -4.115189      -111.9800 
   7   1.0000      -4.115089      -111.9773 
   8   1.0000      -4.115054      -111.9763 
   9   1.0000      -4.114981      -111.9743 
  10   1.0000      -4.114952      -111.9735 
  11   1.0000      -4.114850      -111.9708 
  12   1.0000      -4.114817      -111.9699 
  13   1.0000      -4.106866      -111.7535 
  14   1.0000      -4.106758      -111.7506 
  15   1.0000      -3.022637       -82.2501 
  16   1.0000      -2.305990       -62.7492 
  17   1.0000      -2.305967       -62.7485 
  18   1.0000      -2.305650       -62.7399 
  19   1.0000      -2.305573       -62.7378 
  20   1.0000      -2.303698       -62.6868 
  21   1.0000      -2.303580       -62.6836 
  22   1.0000      -2.303537       -62.6824 
  23   1.0000      -2.303481       -62.6809 
  24   1.0000      -2.302288       -62.6484 
  25   1.0000      -2.302139       -62.6444 
  26   1.0000      -2.302118       -62.6438 
  27   1.0000      -2.301839       -62.6362 
  28   1.0000      -2.300561       -62.6015 
  29   1.0000      -2.300527       -62.6005 
  30   1.0000      -2.300119       -62.5894 
  31   1.0000      -2.299900       -62.5835 
  32   1.0000      -2.297272       -62.5119 
  33   1.0000      -2.297054       -62.5060 
  34   1.0000      -2.296814       -62.4995 
  35   1.0000      -2.296598       -62.4936 
  36   1.0000      -2.296239       -62.4838 
  37   1.0000      -2.296064       -62.4791 
  38   1.0000      -2.295801       -62.4719 
  39   1.0000      -2.295628       -62.4672 
  40   1.0000      -2.291730       -62.3612 
  41   1.0000      -2.291610       -62.3579 
  42   1.0000      -2.291396       -62.3520 
  43   1.0000      -2.291282       -62.3490 
  44   1.0000      -2.290896       -62.3385 
  45   1.0000      -2.290785       -62.3354 
  46   1.0000      -1.886959       -51.3468 
  47   1.0000      -1.884790       -51.2877 
  48   1.0000      -1.874999       -51.0213 
  49   1.0000      -0.410075       -11.1587 
  50   1.0000      -0.373016       -10.1503 
  51   1.0000      -0.367635       -10.0039 
  52   1.0000      -0.366560        -9.9746 
  53   1.0000      -0.357432        -9.7262 
  54   1.0000      -0.355086        -9.6624 
  55   1.0000      -0.354887        -9.6570 
  56   1.0000      -0.353307        -9.6140 
  57   1.0000      -0.351686        -9.5699 
  58   1.0000      -0.345958        -9.4140 
  59   1.0000      -0.345756        -9.4085 
  60   1.0000      -0.340516        -9.2659 
  61   1.0000      -0.335497        -9.1293 
  62   1.0000      -0.334315        -9.0972 
  63   1.0000      -0.334143        -9.0925 
  64   1.0000      -0.330157        -8.9840 
  65   1.0000      -0.329539        -8.9672 
  66   1.0000      -0.319308        -8.6888 
  67   1.0000      -0.317213        -8.6318 
  68   1.0000      -0.316413        -8.6100 
  69   1.0000      -0.316021        -8.5994 
  70   1.0000      -0.315015        -8.5720 
  71   1.0000      -0.314082        -8.5466 
  72   1.0000      -0.308540        -8.3958 
  73   1.0000      -0.304447        -8.2844 
  74   1.0000      -0.303599        -8.2614 
  75   1.0000      -0.300538        -8.1781 
  76   1.0000      -0.300434        -8.1752 
  77   1.0000      -0.294863        -8.0236 
  78   1.0000      -0.294611        -8.0168 
  79   1.0000      -0.291342        -7.9278 
  80   1.0000      -0.284726        -7.7478 
  81   1.0000      -0.279040        -7.5931 
  82   1.0000      -0.278675        -7.5831 
  83   1.0000      -0.277642        -7.5550 
  84   1.0000      -0.277223        -7.5436 
  85   1.0000      -0.274866        -7.4795 
  86   1.0000      -0.273594        -7.4449 
  87   1.0000      -0.272812        -7.4236 
  88   1.0000      -0.268999        -7.3198 
  89   1.0000      -0.268437        -7.3045 
  90   1.0000      -0.267223        -7.2715 
  91   1.0000      -0.264363        -7.1937 
  92   1.0000      -0.263646        -7.1742 
  93   1.0000      -0.262369        -7.1394 
  94   1.0000      -0.261195        -7.1075 
  95   1.0000      -0.260701        -7.0940 
  96   1.0000      -0.255621        -6.9558 
  97   1.0000      -0.253982        -6.9112 
  98   1.0000      -0.248908        -6.7731 
  99   1.0000      -0.245783        -6.6881 
 100   1.0000      -0.245005        -6.6669 
 101   1.0000      -0.238705        -6.4955 
 102   1.0000      -0.226334        -6.1589 
 103   1.0000      -0.194649        -5.2967 
 104   1.0000      -0.141093        -3.8393 
 105   0.0000      -0.196065        -5.3352 
 106   0.0000      -0.188319        -5.1244 
 107   0.0000      -0.167982        -4.5710 
 108   0.0000      -0.102658        -2.7935 
 109   0.0000      -0.099221        -2.7000 
 110   0.0000      -0.098905        -2.6913 
 111   0.0000      -0.093617        -2.5474 
 112   0.0000      -0.090957        -2.4751 
 113   0.0000      -0.088090        -2.3970 
 114   0.0000      -0.082102        -2.2341 
 115   0.0000      -0.063899        -1.7388 
 116   0.0000      -0.057434        -1.5629 
 117   0.0000      -0.044269        -1.2046 
 118   0.0000      -0.040848        -1.1115 
 119   0.0000      -0.039431        -1.0730 
 120   0.0000      -0.033033        -0.8989 
 121   0.0000      -0.001872        -0.0509 
 122   0.0000       0.006700         0.1823 
 123   0.0000       0.007605         0.2069 
 124   0.0000       0.031802         0.8654 
 125   0.0000       0.033901         0.9225 
 126   0.0000       0.036400         0.9905 
 127   0.0000       0.049736         1.3534 
 128   0.0000       0.059789         1.6270 
 129   0.0000       0.062857         1.7104 
 130   0.0000       0.065228         1.7750 
 131   0.0000       0.065506         1.7825 
 132   0.0000       0.066675         1.8143 
 133   0.0000       0.074724         2.0333 
 134   0.0000       0.083643         2.2761 
 135   0.0000       0.084862         2.3092 
 136   0.0000       0.089134         2.4255 
 137   0.0000       0.091747         2.4966 
 138   0.0000       0.107447         2.9238 
 139   0.0000       0.110188         2.9984 
 140   0.0000       0.116605         3.1730 
 141   0.0000       0.142417         3.8754 
 142   0.0000       0.148952         4.0532 
 143   0.0000       0.151380         4.1193 
 144   0.0000       0.156510         4.2588 
 145   0.0000       0.161976         4.4076 
 146   0.0000       0.169660         4.6167 
 147   0.0000       0.178754         4.8641 
 148   0.0000       0.189192         5.1482 
 149   0.0000       0.191813         5.2195 
 150   0.0000       0.195337         5.3154 
 151   0.0000       0.205089         5.5808 
 152   0.0000       0.211877         5.7655 
 153   0.0000       0.217449         5.9171 
 154   0.0000       0.228772         6.2252 
 155   0.0000       0.229998         6.2586 
 156   0.0000       0.233614         6.3570 
 157   0.0000       0.245494         6.6802 
 158   0.0000       0.247777         6.7424 
 159   0.0000       0.250129         6.8064 
 160   0.0000       0.252889         6.8815 
 161   0.0000       0.265417         7.2224 
 162   0.0000       0.276077         7.5124 
 163   0.0000       0.286299         7.7906 
 164   0.0000       0.290666         7.9094 
 165   0.0000       0.294294         8.0081 
 166   0.0000       0.297183         8.0867 
 167   0.0000       0.303859         8.2684 
 168   0.0000       0.305739         8.3196 
 169   0.0000       0.306463         8.3393 
 170   0.0000       0.316462         8.6114 
 171   0.0000       0.321427         8.7465 
 172   0.0000       0.325698         8.8627 
 173   0.0000       0.330288         8.9876 
 174   0.0000       0.336736         9.1631 
 175   0.0000       0.340312         9.2604 
 176   0.0000       0.346312         9.4236 
 177   0.0000       0.356399         9.6981 
 178   0.0000       0.366645         9.9769 
 179   0.0000       0.383573        10.4376 
 180   0.0000       0.383876        10.4458 
 181   0.0000       0.386357        10.5133 
 182   0.0000       0.393415        10.7054 
 183   0.0000       0.397749        10.8233 
 184   0.0000       0.400859        10.9079 
 185   0.0000       0.401806        10.9337 
 186   0.0000       0.402814        10.9611 
 187   0.0000       0.423485        11.5236 
 188   0.0000       0.428664        11.6645 
 189   0.0000       0.429732        11.6936 
 190   0.0000       0.433846        11.8055 
 191   0.0000       0.440129        11.9765 
 192   0.0000       0.442485        12.0406 
 193   0.0000       0.443668        12.0728 
 194   0.0000       0.447194        12.1688 
 195   0.0000       0.457049        12.4369 
 196   0.0000       0.479038        13.0353 
 197   0.0000       0.483880        13.1670 
 198   0.0000       0.504242        13.7211 
 199   0.0000       0.514578        14.0024 
 200   0.0000       0.517775        14.0894 
 201   0.0000       0.518081        14.0977 
 202   0.0000       0.522303        14.2126 
 203   0.0000       0.522426        14.2159 
 204   0.0000       0.524260        14.2658 
 205   0.0000       0.525376        14.2962 
 206   0.0000       0.537231        14.6188 
 207   0.0000       0.540264        14.7013 
 208   0.0000       0.544276        14.8105 
 209   0.0000       0.544506        14.8168 
 210   0.0000       0.558617        15.2007 
 211   0.0000       0.566521        15.4158 
 212   0.0000       0.568184        15.4611 
 213   0.0000       0.575022        15.6471 
 214   0.0000       0.652906        17.7665 
 215   0.0000       0.657729        17.8977 
 216   0.0000       0.673533        18.3278 
 217   0.0000       0.700838        19.0708 
 218   0.0000       0.718098        19.5404 
 219   0.0000       0.723783        19.6951 
 220   0.0000       0.732212        19.9245 
 221   0.0000       0.737445        20.0669 
 222   0.0000       0.741325        20.1725 
 223   0.0000       0.752931        20.4883 
 224   0.0000       0.762125        20.7385 
 225   0.0000       0.776624        21.1330 
 226   0.0000       0.784764        21.3545 
 227   0.0000       0.801573        21.8119 
 228   0.0000       0.810601        22.0576 
 229   0.0000       0.810862        22.0647 
 230   0.0000       0.816230        22.2108 
 231   0.0000       0.853512        23.2252 
 232   0.0000       0.859210        23.3803 
 233   0.0000       0.877229        23.8706 
 234   0.0000       0.893685        24.3184 
 235   0.0000       0.910964        24.7886 
 236   0.0000       0.911240        24.7961 
 237   0.0000       0.914939        24.8968 
 238   0.0000       0.923564        25.1314 
 239   0.0000       0.931408        25.3449 
 240   0.0000       0.986053        26.8319 
 241   0.0000       0.990952        26.9652 
 242   0.0000       1.017963        27.7002 
 243   0.0000       1.082951        29.4686 
 244   0.0000       1.084524        29.5114 
 245   0.0000       1.148129        31.2422 
 246   0.0000       1.239433        33.7267 
 247   0.0000       1.248568        33.9753 
 248   0.0000       1.278793        34.7977 
 249   0.0000       1.299824        35.3700 
 250   0.0000       1.318177        35.8694 
 251   0.0000       1.322861        35.9969 
 252   0.0000       1.343181        36.5498 
 253   0.0000       1.344691        36.5909 
 254   0.0000       1.346513        36.6405 
 255   0.0000       1.359219        36.9862 
 256   0.0000       1.375007        37.4158 
 257   0.0000       1.386342        37.7243 
 258   0.0000       1.394727        37.9524 
 259   0.0000       1.394808        37.9547 
 260   0.0000       1.405426        38.2436 
 261   0.0000       1.412099        38.4252 
 262   0.0000       1.418173        38.5905 
 263   0.0000       1.419833        38.6356 
 264   0.0000       1.437445        39.1149 
 265   0.0000       1.439714        39.1766 
 266   0.0000       1.451356        39.4934 
 267   0.0000       1.454397        39.5761 
 268   0.0000       1.459823        39.7238 
 269   0.0000       1.466216        39.8978 
 270   0.0000       1.478510        40.2323 
 271   0.0000       1.482875        40.3511 
 272   0.0000       1.483347        40.3639 
 273   0.0000       1.493123        40.6299 
 274   0.0000       1.506989        41.0072 
 275   0.0000       1.510640        41.1066 
 276   0.0000       1.513517        41.1849 
 277   0.0000       1.518150        41.3110 
 278   0.0000       1.521712        41.4079 
 279   0.0000       1.523284        41.4507 
 280   0.0000       1.528180        41.5839 
 281   0.0000       1.530207        41.6390 
 282   0.0000       1.532199        41.6932 
 283   0.0000       1.532794        41.7095 
 284   0.0000       1.535499        41.7831 
 285   0.0000       1.537930        41.8492 
 286   0.0000       1.541950        41.9586 
 287   0.0000       1.547896        42.1204 
 288   0.0000       1.549937        42.1759 
 289   0.0000       1.551431        42.2166 
 290   0.0000       1.552484        42.2452 
 291   0.0000       1.554785        42.3079 
 292   0.0000       1.555266        42.3209 
 293   0.0000       1.561948        42.5028 
 294   0.0000       1.562401        42.5151 
 295   0.0000       1.563397        42.5422 
 296   0.0000       1.564193        42.5639 
 297   0.0000       1.566067        42.6148 
 298   0.0000       1.566924        42.6382 
 299   0.0000       1.568354        42.6771 
 300   0.0000       1.570390        42.7325 
 301   0.0000       1.572901        42.8008 
 302   0.0000       1.576980        42.9118 
 303   0.0000       1.578051        42.9410 
 304   0.0000       1.578105        42.9424 
 305   0.0000       1.583556        43.0908 
 306   0.0000       1.585406        43.1411 
 307   0.0000       1.588281        43.2193 
 308   0.0000       1.588353        43.2213 
 309   0.0000       1.594908        43.3997 
 310   0.0000       1.595512        43.4161 
 311   0.0000       1.596770        43.4503 
 312   0.0000       1.599279        43.5186 
 313   0.0000       1.601890        43.5896 
 314   0.0000       1.602569        43.6081 
 315   0.0000       1.603711        43.6392 
 316   0.0000       1.605542        43.6890 
 317   0.0000       1.610039        43.8114 
 318   0.0000       1.613293        43.8999 
 319   0.0000       1.614248        43.9259 
 320   0.0000       1.616316        43.9822 
 321   0.0000       1.616832        43.9962 
 322   0.0000       1.620470        44.0952 
 323   0.0000       1.624247        44.1980 
 324   0.0000       1.631508        44.3956 
 325   0.0000       1.638526        44.5866 
 326   0.0000       1.639333        44.6085 
 327   0.0000       1.643277        44.7158 
 328   0.0000       1.644155        44.7397 
 329   0.0000       1.644379        44.7458 
 330   0.0000       1.646294        44.7979 
 331   0.0000       1.646996        44.8170 
 332   0.0000       1.653416        44.9917 
 333   0.0000       1.655179        45.0397 
 334   0.0000       1.655428        45.0465 
 335   0.0000       1.655740        45.0550 
 336   0.0000       1.660981        45.1976 
 337   0.0000       1.661822        45.2205 
 338   0.0000       1.670905        45.4676 
 339   0.0000       1.678822        45.6831 
 340   0.0000       1.679723        45.7076 
 341   0.0000       1.691717        46.0340 
 342   0.0000       1.695005        46.1234 
 343   0.0000       1.699839        46.2550 
 344   0.0000       1.701035        46.2875 
 345   0.0000       1.715194        46.6728 
 346   0.0000       1.715304        46.6758 
 347   0.0000       1.715383        46.6779 
 348   0.0000       1.719055        46.7779 
 349   0.0000       1.733617        47.1741 
 350   0.0000       1.780039        48.4373 
 351   0.0000       1.781093        48.4660 
 352   0.0000       1.801290        49.0156 
 353   0.0000       1.816032        49.4167 
 354   0.0000       1.828949        49.7682 
 355   0.0000       1.848103        50.2894 
 356   0.0000       1.849020        50.3144 
 357   0.0000       1.864588        50.7380 
 358   0.0000       1.880669        51.1756 
 359   0.0000       1.887421        51.3593 
 360   0.0000       1.914119        52.0858 
 361   0.0000       1.914593        52.0987 
 362   0.0000       1.953764        53.1646 
 363   0.0000       1.968395        53.5627 
 364   0.0000       1.994317        54.2681 
 365   0.0000       2.042618        55.5825 
 366   0.0000       2.043327        55.6018 
 367   0.0000       2.055940        55.9450 
 368   0.0000       2.099484        57.1299 
 369   0.0000       2.160387        58.7871 
 370   0.0000       2.232480        60.7489 
 371   0.0000       2.314017        62.9676 
 372   0.0000       2.325935        63.2919 
 373   0.0000       2.379427        64.7475 
 374   0.0000       2.387590        64.9696 
 375   0.0000       2.388191        64.9860 
 376   0.0000       2.462459        67.0069 
 377   0.0000       2.483346        67.5753 
 378   0.0000       2.558668        69.6249 
 379   0.0000       2.568540        69.8935 
 380   0.0000       2.579996        70.2053 
 381   0.0000       2.580638        70.2227 
 382   0.0000       3.272091        89.0381 
 383   0.0000       3.493866        95.0729 
 384   0.0000       3.494123        95.0799 
 385   0.0000       3.514415        95.6321 
 386   0.0000       3.518814        95.7518 
 387   0.0000       3.523609        95.8823 
 388   0.0000       3.529588        96.0450 
 389   0.0000       3.533669        96.1560 
 390   0.0000       3.564991        97.0083 
 391   0.0000       3.586515        97.5940 
 392   0.0000       3.669830        99.8612 
 393   0.0000       3.868169       105.2582 
 394   0.0000       3.917068       106.5888 
 395   0.0000      23.531194       640.3163 
 396   0.0000      23.600735       642.2086 
 397   0.0000      24.060175       654.7106 
 398   0.0000      24.397558       663.8913 
 399   0.0000      24.643114       670.5732 
 400   0.0000      24.843463       676.0250 
 401   0.0000      25.173046       684.9934 
 402   0.0000      25.399824       691.1644 
 403   0.0000      25.557061       695.4430 
 404   0.0000      25.684239       698.9037 
 405   0.0000      25.850440       703.4262 
 406   0.0000      26.202587       713.0087 
 407   0.0000      26.217226       713.4070 
[...]
      f+2     :    -0.000013
      f-2     :     0.000079
      f+3     :     0.000010
      f-3     :     0.000042
  8 Aus       :    -0.064565  s :    -0.064565
      pz      :    -0.006007  p :    -0.009151
      px      :    -0.001456
      py      :    -0.001688
      dz2     :     0.011988  d :     0.033728
      dxz     :     0.007141
      dyz     :     0.002159
      dx2y2   :     0.010452
      dxy     :     0.001989
      f0      :     0.000083  f :     0.000277
      f+1     :     0.000045
      f-1     :     0.000029
      f+2     :    -0.000014
      f-2     :     0.000079
      f+3     :     0.000011
      f-3     :     0.000043
  9 Aus       :     0.083569  s :     0.083569
      pz      :    -0.003402  p :     0.012039
      px      :     0.009850
      py      :     0.005591
      dz2     :     0.005500  d :     0.058658
      dxz     :     0.037507
      dyz     :     0.014611
      dx2y2   :    -0.000305
      dxy     :     0.001345
      f0      :     0.000047  f :     0.000079
      f+1     :    -0.000001
      f-1     :     0.000000
      f+2     :    -0.000009
      f-2     :     0.000005
      f+3     :     0.000018
      f-3     :     0.000019
 10 Mns       :    -0.026633  s :    -0.026633
      pz      :     0.031377  p :     0.077264
      px      :     0.025209
      py      :     0.020678
      dz2     :     0.851499  d :     2.957304
      dxz     :     0.690239
      dyz     :     0.819805
      dx2y2   :     0.063567
      dxy     :     0.532194
      f0      :     0.000029  f :     0.000128
      f+1     :     0.000022
      f-1     :     0.000026
      f+2     :     0.000007
      f-2     :     0.000028
      f+3     :    -0.000002
      f-3     :     0.000016


                     *******************************
                     * LOEWDIN POPULATION ANALYSIS *
                     *******************************

-------------------------------------------
LOEWDIN ATOMIC CHARGES AND SPIN POPULATIONS
-------------------------------------------
   0 Au:    0.013457    0.126761
   1 Au:    0.088450   -0.028216
   2 Au:    0.088369   -0.028251
   3 Au:    0.088432   -0.028068
   4 Au:    0.088416   -0.028225
   5 Au:    0.088438   -0.028224
   6 Au:    0.088357   -0.028271
   7 Au:    0.088437   -0.028068
   8 Au:    0.088417   -0.028232
   9 Au:    0.013419    0.126745
  10 Mn:   -0.734192    2.972051

----------------------------------------------------
LOEWDIN REDUCED ORBITAL CHARGES AND SPIN POPULATIONS
----------------------------------------------------
CHARGE
  0 Aus       :     2.783471  s :     2.783471
      pz      :     2.129532  p :     6.354081
      px      :     2.118702
      py      :     2.105846
      dz2     :     1.975564  d :     9.844897
      dxz     :     1.948450
      dyz     :     1.972544
      dx2y2   :     1.989255
      dxy     :     1.959085
      f0      :     0.000489  f :     0.004094
      f+1     :     0.000718
      f-1     :     0.000543
      f+2     :     0.000448
      f-2     :     0.001190
      f+3     :     0.000310
      f-3     :     0.000396
  1 Aus       :     2.596819  s :     2.596819
      pz      :     2.188307  p :     6.437852
      px      :     2.109120
      py      :     2.140425
      dz2     :     1.973544  d :     9.871863
      dxz     :     1.966348
      dyz     :     1.973401
      dx2y2   :     1.987501
      dxy     :     1.971068
      f0      :     0.001138  f :     0.005017
      f+1     :     0.000722
      f-1     :     0.000846
      f+2     :     0.000500
      f-2     :     0.000673
      f+3     :     0.000471
      f-3     :     0.000668
  2 Aus       :     2.596857  s :     2.596857
      pz      :     2.188798  p :     6.437834
      px      :     2.108996
      py      :     2.140040
      dz2     :     1.973137  d :     9.871923
      dxz     :     1.966391
      dyz     :     1.973946
      dx2y2   :     1.987410
      dxy     :     1.971039
      f0      :     0.001137  f :     0.005017
      f+1     :     0.000730
      f-1     :     0.000841
      f+2     :     0.000499
      f-2     :     0.000670
      f+3     :     0.000470
      f-3     :     0.000669
  3 Aus       :     2.596780  s :     2.596780
      pz      :     2.188016  p :     6.437889
      px      :     2.109560
      py      :     2.140314
      dz2     :     1.973659  d :     9.871882
      dxz     :     1.965924
      dyz     :     1.973697
      dx2y2   :     1.987209
      dxy     :     1.971394
      f0      :     0.001140  f :     0.005017
      f+1     :     0.000727
      f-1     :     0.000838
      f+2     :     0.000502
      f-2     :     0.000672
      f+3     :     0.000469
      f-3     :     0.000670
  4 Aus       :     2.596833  s :     2.596833
      pz      :     2.188513  p :     6.437851
      px      :     2.108584
      py      :     2.140754
      dz2     :     1.973304  d :     9.871883
      dxz     :     1.966560
      dyz     :     1.973593
      dx2y2   :     1.987461
      dxy     :     1.970964
      f0      :     0.001138  f :     0.005018
      f+1     :     0.000723
      f-1     :     0.000846
      f+2     :     0.000498
      f-2     :     0.000673
      f+3     :     0.000472
      f-3     :     0.000667
  5 Aus       :     2.596820  s :     2.596820
      pz      :     2.188302  p :     6.437856
      px      :     2.109119
      py      :     2.140434
      dz2     :     1.973539  d :     9.871869
      dxz     :     1.966360
      dyz     :     1.973403
      dx2y2   :     1.987503
      dxy     :     1.971064
      f0      :     0.001138  f :     0.005017
      f+1     :     0.000722
      f-1     :     0.000846
      f+2     :     0.000500
      f-2     :     0.000673
      f+3     :     0.000471
      f-3     :     0.000668
  6 Aus       :     2.596861  s :     2.596861
      pz      :     2.188787  p :     6.437829
      px      :     2.108994
      py      :     2.140048
      dz2     :     1.973138  d :     9.871936
      dxz     :     1.966403
      dyz     :     1.973948
      dx2y2   :     1.987411
      dxy     :     1.971036
      f0      :     0.001137  f :     0.005016
      f+1     :     0.000730
      f-1     :     0.000840
      f+2     :     0.000499
      f-2     :     0.000670
      f+3     :     0.000470
      f-3     :     0.000670
  7 Aus       :     2.596808  s :     2.596808
      pz      :     2.188009  p :     6.437857
      px      :     2.109534
      py      :     2.140314
      dz2     :     1.973648  d :     9.871879
      dxz     :     1.965928
      dyz     :     1.973706
      dx2y2   :     1.987205
      dxy     :     1.971393
      f0      :     0.001140  f :     0.005018
      f+1     :     0.000727
      f-1     :     0.000838
      f+2     :     0.000502
      f-2     :     0.000672
      f+3     :     0.000468
      f-3     :     0.000670
  8 Aus       :     2.596861  s :     2.596861
      pz      :     2.188504  p :     6.437819
      px      :     2.108560
      py      :     2.140755
      dz2     :     1.973300  d :     9.871885
      dxz     :     1.966562
      dyz     :     1.973601
      dx2y2   :     1.987456
      dxy     :     1.970965
      f0      :     0.001138  f :     0.005017
      f+1     :     0.000723
      f-1     :     0.000846
      f+2     :     0.000498
      f-2     :     0.000673
      f+3     :     0.000472
      f-3     :     0.000667
  9 Aus       :     2.783461  s :     2.783461
      pz      :     2.129529  p :     6.354109
      px      :     2.118733
      py      :     2.105847
      dz2     :     1.975549  d :     9.844918
      dxz     :     1.948471
      dyz     :     1.972552
      dx2y2   :     1.989255
      dxy     :     1.959090
      f0      :     0.000489  f :     0.004094
      f+1     :     0.000718
      f-1     :     0.000543
      f+2     :     0.000448
      f-2     :     0.001190
      f+3     :     0.000310
      f-3     :     0.000396
 10 Mns       :     6.286617  s :     6.286617
      pz      :     4.186706  p :    12.635566
      px      :     4.236790
      py      :     4.212071
      dz2     :     1.355130  d :     6.810537
      dxz     :     1.148505
      dyz     :     1.176643
      dx2y2   :     1.896557
      dxy     :     1.233702
      f0      :     0.000239  f :     0.001472
      f+1     :     0.000146
      f-1     :     0.000118
      f+2     :     0.000137
      f-2     :     0.000428
      f+3     :     0.000177
      f-3     :     0.000227

SPIN
  0 Aus       :     0.032101  s :     0.032101
      pz      :     0.012009  p :     0.036835
      px      :     0.017438
      py      :     0.007388
      dz2     :     0.007640  d :     0.057694
      dxz     :     0.039143
      dyz     :     0.015524
      dx2y2   :    -0.002128
      dxy     :    -0.002485
      f0      :     0.000068  f :     0.000132
      f+1     :     0.000001
      f-1     :     0.000001
      f+2     :    -0.000009
      f-2     :    -0.000008
      f+3     :     0.000038
      f-3     :     0.000040
  1 Aus       :    -0.038804  s :    -0.038804
      pz      :     0.000185  p :    -0.026183
      px      :    -0.010940
      py      :    -0.015429
      dz2     :     0.011029  d :     0.036249
      dxz     :     0.007508
      dyz     :     0.002239
      dx2y2   :     0.011651
      dxy     :     0.003822
      f0      :     0.000160  f :     0.000522
      f+1     :     0.000077
      f-1     :     0.000055
      f+2     :    -0.000023
      f-2     :     0.000151
      f+3     :     0.000025
      f-3     :     0.000078
  2 Aus       :    -0.038916  s :    -0.038916
      pz      :     0.000267  p :    -0.026080
      px      :    -0.011361
      py      :    -0.014987
      dz2     :     0.011137  d :     0.036223
      dxz     :     0.007418
      dyz     :     0.002227
      dx2y2   :     0.011548
      dxy     :     0.003892
      f0      :     0.000160  f :     0.000522
      f+1     :     0.000079
      f-1     :     0.000053
      f+2     :    -0.000022
      f-2     :     0.000148
      f+3     :     0.000023
      f-3     :     0.000081
  3 Aus       :    -0.038810  s :    -0.038810
      pz      :     0.000207  p :    -0.026087
      px      :    -0.011329
      py      :    -0.014965
      dz2     :     0.011007  d :     0.036306
      dxz     :     0.007529
      dyz     :     0.002241
      dx2y2   :     0.011702
      dxy     :     0.003828
      f0      :     0.000160  f :     0.000522
      f+1     :     0.000079
      f-1     :     0.000054
      f+2     :    -0.000022
      f-2     :     0.000150
      f+3     :     0.000023
      f-3     :     0.000079
  4 Aus       :    -0.038911  s :    -0.038911
      pz      :     0.000285  p :    -0.026088
      px      :    -0.010937
      py      :    -0.015436
      dz2     :     0.011117  d :     0.036252
      dxz     :     0.007465
      dyz     :     0.002191
      dx2y2   :     0.011649
      dxy     :     0.003830
      f0      :     0.000160  f :     0.000522
      f+1     :     0.000077
      f-1     :     0.000054
      f+2     :    -0.000023
      f-2     :     0.000150
      f+3     :     0.000024
      f-3     :     0.000079
  5 Aus       :    -0.038810  s :    -0.038810
      pz      :     0.000187  p :    -0.026182
      px      :    -0.010942
      py      :    -0.015427
      dz2     :     0.011030  d :     0.036246
      dxz     :     0.007504
      dyz     :     0.002238
      dx2y2   :     0.011650
      dxy     :     0.003823
      f0      :     0.000160  f :     0.000522
      f+1     :     0.000077
      f-1     :     0.000055
      f+2     :    -0.000023
      f-2     :     0.000151
      f+3     :     0.000025
      f-3     :     0.000078
  6 Aus       :    -0.038929  s :    -0.038929
      pz      :     0.000268  p :    -0.026080
      px      :    -0.011362
      py      :    -0.014986
      dz2     :     0.011135  d :     0.036216
      dxz     :     0.007415
      dyz     :     0.002226
      dx2y2   :     0.011547
      dxy     :     0.003893
      f0      :     0.000160  f :     0.000522
      f+1     :     0.000079
      f-1     :     0.000053
      f+2     :    -0.000022
      f-2     :     0.000148
      f+3     :     0.000023
      f-3     :     0.000081
  7 Aus       :    -0.038811  s :    -0.038811
      pz      :     0.000211  p :    -0.026085
      px      :    -0.011326
      py      :    -0.014969
      dz2     :     0.011013  d :     0.036306
      dxz     :     0.007528
      dyz     :     0.002237
      dx2y2   :     0.011699
      dxy     :     0.003828
      f0      :     0.000160  f :     0.000522
      f+1     :     0.000079
      f-1     :     0.000054
      f+2     :    -0.000022
      f-2     :     0.000150
      f+3     :     0.000023
      f-3     :     0.000079
  8 Aus       :    -0.038915  s :    -0.038915
      pz      :     0.000287  p :    -0.026088
      px      :    -0.010933
      py      :    -0.015442
      dz2     :     0.011119  d :     0.036248
      dxz     :     0.007464
      dyz     :     0.002188
      dx2y2   :     0.011647
      dxy     :     0.003830
      f0      :     0.000160  f :     0.000522
      f+1     :     0.000077
      f-1     :     0.000054
      f+2     :    -0.000023
      f-2     :     0.000150
      f+3     :     0.000024
      f-3     :     0.000079
  9 Aus       :     0.032087  s :     0.032087
      pz      :     0.012010  p :     0.036839
      px      :     0.017439
      py      :     0.007391
      dz2     :     0.007646  d :     0.057687
      dxz     :     0.039132
      dyz     :     0.015523
      dx2y2   :    -0.002128
      dxy     :    -0.002487
      f0      :     0.000068  f :     0.000132
      f+1     :     0.000001
      f-1     :     0.000001
      f+2     :    -0.000009
      f-2     :    -0.000008
      f+3     :     0.000038
      f-3     :     0.000040
 10 Mns       :     0.017801  s :     0.017801
      pz      :     0.011948  p :     0.033034
      px      :     0.010930
      py      :     0.010155
      dz2     :     0.876303  d :     2.921117
      dxz     :     0.673474
      dyz     :     0.800986
      dx2y2   :     0.114101
      dxy     :     0.456253
      f0      :     0.000024  f :     0.000099
      f+1     :     0.000020
      f-1     :     0.000024
      f+2     :     0.000005
      f-2     :     0.000019
      f+3     :    -0.000004
      f-3     :     0.000012


                      *****************************
                      * MAYER POPULATION ANALYSIS *
                      *****************************

  NA   - Mulliken gross atomic population
  ZA   - Total nuclear charge
  QA   - Mulliken gross atomic charge
  VA   - Mayer's total valence
  BVA  - Mayer's bonded valence
  FA   - Mayer's free valence

  ATOM       NA         ZA         QA         VA         BVA        FA
  0 Au    18.8793    19.0000     0.1207     1.4002     1.3893     0.0109
  1 Au    18.7536    19.0000     0.2464     1.5931     1.5765     0.0166
  2 Au    18.7538    19.0000     0.2462     1.5929     1.5763     0.0166
  3 Au    18.7536    19.0000     0.2464     1.5931     1.5766     0.0165
  4 Au    18.7537    19.0000     0.2463     1.5930     1.5764     0.0166
  5 Au    18.7537    19.0000     0.2463     1.5931     1.5765     0.0166
  6 Au    18.7538    19.0000     0.2462     1.5928     1.5763     0.0166
  7 Au    18.7536    19.0000     0.2464     1.5931     1.5765     0.0165
  8 Au    18.7537    19.0000     0.2463     1.5930     1.5764     0.0166
  9 Au    18.8793    19.0000     0.1207     1.4001     1.3892     0.0109
 10 Mn    27.2119    25.0000    -2.2119     7.8483     5.4457     2.4026

  Mayer bond orders larger than 0.100000
B(  0-Au,  1-Au) :   0.1754 B(  0-Au,  2-Au) :   0.1751 B(  0-Au,  3-Au) :   0.1755 
B(  0-Au,  4-Au) :   0.1752 B(  0-Au,  9-Au) :   0.1675 B(  0-Au, 10-Mn) :   0.3595 
B(  1-Au,  3-Au) :   0.1141 B(  1-Au,  8-Au) :   0.4427 B(  1-Au, 10-Mn) :   0.5909 
B(  2-Au,  4-Au) :   0.1143 B(  2-Au,  7-Au) :   0.4428 B(  2-Au, 10-Mn) :   0.5908 
B(  3-Au,  6-Au) :   0.4428 B(  3-Au, 10-Mn) :   0.5908 B(  4-Au,  5-Au) :   0.4427 
B(  4-Au, 10-Mn) :   0.5908 B(  5-Au,  7-Au) :   0.1142 B(  5-Au,  9-Au) :   0.1753 
B(  5-Au, 10-Mn) :   0.5909 B(  6-Au,  8-Au) :   0.1144 B(  6-Au,  9-Au) :   0.1750 
B(  6-Au, 10-Mn) :   0.5908 B(  7-Au,  9-Au) :   0.1754 B(  7-Au, 10-Mn) :   0.5908 
B(  8-Au,  9-Au) :   0.1751 B(  8-Au, 10-Mn) :   0.5908 B(  9-Au, 10-Mn) :   0.3596 


-------
TIMINGS
-------

Total SCF time: 0 days 0 hours 3 min 13 sec 

Total time                  ....     193.944 sec
Sum of individual times     ....     191.908 sec  ( 99.0%)

Fock matrix formation       ....     182.941 sec  ( 94.3%)
  Split-RI-J                ....      31.870 sec  ( 17.4% of F)
  XC integration            ....     150.300 sec  ( 82.2% of F)
    Basis function eval.    ....       7.361 sec  (  4.9% of XC)
    Density eval.           ....      56.242 sec  ( 37.4% of XC)
    XC-Functional eval.     ....       4.607 sec  (  3.1% of XC)
    XC-Potential eval.      ....      42.944 sec  ( 28.6% of XC)
Diagonalization             ....       6.192 sec  (  3.2%)
Density matrix formation    ....       0.286 sec  (  0.1%)
Population analysis         ....       0.177 sec  (  0.1%)
Initial guess               ....       0.288 sec  (  0.1%)
Orbital Transformation      ....       0.000 sec  (  0.0%)
Orbital Orthonormalization  ....       0.253 sec  (  0.1%)
DIIS solution               ....       0.000 sec  (  0.0%)
Grid generation             ....       2.022 sec  (  1.0%)

Maximum memory used throughout the entire SCF-calculation: 65.2 MB

-------------------------   --------------------
FINAL SINGLE POINT ENERGY     -2509.347096094821
-------------------------   --------------------


                            ***************************************
                            *     ORCA property calculations      *
                            ***************************************

                                    ---------------------
                                    Active property flags
                                    ---------------------
   (+) Dipole Moment


------------------------------------------------------------------------------
                       ORCA ELECTRIC PROPERTIES CALCULATION
------------------------------------------------------------------------------

Dipole Moment Calculation                       ... on
Quadrupole Moment Calculation                   ... off
Polarizability Calculation                      ... off
GBWName                                         ... scan_job2.gbw
Electron density                                ... scan_job2.scfp
The origin for moment calculation is the CENTER OF MASS  = (15.554966, 16.968586 14.370043)

-------------
DIPOLE MOMENT
-------------
                                X             Y             Z
Electronic contribution:     -0.00021       0.00194       0.00380
Nuclear contribution   :      0.00018      -0.00193      -0.00334
                        -----------------------------------------
Total Dipole Moment    :     -0.00002       0.00001       0.00046
                        -----------------------------------------
Magnitude (a.u.)       :      0.00046
Magnitude (Debye)      :      0.00118



--------------------
Rotational spectrum 
--------------------
 
Rotational constants in cm-1:     0.002151     0.001696     0.001502 
Rotational constants in MHz :    64.487260    50.832463    45.019299 

 Dipole components along the rotational axes: 
x,y,z [a.u.] :     0.000464    -0.000023     0.000010 
x,y,z [Debye]:     0.001178    -0.000058     0.000025 

 

Timings for individual modules:

Sum of individual times         ...      203.723 sec (=   3.395 min)
GTO integral calculation        ...        9.534 sec (=   0.159 min)   4.7 %
SCF iterations                  ...      194.188 sec (=   3.236 min)  95.3 %



                             ****ORCA TERMINATED NORMALLY****
TOTAL RUN TIME: 0 days 0 hours 7 minutes 27 seconds 253 msec
