
                                 *****************
                                 * O   R   C   A *
                                 *****************

                                            #,                                       
                                            ###                                      
                                            ####                                     
                                            #####                                    
                                            ######                                   
                                           ########,                                 
                                     ,,################,,,,,                         
                               ,,#################################,,                 
                          ,,##########################################,,             
                       ,#########################################, ''#####,          
                    ,#############################################,,   '####,        
                  ,##################################################,,,,####,       
                ,###########''''           ''''###############################       
              ,#####''   ,,,,##########,,,,          '''####'''          '####       
            ,##' ,,,,###########################,,,                        '##       
           ' ,,###''''                  '''############,,,                           
         ,,##''                                '''############,,,,        ,,,,,,###''
      ,#''                                            '''#######################'''  
     '                                                          ''''####''''         
             ,#######,   #######,   ,#######,      ##                                
            ,#'     '#,  ##    ##  ,#'     '#,    #''#        ######   ,####,        
            ##       ##  ##   ,#'  ##            #'  '#       #        #'  '#        
            ##       ##  #######   ##           ,######,      #####,   #    #        
            '#,     ,#'  ##    ##  '#,     ,#' ,#      #,         ##   #,  ,#        
             '#######'   ##     ##  '#######'  #'      '#     #####' # '####'        



                  #######################################################
                  #                        -***-                        #
                  #          Department of theory and spectroscopy      #
                  #    Directorship and core code : Frank Neese         #
                  #        Max Planck Institute fuer Kohlenforschung    #
                  #                Kaiser Wilhelm Platz 1               #
                  #                 D-45470 Muelheim/Ruhr               #
                  #                      Germany                        #
                  #                                                     #
                  #                  All rights reserved                #
                  #                        -***-                        #
                  #######################################################


                         Program Version 5.0.3 -  RELEASE  -


 With contributions from (in alphabetic order):
   Daniel Aravena         : Magnetic Suceptibility
   Michael Atanasov       : Ab Initio Ligand Field Theory (pilot matlab implementation)
   Alexander A. Auer      : GIAO ZORA, VPT2 properties, NMR spectrum
   Ute Becker             : Parallelization
   Giovanni Bistoni       : ED, misc. LED, open-shell LED, HFLD
   Martin Brehm           : Molecular dynamics
   Dmytro Bykov           : SCF Hessian
   Vijay G. Chilkuri      : MRCI spin determinant printing, contributions to CSF-ICE
   Dipayan Datta          : RHF DLPNO-CCSD density
   Achintya Kumar Dutta   : EOM-CC, STEOM-CC
   Dmitry Ganyushin       : Spin-Orbit,Spin-Spin,Magnetic field MRCI
   Miquel Garcia          : C-PCM and meta-GGA Hessian, CC/C-PCM, Gaussian charge scheme
   Yang Guo               : DLPNO-NEVPT2, F12-NEVPT2, CIM, IAO-localization
   Andreas Hansen         : Spin unrestricted coupled pair/coupled cluster methods
   Benjamin Helmich-Paris : MC-RPA, TRAH-SCF, COSX integrals
   Lee Huntington         : MR-EOM, pCC
   Robert Izsak           : Overlap fitted RIJCOSX, COSX-SCS-MP3, EOM
   Marcus Kettner         : VPT2
   Christian Kollmar      : KDIIS, OOCD, Brueckner-CCSD(T), CCSD density, CASPT2, CASPT2-K
   Simone Kossmann        : Meta GGA functionals, TD-DFT gradient, OOMP2, MP2 Hessian
   Martin Krupicka        : Initial AUTO-CI
   Lucas Lang             : DCDCAS
   Marvin Lechner         : AUTO-CI (C++ implementation), FIC-MRCC
   Dagmar Lenk            : GEPOL surface, SMD
   Dimitrios Liakos       : Extrapolation schemes; Compound Job, initial MDCI parallelization
   Dimitrios Manganas     : Further ROCIS development; embedding schemes
   Dimitrios Pantazis     : SARC Basis sets
   Anastasios Papadopoulos: AUTO-CI, single reference methods and gradients
   Taras Petrenko         : DFT Hessian,TD-DFT gradient, ASA, ECA, R-Raman, ABS, FL, XAS/XES, NRVS
   Peter Pinski           : DLPNO-MP2, DLPNO-MP2 Gradient
   Christoph Reimann      : Effective Core Potentials
   Marius Retegan         : Local ZFS, SOC
   Christoph Riplinger    : Optimizer, TS searches, QM/MM, DLPNO-CCSD(T), (RO)-DLPNO pert. Triples
   Tobias Risthaus        : Range-separated hybrids, TD-DFT gradient, RPA, STAB
   Michael Roemelt        : Original ROCIS implementation
   Masaaki Saitow         : Open-shell DLPNO-CCSD energy and density
   Barbara Sandhoefer     : DKH picture change effects
   Avijit Sen             : IP-ROCIS
   Kantharuban Sivalingam : CASSCF convergence, NEVPT2, FIC-MRCI
   Bernardo de Souza      : ESD, SOC TD-DFT
   Georgi Stoychev        : AutoAux, RI-MP2 NMR, DLPNO-MP2 response
   Willem Van den Heuvel  : Paramagnetic NMR
   Boris Wezisla          : Elementary symmetry handling
   Frank Wennmohs         : Technical directorship


 We gratefully acknowledge several colleagues who have allowed us to
 interface, adapt or use parts of their codes:
   Stefan Grimme, W. Hujo, H. Kruse, P. Pracht,  : VdW corrections, initial TS optimization,
                  C. Bannwarth, S. Ehlert          DFT functionals, gCP, sTDA/sTD-DF
   Ed Valeev, F. Pavosevic, A. Kumar             : LibInt (2-el integral package), F12 methods
   Garnet Chan, S. Sharma, J. Yang, R. Olivares  : DMRG
   Ulf Ekstrom                                   : XCFun DFT Library
   Mihaly Kallay                                 : mrcc  (arbitrary order and MRCC methods)
   Jiri Pittner, Ondrej Demel                    : Mk-CCSD
   Frank Weinhold                                : gennbo (NPA and NBO analysis)
   Christopher J. Cramer and Donald G. Truhlar   : smd solvation model
   Lars Goerigk                                  : TD-DFT with DH, B97 family of functionals
   V. Asgeirsson, H. Jonsson                     : NEB implementation
   FAccTs GmbH                                   : IRC, NEB, NEB-TS, DLPNO-Multilevel, CI-OPT
                                                   MM, QMMM, 2- and 3-layer-ONIOM, Crystal-QMMM,
                                                   LR-CPCM, SF, NACMEs, symmetry and pop. for TD-DFT,
                                                   nearIR, NL-DFT gradient (VV10), updates on ESD,
                                                   ML-optimized integration grids
   S Lehtola, MJT Oliveira, MAL Marques          : LibXC Library
   Liviu Ungur et al                             : ANISO software


 Your calculation uses the libint2 library for the computation of 2-el integrals
 For citations please refer to: http://libint.valeyev.net

 Your ORCA version has been built with support for libXC version: 5.1.0
 For citations please refer to: https://tddft.org/programs/libxc/

 This ORCA versions uses:
   CBLAS   interface :  Fast vector & matrix operations
   LAPACKE interface :  Fast linear algebra routines
   SCALAPACK package :  Parallel linear algebra routines
   Shared memory     :  Shared parallel matrices
   BLAS/LAPACK       :  OpenBLAS 0.3.15  USE64BITINT DYNAMIC_ARCH NO_AFFINITY Sandybridge SINGLE_THREADED
        Core in use  :  Sandybridge
   Copyright (c) 2011-2014, The OpenBLAS Project




***************************************
The coordinates will be read from file: pbe.xyz
***************************************


================================================================================

cite the ECPs for Au [Def2-ECP] as follows:
Ce-Yb(ecp-28): M. Dolg, H. Stoll, H.Preuss, J. Chem. Phys., 1989, 90, 1730-1734.
Y-Cd(ecp-28), Hf-Hg(ecp-46): D. Andrae,U. Haeussermann, M. Dolg, H. Stoll, H. Preuss, Theor. Chim. Acta, 1990, 77, 123-141.
In-Sb(ecp-28), Tl-Bi(ecp-46): B. Metz, H. Stoll, M. Dolg, J. Chem. Phys., 2000, 113, 2563-2569.
Te-Xe(ecp-28), Po-Rn(ecp-46): K. A. Peterson, D. Figgen, E. Goll, H. Stoll, M. Dolg, J. Chem. Phys., 2003, 119, 11113-11123.
Rb(ecp-28), Cs(ecp-46): T. Leininger, A. Nicklass, W. Kuechle, H. Stoll, M. Dolg, A. Bergner, Chem. Phys. Lett., 1996, 255, 274-280.
Sr(ecp-28), Ba(ecp-46): M. Kaupp, P. V. Schleyer, H. Stoll and H. Preuss, J. Chem. Phys., 1991, 94, 1360-1366.
La(ecp-46): M. Dolg, H. Stoll, A. Savin, H. Preuss, Theor. Chim. Acta, 1989, 75, 173-194.
Lu(ecp-28): X. Cao, M. Dolg, J. Chem. Phys., 2001, 115, 7348-7355.

ECP parameters for Au [Def2-ECP] have been obtained from:
TURBOMOLE (7.0.2)

----- Orbital basis set information -----
Your calculation utilizes the basis: def2-TZVP
   F. Weigend and R. Ahlrichs, Phys. Chem. Chem. Phys. 7, 3297 (2005).

----- AuxJ basis set information -----
Your calculation utilizes the auxiliary basis: def2/J
   F. Weigend, Phys. Chem. Chem. Phys. 8, 1057 (2006).

----- AuxC basis set information -----
Your calculation utilizes the auxiliary basis: def2-TZVP/C
  H-La, Hf-Rn : A. Hellweg, C. Hattig, S. Hofener and W. Klopper, Theor. Chem. Acc. 117, 587 (2007).
        Ce-Lu : J. Chmela and M. E. Harding, Mol. Phys. (2018).

================================================================================
                                        WARNINGS
                       Please study these warnings very carefully!
================================================================================


WARNING: your system is open-shell and RHF/RKS was chosen
  ===> : WILL SWITCH to UHF/UKS


WARNING: No MP2 level density has been requested!
         To caclulate MP2 level properties use
         %mp2 Density relaxed end
         or
         %mp2 Density unrelaxed end
         Otherwise for double-hybrid DFT only the energy is correct!

WARNING: The frozen-core approximation is turned on by default for 
         the MP2 part of double-hybrid DFT.

INFO   : the flag for use of the SHARK integral package has been found!



***************************************
The coordinates will be read from file: pbe.xyz
***************************************


================================================================================

cite the ECPs for Au [Def2-ECP] as follows:
Ce-Yb(ecp-28): M. Dolg, H. Stoll, H.Preuss, J. Chem. Phys., 1989, 90, 1730-1734.
Y-Cd(ecp-28), Hf-Hg(ecp-46): D. Andrae,U. Haeussermann, M. Dolg, H. Stoll, H. Preuss, Theor. Chim. Acta, 1990, 77, 123-141.
In-Sb(ecp-28), Tl-Bi(ecp-46): B. Metz, H. Stoll, M. Dolg, J. Chem. Phys., 2000, 113, 2563-2569.
Te-Xe(ecp-28), Po-Rn(ecp-46): K. A. Peterson, D. Figgen, E. Goll, H. Stoll, M. Dolg, J. Chem. Phys., 2003, 119, 11113-11123.
Rb(ecp-28), Cs(ecp-46): T. Leininger, A. Nicklass, W. Kuechle, H. Stoll, M. Dolg, A. Bergner, Chem. Phys. Lett., 1996, 255, 274-280.
Sr(ecp-28), Ba(ecp-46): M. Kaupp, P. V. Schleyer, H. Stoll and H. Preuss, J. Chem. Phys., 1991, 94, 1360-1366.
La(ecp-46): M. Dolg, H. Stoll, A. Savin, H. Preuss, Theor. Chim. Acta, 1989, 75, 173-194.
Lu(ecp-28): X. Cao, M. Dolg, J. Chem. Phys., 2001, 115, 7348-7355.

ECP parameters for Au [Def2-ECP] have been obtained from:
TURBOMOLE (7.0.2)

----- Orbital basis set information -----
Your calculation utilizes the basis: def2-TZVP
   F. Weigend and R. Ahlrichs, Phys. Chem. Chem. Phys. 7, 3297 (2005).

----- AuxJ basis set information -----
Your calculation utilizes the auxiliary basis: def2/J
   F. Weigend, Phys. Chem. Chem. Phys. 8, 1057 (2006).

----- AuxC basis set information -----
Your calculation utilizes the auxiliary basis: def2-TZVP/C
  H-La, Hf-Rn : A. Hellweg, C. Hattig, S. Hofener and W. Klopper, Theor. Chem. Acc. 117, 587 (2007).
        Ce-Lu : J. Chmela and M. E. Harding, Mol. Phys. (2018).

================================================================================
                                        WARNINGS
                       Please study these warnings very carefully!
================================================================================


WARNING: No MP2 level density has been requested!
         To caclulate MP2 level properties use
         %mp2 Density relaxed end
         or
         %mp2 Density unrelaxed end
         Otherwise for double-hybrid DFT only the energy is correct!

WARNING: The frozen-core approximation is turned on by default for 
         the MP2 part of double-hybrid DFT.

INFO   : the flag for use of the SHARK integral package has been found!

================================================================================
                                       INPUT FILE
================================================================================
NAME = b2plyp.inp
|  1> !RI-B2PLYP def2-TZVP def2-TZVP/C
|  2> !RIJCOSX VERYSLOWCONV
|  3> 
|  4> %scf
|  5>   AutoTRAHIter 200
|  6>   maxiter 400
|  7> end
|  8> 
|  9> 
| 10> %pal nprocs 6 end 
| 11> 
| 12> *xyzfile 0 6 pbe.xyz
| 13> 
| 14> $new_job
| 15> 
| 16> !RI-B2PLYP def2-TZVP def2-TZVP/C
| 17> !RIJCOSX VERYSLOWCONV
| 18> 
| 19> %scf
| 20>   AutoTRAHIter 200
| 21>   maxiter 400
| 22> end
| 23> 
| 24> 
| 25> %pal nprocs 6 end 
| 26> 
| 27> *xyzfile 0 4 pbe.xyz
| 28> 
| 29> 
| 30> 
| 31> 
| 32> 
| 33>                          ****END OF INPUT****
================================================================================


                 $$$$$$$$$$$$$$$$$$$$$$$$$$$$$$$$$$$$$$$$$$$$$$ 
                 $ THERE ARE  2 JOBS TO BE PROCESSED THIS RUN $
                 $$$$$$$$$$$$$$$$$$$$$$$$$$$$$$$$$$$$$$$$$$$$$$ 




                 $$$$$$$$$$$$$$$$  JOB NUMBER  1 $$$$$$$$$$$$$$


                       ****************************
                       * Single Point Calculation *
                       ****************************

---------------------------------
CARTESIAN COORDINATES (ANGSTROEM)
---------------------------------
  Au     7.451772    9.713351   10.404105
  Au    11.808446    8.630598    7.741597
  Au     9.907223    8.740193    9.734464
  Au     9.960194    6.457161    8.174285
  Au    11.134092    9.801363    5.275767
  Au     7.272410   10.695812    7.870803
  Au     8.592503   10.996278    5.472336
  Au     8.895353    8.465621    4.148222
  Au    10.903038    6.986792    5.556480
  Au     8.133667    6.490635    6.079385
  Au     6.688003    8.857328    5.883818
  Au     7.358678    7.750670    8.501876
  Mn     9.249779    8.880684    6.979337

----------------------------
CARTESIAN COORDINATES (A.U.)
----------------------------
  NO LB      ZA    FRAG     MASS         X           Y           Z
   0 Au   19.0000*   0   196.966   14.081808   18.355574   19.660908
   1 Au   19.0000*   0   196.966   22.314730   16.309466   14.629498
   2 Au   19.0000*   0   196.966   18.721938   16.516572   18.395472
   3 Au   19.0000*   0   196.966   18.822040   12.202266   15.447160
   4 Au   19.0000*   0   196.966   21.040385   18.521892    9.969756
   5 Au   19.0000*   0   196.966   13.742863   20.212156   14.873661
   6 Au   19.0000*   0   196.966   16.237477   20.779954   10.341216
   7 Au   19.0000*   0   196.966   16.809781   15.997706    7.839003
   8 Au   19.0000*   0   196.966   20.603755   13.203124   10.500226
   9 Au   19.0000*   0   196.966   15.370404   12.265523   11.488372
  10 Au   19.0000*   0   196.966   12.638494   16.737924   11.118805
  11 Au   19.0000*   0   196.966   13.905885   14.646643   16.066218
  12 Mn   25.0000    0    54.940   17.479549   16.782060   13.189036
* core charge reduced due to ECP

--------------------------------
INTERNAL COORDINATES (ANGSTROEM)
--------------------------------
 Au     0   0   0     0.000000000000     0.00000000     0.00000000
 Au     1   0   0     5.219378833026     0.00000000     0.00000000
 Au     1   2   0     2.724829244429    17.89058484     0.00000000
 Au     3   1   2     2.765718857883   116.78905525   279.67424557
 Au     2   1   3     2.811718534437    99.25289558   175.65509464
 Au     1   2   3     2.723053268079    69.83371816   184.02201207
 Au     6   1   2     2.754190935421   144.88001751   358.01166233
 Au     5   2   1     2.840337750354   109.95990382   296.41734766
 Au     4   3   1     2.832377997183   111.92523793   110.64961509
 Au     4   3   1     2.779555488017   113.74300225    43.50001350
 Au     6   1   2     2.769415446362   116.22286647    77.98884264
 Au     1   2   3     2.734822926683    61.62226902   258.10112120
 Mn    12   1   2     2.677932116129    93.93284288   329.89380141

---------------------------
INTERNAL COORDINATES (A.U.)
---------------------------
 Au     0   0   0     0.000000000000     0.00000000     0.00000000
 Au     1   0   0     9.863196583604     0.00000000     0.00000000
 Au     1   2   0     5.149181033671    17.89058484     0.00000000
 Au     3   1   2     5.226451204821   116.78905525   279.67424557
 Au     2   1   3     5.313377995757    99.25289558   175.65509464
 Au     1   2   3     5.145824924749    69.83371816   184.02201207
 Au     6   1   2     5.204666588474   144.88001751   358.01166233
 Au     5   2   1     5.367460476007   109.95990382   296.41734766
 Au     4   3   1     5.352418722421   111.92523793   110.64961509
 Au     4   3   1     5.252598646390   113.74300225    43.50001350
 Au     6   1   2     5.233436744675   116.22286647    77.98884264
 Au     1   2   3     5.168066356199    61.62226902   258.10112120
 Mn    12   1   2     5.060558304717    93.93284288   329.89380141

---------------------
BASIS SET INFORMATION
---------------------
There are 2 groups of distinct atoms

 Group   1 Type Au  : 8s7p6d1f contracted to 6s4p3d1f pattern {311111/4111/411/1}
 Group   2 Type Mn  : 17s11p7d1f contracted to 6s4p4d1f pattern {842111/6311/4111/1}

Atom   0Au   basis set group =>   1
Atom   1Au   basis set group =>   1
Atom   2Au   basis set group =>   1
Atom   3Au   basis set group =>   1
Atom   4Au   basis set group =>   1
Atom   5Au   basis set group =>   1
Atom   6Au   basis set group =>   1
Atom   7Au   basis set group =>   1
Atom   8Au   basis set group =>   1
Atom   9Au   basis set group =>   1
Atom  10Au   basis set group =>   1
Atom  11Au   basis set group =>   1
Atom  12Mn   basis set group =>   2
---------------------------------
AUXILIARY/J BASIS SET INFORMATION
---------------------------------
There are 2 groups of distinct atoms

 Group   1 Type Au  : 11s5p5d3f3g contracted to 8s5p5d2f3g pattern {41111111/11111/11111/21/111}
 Group   2 Type Mn  : 19s5p5d3f3g contracted to 8s5p5d2f3g pattern {121111111/11111/11111/21/111}

Atom   0Au   basis set group =>   1
Atom   1Au   basis set group =>   1
Atom   2Au   basis set group =>   1
Atom   3Au   basis set group =>   1
Atom   4Au   basis set group =>   1
Atom   5Au   basis set group =>   1
Atom   6Au   basis set group =>   1
Atom   7Au   basis set group =>   1
Atom   8Au   basis set group =>   1
Atom   9Au   basis set group =>   1
Atom  10Au   basis set group =>   1
Atom  11Au   basis set group =>   1
Atom  12Mn   basis set group =>   2
---------------------------------
AUXILIARY/C BASIS SET INFORMATION
---------------------------------
There are 2 groups of distinct atoms

 Group   1 Type Au  : 8s8p7d5f3g2h contracted to 8s8p7d5f3g2h pattern {11111111/11111111/1111111/11111/111/11}
 Group   2 Type Mn  : 11s9p8d6f5g2h contracted to 9s8p8d6f5g2h pattern {311111111/21111111/11111111/111111/11111/11}

Atom   0Au   basis set group =>   1
Atom   1Au   basis set group =>   1
Atom   2Au   basis set group =>   1
Atom   3Au   basis set group =>   1
Atom   4Au   basis set group =>   1
Atom   5Au   basis set group =>   1
Atom   6Au   basis set group =>   1
Atom   7Au   basis set group =>   1
Atom   8Au   basis set group =>   1
Atom   9Au   basis set group =>   1
Atom  10Au   basis set group =>   1
Atom  11Au   basis set group =>   1
Atom  12Mn   basis set group =>   2
-------------------------
ECP PARAMETER INFORMATION
-------------------------

 Group 1, Type Au ECP Def2-ECP (replacing 60 core electrons, lmax=3)

Atom   0Au   ECP group =>   1
Atom   1Au   ECP group =>   1
Atom   2Au   ECP group =>   1
Atom   3Au   ECP group =>   1
Atom   4Au   ECP group =>   1
Atom   5Au   ECP group =>   1
Atom   6Au   ECP group =>   1
Atom   7Au   ECP group =>   1
Atom   8Au   ECP group =>   1
Atom   9Au   ECP group =>   1
Atom  10Au   ECP group =>   1
Atom  11Au   ECP group =>   1



           ************************************************************
           *        Program running with 6 parallel MPI-processes     *
           *              working on a common directory               *
           ************************************************************
------------------------------------------------------------------------------
                           ORCA GTO INTEGRAL CALCULATION
                           -- RI-GTO INTEGRALS CHOSEN --
------------------------------------------------------------------------------
------------------------------------------------------------------------------
                   ___                                                        
                  /   \      - P O W E R E D   B Y -                         
                 /     \                                                     
                 |  |  |   _    _      __       _____    __    __             
                 |  |  |  | |  | |    /  \     |  _  \  |  |  /  |          
                  \  \/   | |  | |   /    \    | | | |  |  | /  /          
                 / \  \   | |__| |  /  /\  \   | |_| |  |  |/  /          
                |  |  |   |  __  | /  /__\  \  |    /   |      \           
                |  |  |   | |  | | |   __   |  |    \   |  |\   \          
                \     /   | |  | | |  |  |  |  | |\  \  |  | \   \       
                 \___/    |_|  |_| |__|  |__|  |_| \__\ |__|  \__/        
                                                                              
                      - O R C A' S   B I G   F R I E N D -                    
                                      &                                       
                       - I N T E G R A L  F E E D E R -                       
                                                                              
 v1 FN, 2020, v2 2021                                                         
------------------------------------------------------------------------------


Reading SHARK input file b2plyp.SHARKINP.tmp ... ok
----------------------
SHARK INTEGRAL PACKAGE
----------------------

Number of atoms                             ...     13
Number of basis functions                   ...    525
Number of shells                            ...    183
Maximum angular momentum                    ...      3
Integral batch strategy                     ... SHARK/LIBINT Hybrid
RI-J (if used) integral strategy            ... SPLIT-RIJ (Revised 2003 algorithm where possible)
Printlevel                                  ...      1
Contraction scheme used                     ... SEGMENTED contraction
Coulomb Range Separation                    ... NOT USED
Exchange Range Separation                   ... NOT USED
Finite Nucleus Model                        ... NOT USED
Auxiliary Coulomb fitting basis             ... AVAILABLE
   # of basis functions in Aux-J            ...   1157
   # of shells in Aux-J                     ...    299
   Maximum angular momentum in Aux-J        ...      4
Auxiliary J/K fitting basis                 ... NOT available
Auxiliary Correlation fitting basis         ... AVAILABLE
   # of basis functions in Aux-C            ...   1994
   # of shells in Aux-C                     ...    434
   Maximum angular momentum in Aux-C        ...      5
Auxiliary 'external' fitting basis          ... NOT available
Integral threshold                          ...     1.000000e-10
Primitive cut-off                           ...     1.000000e-11
Primitive pair pre-selection threshold      ...     1.000000e-11

Calculating pre-screening integrals         ... done (  0.2 sec) Dimension = 183
Organizing shell pair data                  ... done (  0.6 sec)
Shell pair information
Total number of shell pairs                 ...     16836
Shell pairs after pre-screening             ...     13836
Total number of primitive shell pairs       ...     45389
Primitive shell pairs kept                  ...     27296
          la=0 lb=0:   2165 shell pairs
          la=1 lb=0:   3163 shell pairs
          la=1 lb=1:   1187 shell pairs
          la=2 lb=0:   2755 shell pairs
          la=2 lb=1:   1915 shell pairs
          la=2 lb=2:    791 shell pairs
          la=3 lb=0:    732 shell pairs
          la=3 lb=1:    562 shell pairs
          la=3 lb=2:    486 shell pairs
          la=3 lb=3:     80 shell pairs

Calculating one electron integrals          ... done (  0.0 sec)
Calculating ECP integrals                   ... done ( 14.4 sec)
Calculating RI/J V-Matrix + Cholesky decomp.... done (  0.1 sec)
Calculating RI/C V-Matrix + Cholesky decomp.... done (  0.3 sec)
Calculating Nuclear repulsion               ... done (  0.0 sec) ENN=   4401.534112292828 Eh

SHARK setup successfully completed in  16.3 seconds

Maximum memory used throughout the entire GTOINT-calculation: 39.3 MB


           ************************************************************
           *        Program running with 6 parallel MPI-processes     *
           *              working on a common directory               *
           ************************************************************
-------------------------------------------------------------------------------
                                 ORCA SCF
-------------------------------------------------------------------------------

------------
SCF SETTINGS
------------
Hamiltonian:
 Density Functional     Method          .... DFT(GTOs)
 Exchange Functional    Exchange        .... B88
   X-Alpha parameter    XAlpha          ....  0.666667
   Becke's b parameter  XBeta           ....  0.004200
 Correlation Functional Correlation     .... LYP
 LDA part of GGA corr.  LDAOpt          .... VWN-3
 Gradients option       PostSCFGGA      .... off
 Hybrid DFT is turned on
   Fraction HF Exchange ScalHFX         ....  0.530000
   Scaling of DF-GGA-X  ScalDFX         ....  0.470000
   Scaling of DF-GGA-C  ScalDFC         ....  0.730000
   Scaling of DF-LDA-C  ScalLDAC        ....  0.730000
   Perturbative correction              ....  0.270000
   Density functional embedding theory  .... OFF
   NL short-range parameter             ....  7.800000
 RI-approximation to the Coulomb term is turned on
   Number of AuxJ basis functions       .... 1157
   RIJ-COSX (HFX calculated with COS-X)).... on


General Settings:
 Integral files         IntName         .... b2plyp
 Hartree-Fock type      HFTyp           .... UHF
 Total Charge           Charge          ....    0
 Multiplicity           Mult            ....    6
 Number of Electrons    NEL             ....  253
 Basis Dimension        Dim             ....  525
 Nuclear Repulsion      ENuc            ....   4401.5341122928 Eh

Convergence Acceleration:
 DIIS                   CNVDIIS         .... on
   Start iteration      DIISMaxIt       ....     0
   Startup error        DIISStart       ....  0.200000
   # of expansion vecs  DIISMaxEq       ....     5
   Bias factor          DIISBfac        ....   1.050
   Max. coefficient     DIISMaxC        ....  10.000
 Trust-Rad. Augm. Hess. CNVTRAH         .... auto
   Auto Start mean grad. ratio tolernc. ....  1.125000
   Auto Start start iteration           ....   200
   Auto Start num. interpolation iter.  ....    10
   Max. Number of Micro iterations      ....    16
   Max. Number of Macro iterations      .... Maxiter - #DIIS iter
   Number of Davidson start vectors     ....     2
   Converg. threshold I  (grad. norm)   ....   5.000e-05
   Converg. threshold II (energy diff.) ....   1.000e-06
   Grad. Scal. Fac. for Micro threshold ....   0.100
   Minimum threshold for Micro iter.    ....   0.010
   NR start threshold (gradient norm)   ....   0.001
   Initial trust radius                 ....   0.400
   Minimum AH scaling param. (alpha)    ....   1.000
   Maximum AH scaling param. (alpha)    .... 1000.000
   Orbital update algorithm             .... Taylor
   White noise on init. David. guess    .... on
   Maximum white noise                  ....   0.010
   Quad. conv. algorithm                .... NR
 SOSCF                  CNVSOSCF        .... off
 Level Shifting         CNVShift        .... on
   Level shift para.    LevelShift      ....    0.2500
   Turn off err/grad.   ShiftErr        ....    0.0000
 Zerner damping         CNVZerner       .... off
 Static damping         CNVDamp         .... on
   Fraction old density DampFac         ....    0.9200
   Max. Damping (<1)    DampMax         ....    0.9800
   Min. Damping (>=0)   DampMin         ....    0.0000
   Turn off err/grad.   DampErr         ....    0.0030
 Fernandez-Rico         CNVRico         .... off

SCF Procedure:
 Maximum # iterations   MaxIter         ....   400
 SCF integral mode      SCFMode         .... Direct
   Integral package                     .... SHARK and LIBINT hybrid scheme
 Reset frequency        DirectResetFreq ....    20
 Integral Threshold     Thresh          ....  1.000e-10 Eh
 Primitive CutOff       TCut            ....  1.000e-11 Eh

Convergence Tolerance:
 Convergence Check Mode ConvCheckMode   .... Total+1el-Energy
 Convergence forced     ConvForced      .... 0
 Energy Change          TolE            ....  1.000e-06 Eh
 1-El. energy change                    ....  1.000e-03 Eh
 DIIS Error             TolErr          ....  1.000e-06


Diagonalization of the overlap matrix:
Smallest eigenvalue                        ... 3.118e-04
Time for diagonalization                   ...    0.078 sec
Threshold for overlap eigenvalues          ... 1.000e-08
Number of eigenvalues below threshold      ... 0
Time for construction of square roots      ...    0.080 sec
Total time needed                          ...    0.160 sec

Time for model grid setup =    0.773 sec

------------------------------
INITIAL GUESS: MODEL POTENTIAL
------------------------------
Loading Hartree-Fock densities                     ... done
  calling /home/ehlert/src/miniconda3/envs/orca500/Programs/ORCA501/orca b2plyp_atom79.inp > b2plyp_atom79.out in order to generate an atomic fitting density for atom 0 (Au with ECP) on-the-fly... 
    atom 0 (Au), assumed electronic state with S=2: 1s2 2s2 2p6 3s2 3p6 4s2 3d10 4p6 5s2 4d10 5p6 6s1 4f14 5d10           ... done
Calculating cut-offs                               ... done
Initializing the effective Hamiltonian             ... done
Setting up the integral package (SHARK)            ... done
Starting the Coulomb interaction                   ... done (   0.7 sec)
Reading the grid                                   ... done
Mapping shells                                     ... done
Starting the XC term evaluation                    ... done (   0.7 sec)
  promolecular density results
     # of electrons  =    973.012862863
     EX              =  -4459.380253231
     EC              =    -19.759956435
     EX+EC           =  -4479.140209666
Transforming the Hamiltonian                       ... done (   0.1 sec)
Diagonalizing the Hamiltonian                      ... done (   0.1 sec)
Back transforming the eigenvectors                 ... done (   0.0 sec)
Now organizing SCF variables                       ... done
                      ------------------
                      INITIAL GUESS DONE (   3.5 sec)
                      ------------------
-------------------
DFT GRID GENERATION
-------------------

General Integration Accuracy     IntAcc      ... 4.388
Radial Grid Type                 RadialGrid  ... OptM3 with GC (2021)
Angular Grid (max. ang.)         AngularGrid ... 4 (Lebedev-302)
Angular grid pruning method      GridPruning ... 4 (adaptive)
Weight generation scheme         WeightScheme... Becke
Basis function cutoff            BFCut       ... 1.0000e-10
Integration weight cutoff        WCut        ... 1.0000e-14
Angular grids for H and He will be reduced by one unit
Partially contracted basis set               ... off
Rotationally invariant grid construction     ... off

Total number of grid points                  ...   144546
Total number of batches                      ...     2266
Average number of points per batch           ...       63
Average number of grid points per atom       ...    11119
Time for grid setup =    2.423 sec

--------------------
COSX GRID GENERATION
--------------------

GRIDX 1
-------
General Integration Accuracy     IntAcc      ... 3.816
Radial Grid Type                 RadialGrid  ... OptM3 with GC (2021)
Angular Grid (max. ang.)         AngularGrid ... 1 (Lebedev-50)
Angular grid pruning method      GridPruning ... 4 (adaptive)
Weight generation scheme         WeightScheme... Becke
Basis function cutoff            BFCut       ... 1.0000e-10
Integration weight cutoff        WCut        ... 1.0000e-14
Angular grids for H and He will be reduced by one unit
Partially contracted basis set               ... on
Rotationally invariant grid construction     ... off

Total number of grid points                  ...    15172
Total number of batches                      ...      244
Average number of points per batch           ...       62
Average number of grid points per atom       ...     1167
UseSFitting                                  ... on

GRIDX 2
-------
General Integration Accuracy     IntAcc      ... 4.020
Radial Grid Type                 RadialGrid  ... OptM3 with GC (2021)
Angular Grid (max. ang.)         AngularGrid ... 2 (Lebedev-110)
Angular grid pruning method      GridPruning ... 4 (adaptive)
Weight generation scheme         WeightScheme... Becke
Basis function cutoff            BFCut       ... 1.0000e-10
Integration weight cutoff        WCut        ... 1.0000e-14
Angular grids for H and He will be reduced by one unit
Partially contracted basis set               ... on
Rotationally invariant grid construction     ... off

Total number of grid points                  ...    45985
Total number of batches                      ...      723
Average number of points per batch           ...       63
Average number of grid points per atom       ...     3537
UseSFitting                                  ... on

GRIDX 3
-------
General Integration Accuracy     IntAcc      ... 4.338
Radial Grid Type                 RadialGrid  ... OptM3 with GC (2021)
Angular Grid (max. ang.)         AngularGrid ... 3 (Lebedev-194)
Angular grid pruning method      GridPruning ... 4 (adaptive)
Weight generation scheme         WeightScheme... Becke
Basis function cutoff            BFCut       ... 1.0000e-10
Integration weight cutoff        WCut        ... 1.0000e-14
Angular grids for H and He will be reduced by one unit
Partially contracted basis set               ... on
Rotationally invariant grid construction     ... off

Total number of grid points                  ...    84107
Total number of batches                      ...     1320
Average number of points per batch           ...       63
Average number of grid points per atom       ...     6470
UseSFitting                                  ... on

Time for X-Grid setup             =    2.339 sec

--------------
SCF ITERATIONS
--------------
ITER       Energy         Delta-E        Max-DP      RMS-DP      [F,P]     Damp
               ***  Starting incremental Fock matrix formation  ***
  0  -2773.7347968225   0.000000000000 0.07197879  0.00053775  0.3287671 0.9200
  1  -2774.2497354081  -0.514938585595 0.06775840  0.00050811  0.2536343 0.9200
                               ***Turning on DIIS***
  2  -2774.5138340817  -0.264098673638 0.05476807  0.00044134  0.2331928 0.9200
  3  -2774.6017614765  -0.087927394786 0.02625474  0.00027310  0.2144529 0.9200
  4  -2774.6714591963  -0.069697719795 0.02466880  0.00024456  0.1972024 0.9200
  5  -2774.7424204494  -0.070961253074 0.02295377  0.00023023  0.1813644 0.9200
  6  -2774.8035152180  -0.061094768608 0.02131161  0.00021239  0.1668935 0.9200
  7  -2774.8631259180  -0.059610700062 0.01903840  0.00020226  0.1536299 0.9200
  8  -2774.9298809660  -0.066755047981 0.01791658  0.00019353  0.1413926 0.9200
  9  -2774.9899999647  -0.060118998703 0.01684031  0.00017474  0.1300837 0.9200
 10  -2775.0462410661  -0.056241101374 0.01583612  0.00016271  0.1196545 0.9200
 11  -2775.0975040350  -0.051262968943 0.01479682  0.00015192  0.1100565 0.9200
 12  -2775.1460444280  -0.048540392915 0.01351224  0.00014281  0.1012504 0.9200
 13  -2775.1934395306  -0.047395102607 0.01242396  0.00013607  0.0931632 0.9200
 14  -2775.2380007279  -0.044561197326 0.01176211  0.00012741  0.0857205 0.9200
 15  -2775.2796367127  -0.041635984813 0.01109292  0.00011938  0.0788605 0.9200
 16  -2775.3185359228  -0.038899210053 0.01037552  0.00011249  0.0725411 0.9200
 17  -2775.3551604824  -0.036624559687 0.00963824  0.00010662  0.0667301 0.9200
 18  -2775.3899124850  -0.034752002510 0.00894262  0.00010146  0.0613907 0.9200
 19  -2775.4227259522  -0.032813467209 0.00832883  0.00009607  0.0564812 0.9200
               *** Restarting incremental Fock matrix formation ***
                                   *** Resetting DIIS ***
 20  -2775.4549102123  -0.032184260154 0.00726466  0.00008317  0.0519596 0.9200
 21  -2775.4845485642  -0.029638351886 0.00670727  0.00007568  0.0477964 0.9200
 22  -2775.5123632045  -0.027814640337 0.00634526  0.00007156  0.0439685 0.9200
 23  -2775.5383581158  -0.025994911265 0.00601897  0.00006947  0.0404528 0.9200
 24  -2775.5626206196  -0.024262503770 0.00568075  0.00006798  0.0372305 0.9200
 25  -2775.5852789092  -0.022658289623 0.00530522  0.00006587  0.0342644 0.9200
 26  -2775.6064965511  -0.021217641927 0.00532433  0.00006348  0.0315310 0.9200
 27  -2775.6263577133  -0.019861162209 0.00537389  0.00006088  0.0290130 0.9200
 28  -2775.6449494163  -0.018591702965 0.00536412  0.00005820  0.0266956 0.9200
 29  -2775.6623598366  -0.017410420258 0.00534913  0.00005554  0.0245640 0.9200
 30  -2775.6786688646  -0.016309028068 0.00531769  0.00005294  0.0226032 0.9200
 31  -2775.6939441117  -0.015275247073 0.00523586  0.00005040  0.0207989 0.9200
 32  -2775.7082437557  -0.014299644024 0.00510289  0.00004790  0.0191386 0.9200
 33  -2775.7216223208  -0.013378565122 0.00494277  0.00004548  0.0176108 0.9200
 34  -2775.7341324273  -0.012510106414 0.00477451  0.00004316  0.0162050 0.9200
 35  -2775.7458240276  -0.011691600320 0.00460146  0.00004094  0.0149114 0.9200
 36  -2775.7567439572  -0.010919929574 0.00441915  0.00003884  0.0137212 0.9200
 37  -2775.7669362697  -0.010192312517 0.00422739  0.00003684  0.0126260 0.9200
 38  -2775.7764429771  -0.009506707429 0.00403195  0.00003494  0.0116183 0.9200
 39  -2775.7853044072  -0.008861430064 0.00386591  0.00003325  0.0106911 0.9200
               *** Restarting incremental Fock matrix formation ***
                                   *** Resetting DIIS ***
 40  -2775.7935577583  -0.008253351138 0.00307103  0.00002673  0.0098380 0.9200
 41  -2775.8013336976  -0.007775939306 0.00259647  0.00002349  0.0090559 0.9200
 42  -2775.8085571907  -0.007223493099 0.00240336  0.00002230  0.0085986 0.9200
 43  -2775.8152504023  -0.006693211639 0.00239926  0.00002226  0.0082396 0.9200
 44  -2775.8214449915  -0.006194589135 0.00247403  0.00002257  0.0078888 0.9200
 45  -2775.8271750407  -0.005730049198 0.00250508  0.00002239  0.0075115 0.9200
 46  -2775.8324822588  -0.005307218136 0.00248481  0.00002203  0.0070998 0.9200
 47  -2775.8373987419  -0.004916483033 0.00242466  0.00002157  0.0066840 0.9200
 48  -2775.8419537799  -0.004555038047 0.00234539  0.00002104  0.0062873 0.9200
 49  -2775.8461747592  -0.004220979254 0.00225959  0.00002047  0.0059134 0.9200
 50  -2775.8500867837  -0.003912024585 0.00217022  0.00001988  0.0055570 0.9200
 51  -2775.8537126096  -0.003625825881 0.00207333  0.00001928  0.0052138 0.9200
 52  -2775.8570729614  -0.003360351814 0.00196950  0.00001870  0.0048855 0.9200
 53  -2775.8601869062  -0.003113944816 0.00186333  0.00001813  0.0045752 0.9200
 54  -2775.8630721621  -0.002885255810 0.00175921  0.00001758  0.0042837 0.9200
 55  -2775.8657452414  -0.002673079320 0.00165859  0.00001705  0.0040093 0.9200
 56  -2775.8682214374  -0.002476195994 0.00156094  0.00001655  0.0037507 0.9200
 57  -2775.8705149700  -0.002293532651 0.00146569  0.00001608  0.0035070 0.9200
 58  -2775.8726390287  -0.002124058694 0.00137378  0.00001563  0.0032781 0.9200
 59  -2775.8746059433  -0.001966914535 0.00129303  0.00001535  0.0030636 0.9200
               *** Restarting incremental Fock matrix formation ***
                                   *** Resetting DIIS ***
 60  -2775.8764228194  -0.001816876182 0.01263008  0.00015340  0.0028626 0.0000
 61  -2775.8983420812  -0.021919261731 0.00289366  0.00003270  0.0018627 0.0000
 62  -2775.8985025045  -0.000160423306 0.00185845  0.00002679  0.0008257 0.0000
               *** Restarting incremental Fock matrix formation ***
                                   *** Resetting DIIS ***
 63  -2775.8971600000   0.001342504473 0.00457874  0.00009444  0.0006152 0.0000
 64  -2775.8973798192  -0.000219819192 0.00220526  0.00003790  0.0006166 0.0000
 65  -2775.8974767646  -0.000096945386 0.00180353  0.00002268  0.0006236 0.0000
 66  -2775.8975521190  -0.000075354447 0.00194683  0.00002343  0.0006131 0.0000
 67  -2775.8976331016  -0.000080982603 0.00211155  0.00002639  0.0006035 0.0000
 68  -2775.8977208804  -0.000087778807 0.00204220  0.00002433  0.0005931 0.0000
 69  -2775.8977990427  -0.000078162230 0.00271212  0.00003410  0.0005685 0.0000
 70  -2775.8978984832  -0.000099440572 0.00167446  0.00001855  0.0005593 0.0000
 71  -2775.8979547854  -0.000056302155 0.00292224  0.00003693  0.0005228 0.0000
 72  -2775.8980489085  -0.000094123136 0.00218378  0.00002470  0.0005141 0.0000
 73  -2775.8981164686  -0.000067560024 0.00389659  0.00004792  0.0004789 0.0000
 74  -2775.8982174449  -0.000100976352 0.00171177  0.00001846  0.0004518 0.0000
 75  -2775.8982663229  -0.000048877958 0.00389391  0.00004878  0.0004080 0.0000
 76  -2775.8983466720  -0.000080349092 0.00177067  0.00001926  0.0004589 0.0000
 77  -2775.8983927562  -0.000046084209 0.00308740  0.00003738  0.0003410 0.0000
 78  -2775.8984457124  -0.000052956189 0.00198080  0.00002225  0.0004111 0.0000
 79  -2775.8984850708  -0.000039358400 0.00319308  0.00003892  0.0002839 0.0000
 80  -2775.8985262493  -0.000041178521 0.00190292  0.00002154  0.0003935 0.0000
 81  -2775.8985560161  -0.000029766784 0.00184379  0.00002152  0.0002167 0.0000
 82  -2775.8985763798  -0.000020363759 0.00153265  0.00001839  0.0002346 0.0000
               *** Restarting incremental Fock matrix formation ***
                                   *** Resetting DIIS ***
 83  -2775.8985928509  -0.000016471049 0.00070972  0.00000694  0.0001775 0.0000
 84  -2775.8985991401  -0.000006289225 0.00027147  0.00000418  0.0001887 0.0000
 85  -2775.8986037983  -0.000004658171 0.00031641  0.00000430  0.0001352 0.0000
 86  -2775.8986071207  -0.000003322396 0.00030765  0.00000401  0.0001360 0.0000
 87  -2775.8986102211  -0.000003100430 0.00033401  0.00000431  0.0001307 0.0000
 88  -2775.8986131012  -0.000002880104 0.00038112  0.00000482  0.0001259 0.0000
 89  -2775.8986162104  -0.000003109192 0.00046720  0.00000572  0.0001219 0.0000
 90  -2775.8986195470  -0.000003336656 0.00050148  0.00000594  0.0001154 0.0000
 91  -2775.8986228773  -0.000003330302 0.00045456  0.00000531  0.0001120 0.0000
 92  -2775.8986256461  -0.000002768724 0.00045876  0.00000537  0.0001041 0.0000
 93  -2775.8986282432  -0.000002597145 0.00061973  0.00000741  0.0001012 0.0000
 94  -2775.8986315602  -0.000003316969 0.00029924  0.00000344  0.0000981 0.0000
 95  -2775.8986331396  -0.000001579443 0.00071081  0.00000883  0.0000913 0.0000
 96  -2775.8986363882  -0.000003248600 0.00024887  0.00000307  0.0000902 0.0000
 97  -2775.8986378353  -0.000001447055 0.00059850  0.00000746  0.0000826 0.0000
 98  -2775.8986402852  -0.000002449886 0.00032203  0.00000393  0.0000822 0.0000
 99  -2775.8986418721  -0.000001586950 0.00050210  0.00000636  0.0000757 0.0000
100  -2775.8986438005  -0.000001928388 0.00035077  0.00000438  0.0000715 0.0000
101  -2775.8986453223  -0.000001521844 0.00055075  0.00000711  0.0000687 0.0000
102  -2775.8986472554  -0.000001933092 0.00038428  0.00000501  0.0000652 0.0000
               *** Restarting incremental Fock matrix formation ***
                                   *** Resetting DIIS ***
103  -2775.8986486227  -0.000001367258 0.00016537  0.00000194  0.0000611 0.0000
104  -2775.8986493626  -0.000000739915 0.00010453  0.00000156  0.0000563 0.0000
105  -2775.8986497486  -0.000000385978 0.00015654  0.00000190  0.0000564 0.0000
106  -2775.8986503497  -0.000000601148 0.00013631  0.00000183  0.0000560 0.0000
107  -2775.8986509339  -0.000000584192 0.00015237  0.00000206  0.0000544 0.0000
108  -2775.8986515357  -0.000000601778 0.00017406  0.00000234  0.0000538 0.0000
                 **** Energy Check signals convergence ****

               *****************************************************
               *                     SUCCESS                       *
               *           SCF CONVERGED AFTER 109 CYCLES          *
               *****************************************************

Old exchange energy                            =   -102.911023853 Eh
New exchange energy                            =   -102.910869457 Eh
Exchange energy change after final integration =      0.000154396 Eh
Total energy after final integration           =  -2775.898497850 Eh
Final COS-X integration done in                =    38.599 sec

----------------
TOTAL SCF ENERGY
----------------

Total Energy       :        -2775.89849785 Eh          -75536.03830 eV

Components:
Nuclear Repulsion  :         4401.53411229 Eh          119771.83228 eV
Electronic Energy  :        -7177.43261014 Eh         -195307.87058 eV
One Electron Energy:       -13247.49685670 Eh         -360482.71606 eV
Two Electron Energy:         6070.06424655 Eh          165174.84548 eV
Max COSX asymmetry :            0.00000792 Eh               0.00022 eV

Virial components:
Potential Energy   :        -4477.00728814 Eh         -121825.56180 eV
Kinetic Energy     :         1701.10879029 Eh           46289.52350 eV
Virial Ratio       :            2.63181715


DFT components:
N(Alpha)           :      129.000027917309 electrons
N(Beta)            :      124.000027844007 electrons
N(Total)           :      253.000055761316 electrons
E(X)               :      -92.659923850674 Eh       
E(C)               :       -6.973017411842 Eh       
E(XC)              :      -99.632941262516 Eh       
DFET-embed. en.    :        0.000000000000 Eh       

---------------
SCF CONVERGENCE
---------------

  Last Energy change         ...   -7.1015e-07  Tolerance :   1.0000e-06
  Last MAX-Density change    ...    0.0000e+00  Tolerance :   1.0000e-05
  Last RMS-Density change    ...    0.0000e+00  Tolerance :   1.0000e-06
  Last DIIS Error            ...    5.2682e-05  Tolerance :   1.0000e-06

             **** THE GBW FILE WAS UPDATED (b2plyp.gbw) ****
             **** DENSITY b2plyp.scfp WAS UPDATED ****
             **** ENERGY FILE WAS UPDATED (b2plyp.en.tmp) ****
----------------------
UHF SPIN CONTAMINATION
----------------------

Warning: in a DFT calculation there is little theoretical justification to 
         calculate <S**2> as in Hartree-Fock theory. We will do it anyways
         but you should keep in mind that the values have only limited relevance

Expectation value of <S**2>     :     9.708424
Ideal value S*(S+1) for S=2.5   :     8.750000
Deviation                       :     0.958424

             **** THE GBW FILE WAS UPDATED (b2plyp.gbw) ****
             **** DENSITY b2plyp.scfp WAS UPDATED ****
----------------
ORBITAL ENERGIES
----------------
                 SPIN UP ORBITALS
  NO   OCC          E(Eh)            E(eV) 
   0   1.0000    -237.626902     -6466.1567 
   1   1.0000     -28.128269      -765.4091 
   2   1.0000     -24.046868      -654.3485 
   3   1.0000     -24.045753      -654.3182 
   4   1.0000     -24.045484      -654.3109 
   5   1.0000      -4.412913      -120.0815 
   6   1.0000      -4.411075      -120.0315 
   7   1.0000      -4.404600      -119.8553 
   8   1.0000      -4.403864      -119.8352 
   9   1.0000      -4.401102      -119.7601 
  10   1.0000      -4.399797      -119.7246 
  11   1.0000      -4.399146      -119.7068 
  12   1.0000      -4.394569      -119.5823 
  13   1.0000      -4.394504      -119.5805 
  14   1.0000      -4.394389      -119.5774 
  15   1.0000      -4.394079      -119.5690 
  16   1.0000      -4.384763      -119.3155 
  17   1.0000      -3.608137       -98.1824 
  18   1.0000      -2.534184       -68.9586 
  19   1.0000      -2.531846       -68.8950 
  20   1.0000      -2.531148       -68.8760 
  21   1.0000      -2.529484       -68.8308 
  22   1.0000      -2.527726       -68.7829 
  23   1.0000      -2.526339       -68.7452 
  24   1.0000      -2.524397       -68.6923 
  25   1.0000      -2.523578       -68.6700 
  26   1.0000      -2.522041       -68.6282 
  27   1.0000      -2.521691       -68.6187 
  28   1.0000      -2.521216       -68.6058 
  29   1.0000      -2.520543       -68.5875 
  30   1.0000      -2.520113       -68.5757 
  31   1.0000      -2.519433       -68.5573 
  32   1.0000      -2.519142       -68.5493 
  33   1.0000      -2.518456       -68.5307 
  34   1.0000      -2.516693       -68.4827 
  35   1.0000      -2.516342       -68.4731 
  36   1.0000      -2.515439       -68.4486 
  37   1.0000      -2.514796       -68.4311 
  38   1.0000      -2.513655       -68.4000 
  39   1.0000      -2.513220       -68.3882 
  40   1.0000      -2.512838       -68.3778 
  41   1.0000      -2.512745       -68.3753 
  42   1.0000      -2.512325       -68.3638 
  43   1.0000      -2.511043       -68.3289 
  44   1.0000      -2.510771       -68.3216 
  45   1.0000      -2.510616       -68.3173 
  46   1.0000      -2.510303       -68.3088 
  47   1.0000      -2.510184       -68.3056 
  48   1.0000      -2.508503       -68.2598 
  49   1.0000      -2.508388       -68.2567 
  50   1.0000      -2.508035       -68.2471 
  51   1.0000      -2.503048       -68.1114 
  52   1.0000      -2.500270       -68.0358 
  53   1.0000      -2.499680       -68.0198 
  54   1.0000      -2.410964       -65.6057 
  55   1.0000      -2.410243       -65.5860 
  56   1.0000      -2.408876       -65.5488 
  57   1.0000      -0.524503       -14.2725 
  58   1.0000      -0.524386       -14.2693 
  59   1.0000      -0.520324       -14.1587 
  60   1.0000      -0.518966       -14.1218 
  61   1.0000      -0.518078       -14.0976 
  62   1.0000      -0.509831       -13.8732 
  63   1.0000      -0.469314       -12.7707 
  64   1.0000      -0.465598       -12.6696 
  65   1.0000      -0.461020       -12.5450 
  66   1.0000      -0.460661       -12.5352 
  67   1.0000      -0.458519       -12.4769 
  68   1.0000      -0.456283       -12.4161 
  69   1.0000      -0.454363       -12.3638 
  70   1.0000      -0.453940       -12.3523 
  71   1.0000      -0.452857       -12.3229 
  72   1.0000      -0.449085       -12.2202 
  73   1.0000      -0.445560       -12.1243 
  74   1.0000      -0.443544       -12.0695 
  75   1.0000      -0.441179       -12.0051 
  76   1.0000      -0.439780       -11.9670 
  77   1.0000      -0.439394       -11.9565 
  78   1.0000      -0.434709       -11.8290 
  79   1.0000      -0.430791       -11.7224 
  80   1.0000      -0.429733       -11.6936 
  81   1.0000      -0.429281       -11.6813 
  82   1.0000      -0.427644       -11.6368 
  83   1.0000      -0.421324       -11.4648 
  84   1.0000      -0.418925       -11.3995 
  85   1.0000      -0.415467       -11.3054 
  86   1.0000      -0.414089       -11.2679 
  87   1.0000      -0.410155       -11.1609 
  88   1.0000      -0.406867       -11.0714 
  89   1.0000      -0.404557       -11.0086 
  90   1.0000      -0.402603       -10.9554 
  91   1.0000      -0.399447       -10.8695 
  92   1.0000      -0.391325       -10.6485 
  93   1.0000      -0.387936       -10.5563 
  94   1.0000      -0.385544       -10.4912 
  95   1.0000      -0.379066       -10.3149 
  96   1.0000      -0.376685       -10.2501 
  97   1.0000      -0.376059       -10.2331 
  98   1.0000      -0.374270       -10.1844 
  99   1.0000      -0.374154       -10.1812 
 100   1.0000      -0.373858       -10.1732 
 101   1.0000      -0.369395       -10.0517 
 102   1.0000      -0.368219       -10.0197 
 103   1.0000      -0.367507       -10.0004 
 104   1.0000      -0.366442        -9.9714 
 105   1.0000      -0.365835        -9.9549 
 106   1.0000      -0.362765        -9.8713 
 107   1.0000      -0.361629        -9.8404 
 108   1.0000      -0.360366        -9.8061 
 109   1.0000      -0.358418        -9.7531 
 110   1.0000      -0.357135        -9.7181 
 111   1.0000      -0.355008        -9.6602 
 112   1.0000      -0.352122        -9.5817 
 113   1.0000      -0.351476        -9.5642 
 114   1.0000      -0.349934        -9.5222 
 115   1.0000      -0.348252        -9.4764 
 116   1.0000      -0.345679        -9.4064 
 117   1.0000      -0.344001        -9.3607 
 118   1.0000      -0.343562        -9.3488 
 119   1.0000      -0.340257        -9.2589 
 120   1.0000      -0.330144        -8.9837 
 121   1.0000      -0.329256        -8.9595 
 122   1.0000      -0.328536        -8.9399 
 123   1.0000      -0.320709        -8.7269 
 124   1.0000      -0.315599        -8.5879 
 125   1.0000      -0.286299        -7.7906 
 126   1.0000      -0.231347        -6.2953 
 127   1.0000      -0.206763        -5.6263 
 128   1.0000      -0.203921        -5.5490 
 129   0.0000      -0.117525        -3.1980 
 130   0.0000      -0.087632        -2.3846 
 131   0.0000      -0.079309        -2.1581 
 132   0.0000      -0.052069        -1.4169 
 133   0.0000      -0.051114        -1.3909 
 134   0.0000      -0.035284        -0.9601 
 135   0.0000      -0.012970        -0.3529 
 136   0.0000      -0.009562        -0.2602 
 137   0.0000      -0.006904        -0.1879 
 138   0.0000      -0.004577        -0.1245 
 139   0.0000       0.008688         0.2364 
 140   0.0000       0.016706         0.4546 
 141   0.0000       0.026624         0.7245 
 142   0.0000       0.031763         0.8643 
 143   0.0000       0.046196         1.2571 
 144   0.0000       0.054398         1.4803 
 145   0.0000       0.061570         1.6754 
 146   0.0000       0.066274         1.8034 
 147   0.0000       0.080740         2.1970 
 148   0.0000       0.082014         2.2317 
 149   0.0000       0.089664         2.4399 
 150   0.0000       0.090898         2.4735 
 151   0.0000       0.092423         2.5150 
 152   0.0000       0.098122         2.6700 
 153   0.0000       0.104726         2.8497 
 154   0.0000       0.109728         2.9858 
 155   0.0000       0.110417         3.0046 
 156   0.0000       0.112935         3.0731 
 157   0.0000       0.113581         3.0907 
 158   0.0000       0.115343         3.1386 
 159   0.0000       0.115840         3.1522 
 160   0.0000       0.133910         3.6439 
 161   0.0000       0.141281         3.8444 
 162   0.0000       0.145923         3.9708 
 163   0.0000       0.146328         3.9818 
 164   0.0000       0.157017         4.2727 
 165   0.0000       0.166499         4.5307 
 166   0.0000       0.167073         4.5463 
 167   0.0000       0.178164         4.8481 
 168   0.0000       0.182768         4.9734 
 169   0.0000       0.188889         5.1399 
 170   0.0000       0.191206         5.2030 
 171   0.0000       0.211609         5.7582 
 172   0.0000       0.213025         5.7967 
 173   0.0000       0.218526         5.9464 
 174   0.0000       0.228431         6.2159 
 175   0.0000       0.234866         6.3910 
 176   0.0000       0.236631         6.4391 
 177   0.0000       0.237834         6.4718 
 178   0.0000       0.238126         6.4798 
 179   0.0000       0.265435         7.2228 
 180   0.0000       0.282765         7.6944 
 181   0.0000       0.285865         7.7788 
 182   0.0000       0.296336         8.0637 
 183   0.0000       0.299601         8.1526 
 184   0.0000       0.308259         8.3882 
 185   0.0000       0.311522         8.4769 
 186   0.0000       0.312051         8.4913 
 187   0.0000       0.313941         8.5428 
 188   0.0000       0.317597         8.6423 
 189   0.0000       0.318919         8.6782 
 190   0.0000       0.324127         8.8199 
 191   0.0000       0.328306         8.9336 
 192   0.0000       0.332252         9.0410 
 193   0.0000       0.339705         9.2439 
 194   0.0000       0.351465         9.5638 
 195   0.0000       0.352089         9.5808 
 196   0.0000       0.368582        10.0296 
 197   0.0000       0.378926        10.3111 
 198   0.0000       0.380873        10.3641 
 199   0.0000       0.382454        10.4071 
 200   0.0000       0.384000        10.4492 
 201   0.0000       0.392776        10.6880 
 202   0.0000       0.393493        10.7075 
 203   0.0000       0.399852        10.8805 
 204   0.0000       0.402166        10.9435 
 205   0.0000       0.410788        11.1781 
 206   0.0000       0.415480        11.3058 
 207   0.0000       0.421793        11.4776 
 208   0.0000       0.425498        11.5784 
 209   0.0000       0.431323        11.7369 
 210   0.0000       0.435115        11.8401 
 211   0.0000       0.435872        11.8607 
 212   0.0000       0.442653        12.0452 
 213   0.0000       0.451054        12.2738 
 214   0.0000       0.460094        12.5198 
 215   0.0000       0.465563        12.6686 
 216   0.0000       0.466394        12.6912 
 217   0.0000       0.475064        12.9272 
 218   0.0000       0.476232        12.9589 
 219   0.0000       0.479350        13.0438 
 220   0.0000       0.480748        13.0818 
 221   0.0000       0.495576        13.4853 
 222   0.0000       0.505271        13.7491 
 223   0.0000       0.507112        13.7992 
 224   0.0000       0.519174        14.1274 
 225   0.0000       0.526354        14.3228 
 226   0.0000       0.527939        14.3660 
 227   0.0000       0.536568        14.6007 
 228   0.0000       0.552386        15.0312 
 229   0.0000       0.555192        15.1075 
 230   0.0000       0.559063        15.2129 
 231   0.0000       0.562552        15.3078 
 232   0.0000       0.563199        15.3254 
 233   0.0000       0.566065        15.4034 
 234   0.0000       0.572713        15.5843 
 235   0.0000       0.576518        15.6879 
 236   0.0000       0.577154        15.7052 
 237   0.0000       0.578918        15.7532 
 238   0.0000       0.585468        15.9314 
 239   0.0000       0.592340        16.1184 
 240   0.0000       0.595082        16.1930 
 241   0.0000       0.596721        16.2376 
 242   0.0000       0.600537        16.3414 
 243   0.0000       0.602086        16.3836 
 244   0.0000       0.608167        16.5491 
 245   0.0000       0.624928        17.0052 
 246   0.0000       0.626939        17.0599 
 247   0.0000       0.628664        17.1068 
 248   0.0000       0.647169        17.6104 
 249   0.0000       0.651610        17.7312 
 250   0.0000       0.653942        17.7947 
 251   0.0000       0.654539        17.8109 
 252   0.0000       0.760600        20.6970 
 253   0.0000       0.762485        20.7483 
 254   0.0000       0.780996        21.2520 
 255   0.0000       0.790935        21.5224 
 256   0.0000       0.797503        21.7012 
 257   0.0000       0.814880        22.1740 
 258   0.0000       0.815506        22.1910 
 259   0.0000       0.823527        22.4093 
 260   0.0000       0.827635        22.5211 
 261   0.0000       0.828745        22.5513 
 262   0.0000       0.835134        22.7252 
 263   0.0000       0.842490        22.9253 
 264   0.0000       0.852784        23.2054 
 265   0.0000       0.870376        23.6841 
 266   0.0000       0.887372        24.1466 
 267   0.0000       0.913894        24.8683 
 268   0.0000       0.921195        25.0670 
 269   0.0000       0.922362        25.0987 
 270   0.0000       0.934680        25.4339 
 271   0.0000       0.943688        25.6791 
 272   0.0000       0.960686        26.1416 
 273   0.0000       0.971138        26.4260 
 274   0.0000       0.972471        26.4623 
 275   0.0000       0.980928        26.6924 
 276   0.0000       1.021122        27.7861 
 277   0.0000       1.032384        28.0926 
 278   0.0000       1.033426        28.1209 
 279   0.0000       1.054956        28.7068 
 280   0.0000       1.058378        28.7999 
 281   0.0000       1.059426        28.8284 
 282   0.0000       1.073628        29.2149 
 283   0.0000       1.081791        29.4370 
 284   0.0000       1.093496        29.7555 
 285   0.0000       1.095168        29.8010 
 286   0.0000       1.099712        29.9247 
 287   0.0000       1.136678        30.9306 
 288   0.0000       1.223064        33.2813 
 289   0.0000       1.228111        33.4186 
 290   0.0000       1.322438        35.9854 
 291   0.0000       1.381377        37.5892 
 292   0.0000       1.395281        37.9675 
 293   0.0000       1.398028        38.0423 
 294   0.0000       1.404097        38.2074 
 295   0.0000       1.426401        38.8143 
 296   0.0000       1.432194        38.9720 
 297   0.0000       1.456493        39.6332 
 298   0.0000       1.457577        39.6627 
 299   0.0000       1.466175        39.8967 
 300   0.0000       1.468133        39.9499 
 301   0.0000       1.484667        40.3998 
 302   0.0000       1.485117        40.4121 
 303   0.0000       1.495963        40.7072 
 304   0.0000       1.498266        40.7699 
 305   0.0000       1.502257        40.8785 
 306   0.0000       1.513956        41.1968 
 307   0.0000       1.518242        41.3135 
 308   0.0000       1.530147        41.6374 
 309   0.0000       1.562828        42.5267 
 310   0.0000       1.570597        42.7381 
 311   0.0000       1.571554        42.7642 
 312   0.0000       1.577299        42.9205 
 313   0.0000       1.591707        43.3125 
 314   0.0000       1.594943        43.4006 
 315   0.0000       1.600212        43.5440 
 316   0.0000       1.602480        43.6057 
 317   0.0000       1.610948        43.8361 
 318   0.0000       1.615507        43.9602 
 319   0.0000       1.618794        44.0496 
 320   0.0000       1.622514        44.1509 
 321   0.0000       1.628745        44.3204 
 322   0.0000       1.629192        44.3326 
 323   0.0000       1.635798        44.5123 
 324   0.0000       1.636519        44.5319 
 325   0.0000       1.641121        44.6572 
 326   0.0000       1.644540        44.7502 
 327   0.0000       1.644995        44.7626 
 328   0.0000       1.649706        44.8908 
 329   0.0000       1.653963        45.0066 
 330   0.0000       1.655112        45.0379 
 331   0.0000       1.657003        45.0893 
 332   0.0000       1.661598        45.2144 
 333   0.0000       1.663842        45.2754 
 334   0.0000       1.666855        45.3574 
 335   0.0000       1.668746        45.4089 
 336   0.0000       1.671370        45.4803 
 337   0.0000       1.674959        45.5780 
 338   0.0000       1.678412        45.6719 
 339   0.0000       1.680028        45.7159 
 340   0.0000       1.681891        45.7666 
 341   0.0000       1.682631        45.7867 
 342   0.0000       1.683730        45.8166 
 343   0.0000       1.687122        45.9089 
 344   0.0000       1.687555        45.9207 
 345   0.0000       1.688575        45.9485 
 346   0.0000       1.689686        45.9787 
 347   0.0000       1.691100        46.0172 
 348   0.0000       1.695540        46.1380 
 349   0.0000       1.695706        46.1425 
 350   0.0000       1.698830        46.2275 
 351   0.0000       1.699368        46.2421 
 352   0.0000       1.699745        46.2524 
 353   0.0000       1.700283        46.2671 
 354   0.0000       1.701836        46.3093 
 355   0.0000       1.704086        46.3705 
 356   0.0000       1.706651        46.4403 
 357   0.0000       1.707306        46.4582 
 358   0.0000       1.707983        46.4766 
 359   0.0000       1.709214        46.5101 
 360   0.0000       1.712515        46.5999 
 361   0.0000       1.713145        46.6171 
 362   0.0000       1.714136        46.6440 
 363   0.0000       1.714984        46.6671 
 364   0.0000       1.715699        46.6865 
 365   0.0000       1.717487        46.7352 
 366   0.0000       1.720909        46.8283 
 367   0.0000       1.722886        46.8821 
 368   0.0000       1.728973        47.0477 
 369   0.0000       1.729265        47.0557 
 370   0.0000       1.731375        47.1131 
 371   0.0000       1.733873        47.1811 
 372   0.0000       1.734835        47.2073 
 373   0.0000       1.737493        47.2796 
 374   0.0000       1.738162        47.2978 
 375   0.0000       1.738610        47.3100 
 376   0.0000       1.742611        47.4188 
 377   0.0000       1.746334        47.5202 
 378   0.0000       1.746935        47.5365 
 379   0.0000       1.750951        47.6458 
 380   0.0000       1.753516        47.7156 
 381   0.0000       1.755196        47.7613 
 382   0.0000       1.758038        47.8387 
 383   0.0000       1.759230        47.8711 
 384   0.0000       1.760506        47.9058 
 385   0.0000       1.761535        47.9338 
 386   0.0000       1.763647        47.9913 
 387   0.0000       1.766067        48.0571 
 388   0.0000       1.770741        48.1843 
 389   0.0000       1.775491        48.3136 
 390   0.0000       1.780291        48.4442 
 391   0.0000       1.782919        48.5157 
 392   0.0000       1.784901        48.5696 
 393   0.0000       1.791709        48.7549 
 394   0.0000       1.793087        48.7924 
 395   0.0000       1.795729        48.8643 
 396   0.0000       1.796552        48.8867 
 397   0.0000       1.800223        48.9866 
 398   0.0000       1.801835        49.0304 
 399   0.0000       1.808490        49.2115 
 400   0.0000       1.809416        49.2367 
 401   0.0000       1.816994        49.4429 
 402   0.0000       1.817401        49.4540 
 403   0.0000       1.821507        49.5657 
 404   0.0000       1.830396        49.8076 
 405   0.0000       1.830937        49.8223 
 406   0.0000       1.831563        49.8394 
 407   0.0000       1.845291        50.2129 
 408   0.0000       1.858725        50.5785 
 409   0.0000       1.866238        50.7829 
 410   0.0000       1.870675        50.9037 
 411   0.0000       1.872563        50.9550 
 412   0.0000       1.889256        51.4093 
 413   0.0000       1.914116        52.0857 
 414   0.0000       1.920543        52.2606 
 415   0.0000       1.931492        52.5586 
 416   0.0000       1.942836        52.8673 
 417   0.0000       1.952609        53.1332 
 418   0.0000       1.955238        53.2047 
 419   0.0000       1.967960        53.5509 
 420   0.0000       1.972522        53.6751 
 421   0.0000       1.975488        53.7558 
 422   0.0000       1.978359        53.8339 
 423   0.0000       1.985802        54.0364 
 424   0.0000       1.995753        54.3072 
 425   0.0000       1.999516        54.4096 
 426   0.0000       2.002661        54.4952 
 427   0.0000       2.013386        54.7870 
 428   0.0000       2.018643        54.9301 
 429   0.0000       2.033303        55.3290 
 430   0.0000       2.047320        55.7104 
 431   0.0000       2.050628        55.8004 
 432   0.0000       2.095547        57.0227 
 433   0.0000       2.100756        57.1645 
 434   0.0000       2.129545        57.9479 
 435   0.0000       2.193561        59.6898 
 436   0.0000       2.281515        62.0832 
 437   0.0000       2.348625        63.9093 
 438   0.0000       2.438740        66.3615 
 439   0.0000       2.509680        68.2919 
 440   0.0000       2.519720        68.5651 
 441   0.0000       2.599876        70.7462 
 442   0.0000       2.618116        71.2426 
 443   0.0000       2.660399        72.3931 
 444   0.0000       2.672022        72.7094 
 445   0.0000       2.689241        73.1780 
 446   0.0000       2.698953        73.4423 
 447   0.0000       2.714624        73.8687 
 448   0.0000       2.717798        73.9550 
 449   0.0000       2.740705        74.5784 
 450   0.0000       2.751123        74.8619 
 451   0.0000       2.764720        75.2318 
 452   0.0000       3.288290        89.4789 
 453   0.0000       3.447347        93.8071 
 454   0.0000       3.449300        93.8602 
 455   0.0000       3.456479        94.0556 
 456   0.0000       3.458405        94.1080 
 457   0.0000       3.461266        94.1858 
 458   0.0000       3.461699        94.1976 
 459   0.0000       3.479207        94.6740 
 460   0.0000       3.595124        97.8283 
 461   0.0000       3.664765        99.7233 
 462   0.0000       3.675039       100.0029 
 463   0.0000       3.710527       100.9686 
 464   0.0000       3.762228       102.3754 
 465   0.0000      23.850510       649.0054 
 466   0.0000      24.086647       655.4310 
 467   0.0000      24.168703       657.6639 
 468   0.0000      24.272956       660.5007 
 469   0.0000      24.402602       664.0286 
 470   0.0000      24.521883       667.2743 
 471   0.0000      24.873501       676.8424 
 472   0.0000      25.001384       680.3222 
 473   0.0000      25.488630       693.5809 
 474   0.0000      25.510266       694.1696 
 475   0.0000      25.545447       695.1270 
 476   0.0000      25.591412       696.3777 
 477   0.0000      25.713338       699.6955 
 478   0.0000      25.830234       702.8764 
 479   0.0000      25.856527       703.5919 
 480   0.0000      25.880942       704.2562 
 481   0.0000      26.037727       708.5226 
 482   0.0000      26.255435       714.4467 
 483   0.0000      26.273061       714.9263 
 484   0.0000      26.439353       719.4514 
 485   0.0000      26.603373       723.9146 
 486   0.0000      26.614025       724.2044 
 487   0.0000      26.664163       725.5688 
 488   0.0000      26.699377       726.5270 
 489   0.0000      27.109690       737.6922 
 490   0.0000      27.347515       744.1637 
 491   0.0000      27.369410       744.7595 
 492   0.0000      27.522473       748.9246 
 493   0.0000      27.625545       751.7293 
 494   0.0000      27.870676       758.3997 
 495   0.0000      28.038791       762.9743 
 496   0.0000      28.226154       768.0727 
 497   0.0000      28.307261       770.2797 
 498   0.0000      29.141178       792.9718 
 499   0.0000      30.534580       830.8882 
 500   0.0000      30.923416       841.4689 
 501   0.0000      44.083329      1199.5684 
 502   0.0000      44.218559      1203.2481 
 503   0.0000      44.247760      1204.0428 
 504   0.0000      44.309171      1205.7138 
 505   0.0000      44.316961      1205.9258 
 506   0.0000      44.332413      1206.3463 
 507   0.0000      44.350573      1206.8404 
 508   0.0000      44.352925      1206.9045 
 509   0.0000      44.358997      1207.0697 
 510   0.0000      44.369547      1207.3567 
 511   0.0000      44.374142      1207.4818 
 512   0.0000      44.397219      1208.1098 
 513   0.0000     202.662236      5514.7198 
 514   0.0000     202.718955      5516.2632 
 515   0.0000     202.727787      5516.5035 
 516   0.0000     202.747631      5517.0435 
 517   0.0000     202.761923      5517.4324 
 518   0.0000     202.762984      5517.4613 
 519   0.0000     202.771780      5517.7006 
 520   0.0000     202.774132      5517.7646 
 521   0.0000     202.775440      5517.8002 
 522   0.0000     202.779037      5517.8981 
 523   0.0000     202.779923      5517.9222 
 524   0.0000     202.791468      5518.2364 

                 SPIN DOWN ORBITALS
  NO   OCC          E(Eh)            E(eV) 
   0   1.0000    -237.624908     -6466.1025 
   1   1.0000     -28.027063      -762.6552 
   2   1.0000     -23.953827      -651.8168 
   3   1.0000     -23.952994      -651.7941 
   4   1.0000     -23.952454      -651.7794 
   5   1.0000      -4.412333      -120.0657 
   6   1.0000      -4.410212      -120.0080 
   7   1.0000      -4.404002      -119.8390 
   8   1.0000      -4.402755      -119.8050 
   9   1.0000      -4.399598      -119.7191 
  10   1.0000      -4.399065      -119.7046 
  11   1.0000      -4.397565      -119.6638 
  12   1.0000      -4.394063      -119.5685 
  13   1.0000      -4.393790      -119.5611 
  14   1.0000      -4.393418      -119.5510 
  15   1.0000      -4.393110      -119.5426 
  16   1.0000      -4.384829      -119.3173 
  17   1.0000      -3.323644       -90.4410 
  18   1.0000      -2.532643       -68.9167 
  19   1.0000      -2.530181       -68.8497 
  20   1.0000      -2.529932       -68.8430 
  21   1.0000      -2.528538       -68.8050 
  22   1.0000      -2.526796       -68.7576 
  23   1.0000      -2.524981       -68.7082 
  24   1.0000      -2.523050       -68.6557 
  25   1.0000      -2.522140       -68.6309 
  26   1.0000      -2.521702       -68.6190 
  27   1.0000      -2.520632       -68.5899 
  28   1.0000      -2.520258       -68.5797 
  29   1.0000      -2.519752       -68.5659 
  30   1.0000      -2.519290       -68.5534 
  31   1.0000      -2.518540       -68.5330 
  32   1.0000      -2.517559       -68.5063 
  33   1.0000      -2.516846       -68.4869 
  34   1.0000      -2.516019       -68.4644 
  35   1.0000      -2.514981       -68.4361 
  36   1.0000      -2.514047       -68.4107 
  37   1.0000      -2.513371       -68.3923 
  38   1.0000      -2.512533       -68.3695 
  39   1.0000      -2.512285       -68.3628 
  40   1.0000      -2.511400       -68.3387 
  41   1.0000      -2.511205       -68.3333 
  42   1.0000      -2.510720       -68.3202 
  43   1.0000      -2.510133       -68.3042 
  44   1.0000      -2.510046       -68.3018 
  45   1.0000      -2.509906       -68.2980 
  46   1.0000      -2.509614       -68.2901 
  47   1.0000      -2.509486       -68.2866 
  48   1.0000      -2.508051       -68.2475 
  49   1.0000      -2.506826       -68.2142 
  50   1.0000      -2.506647       -68.2093 
  51   1.0000      -2.503372       -68.1202 
  52   1.0000      -2.500158       -68.0328 
  53   1.0000      -2.499705       -68.0204 
  54   1.0000      -2.085525       -56.7500 
  55   1.0000      -2.084458       -56.7210 
  56   1.0000      -2.083186       -56.6864 
  57   1.0000      -0.510943       -13.9035 
  58   1.0000      -0.474571       -12.9137 
  59   1.0000      -0.470932       -12.8147 
  60   1.0000      -0.466922       -12.7056 
  61   1.0000      -0.466001       -12.6805 
  62   1.0000      -0.465077       -12.6554 
  63   1.0000      -0.462940       -12.5972 
  64   1.0000      -0.460100       -12.5200 
  65   1.0000      -0.456366       -12.4184 
  66   1.0000      -0.455974       -12.4077 
  67   1.0000      -0.453539       -12.3414 
  68   1.0000      -0.452992       -12.3265 
  69   1.0000      -0.452277       -12.3071 
  70   1.0000      -0.447901       -12.1880 
  71   1.0000      -0.446556       -12.1514 
  72   1.0000      -0.441987       -12.0271 
  73   1.0000      -0.438370       -11.9287 
  74   1.0000      -0.434254       -11.8166 
  75   1.0000      -0.432807       -11.7773 
  76   1.0000      -0.430032       -11.7018 
  77   1.0000      -0.427166       -11.6238 
  78   1.0000      -0.424686       -11.5563 
  79   1.0000      -0.421451       -11.4683 
  80   1.0000      -0.417579       -11.3629 
  81   1.0000      -0.414129       -11.2690 
  82   1.0000      -0.410841       -11.1796 
  83   1.0000      -0.410273       -11.1641 
  84   1.0000      -0.405137       -11.0243 
  85   1.0000      -0.404282       -11.0011 
  86   1.0000      -0.400141       -10.8884 
  87   1.0000      -0.396842       -10.7986 
  88   1.0000      -0.390616       -10.6292 
  89   1.0000      -0.389295       -10.5932 
  90   1.0000      -0.388650       -10.5757 
  91   1.0000      -0.381264       -10.3747 
  92   1.0000      -0.379065       -10.3149 
  93   1.0000      -0.377168       -10.2633 
  94   1.0000      -0.375733       -10.2242 
  95   1.0000      -0.373960       -10.1760 
  96   1.0000      -0.373132       -10.1534 
  97   1.0000      -0.370797       -10.0899 
  98   1.0000      -0.367694       -10.0055 
  99   1.0000      -0.367366        -9.9965 
 100   1.0000      -0.364733        -9.9249 
 101   1.0000      -0.363685        -9.8964 
 102   1.0000      -0.362370        -9.8606 
 103   1.0000      -0.361936        -9.8488 
 104   1.0000      -0.358862        -9.7651 
 105   1.0000      -0.356231        -9.6935 
 106   1.0000      -0.354439        -9.6448 
 107   1.0000      -0.351713        -9.5706 
 108   1.0000      -0.350328        -9.5329 
 109   1.0000      -0.347867        -9.4659 
 110   1.0000      -0.347424        -9.4539 
 111   1.0000      -0.345093        -9.3905 
 112   1.0000      -0.344302        -9.3689 
 113   1.0000      -0.343500        -9.3471 
 114   1.0000      -0.338607        -9.2140 
 115   1.0000      -0.331218        -9.0129 
 116   1.0000      -0.328557        -8.9405 
 117   1.0000      -0.327728        -8.9179 
 118   1.0000      -0.321191        -8.7401 
 119   1.0000      -0.312193        -8.4952 
 120   1.0000      -0.285093        -7.7578 
 121   1.0000      -0.237987        -6.4759 
 122   1.0000      -0.215466        -5.8631 
 123   1.0000      -0.212898        -5.7932 
 124   0.0000      -0.125257        -3.4084 
 125   0.0000      -0.090375        -2.4592 
 126   0.0000      -0.073416        -1.9977 
 127   0.0000      -0.049644        -1.3509 
 128   0.0000      -0.048948        -1.3319 
 129   0.0000      -0.033358        -0.9077 
 130   0.0000      -0.008171        -0.2223 
 131   0.0000      -0.006520        -0.1774 
 132   0.0000      -0.003789        -0.1031 
 133   0.0000      -0.002497        -0.0680 
 134   0.0000       0.008290         0.2256 
 135   0.0000       0.012614         0.3432 
 136   0.0000       0.014585         0.3969 
 137   0.0000       0.016389         0.4460 
 138   0.0000       0.017084         0.4649 
 139   0.0000       0.019467         0.5297 
 140   0.0000       0.024778         0.6743 
 141   0.0000       0.042810         1.1649 
 142   0.0000       0.063201         1.7198 
 143   0.0000       0.070008         1.9050 
 144   0.0000       0.074942         2.0393 
 145   0.0000       0.088870         2.4183 
 146   0.0000       0.089851         2.4450 
 147   0.0000       0.091788         2.4977 
 148   0.0000       0.093240         2.5372 
 149   0.0000       0.093918         2.5556 
 150   0.0000       0.098718         2.6863 
 151   0.0000       0.100466         2.7338 
 152   0.0000       0.104224         2.8361 
 153   0.0000       0.108740         2.9590 
 154   0.0000       0.112054         3.0491 
 155   0.0000       0.112584         3.0636 
 156   0.0000       0.114828         3.1246 
 157   0.0000       0.115516         3.1433 
 158   0.0000       0.116544         3.1713 
 159   0.0000       0.117665         3.2018 
 160   0.0000       0.138478         3.7682 
 161   0.0000       0.143354         3.9009 
 162   0.0000       0.146862         3.9963 
 163   0.0000       0.147778         4.0212 
 164   0.0000       0.157467         4.2849 
[...]
      f+3     :    -0.000014
      f-3     :    -0.000002
  1 Aus       :    -0.102533  s :    -0.102533
      pz      :    -0.026288  p :    -0.063227
      px      :    -0.007038
      py      :    -0.029901
      dz2     :     0.000516  d :     0.001334
      dxz     :     0.002696
      dyz     :    -0.007078
      dx2y2   :     0.004911
      dxy     :     0.000289
      f0      :     0.000018  f :     0.000199
      f+1     :     0.000053
      f-1     :    -0.000008
      f+2     :     0.000058
      f-2     :    -0.000020
      f+3     :     0.000056
      f-3     :     0.000042
  2 Aus       :    -0.026248  s :    -0.026248
      pz      :     0.007882  p :    -0.026569
      px      :    -0.022645
      py      :    -0.011807
      dz2     :     0.006372  d :    -0.004788
      dxz     :    -0.001103
      dyz     :     0.000605
      dx2y2   :    -0.003479
      dxy     :    -0.007184
      f0      :     0.000063  f :     0.000076
      f+1     :     0.000031
      f-1     :     0.000019
      f+2     :    -0.000027
      f-2     :    -0.000014
      f+3     :    -0.000002
      f-3     :     0.000006
  3 Aus       :    -0.089877  s :    -0.089877
      pz      :     0.000915  p :    -0.061135
      px      :    -0.037797
      py      :    -0.024253
      dz2     :    -0.010959  d :    -0.010253
      dxz     :     0.004685
      dyz     :     0.002232
      dx2y2   :    -0.003771
      dxy     :    -0.002441
      f0      :    -0.000006  f :     0.000049
      f+1     :    -0.000002
      f-1     :    -0.000003
      f+2     :     0.000054
      f-2     :     0.000007
      f+3     :     0.000004
      f-3     :    -0.000006
  4 Aus       :    -0.128829  s :    -0.128829
      pz      :    -0.009269  p :    -0.068343
      px      :    -0.028764
      py      :    -0.030310
      dz2     :    -0.004239  d :     0.003559
      dxz     :     0.004930
      dyz     :     0.001613
      dx2y2   :     0.002392
      dxy     :    -0.001136
      f0      :    -0.000001  f :     0.000158
      f+1     :     0.000047
      f-1     :    -0.000002
      f+2     :     0.000034
      f-2     :     0.000066
      f+3     :    -0.000005
      f-3     :     0.000018
  5 Aus       :    -0.024863  s :    -0.024863
      pz      :    -0.000272  p :    -0.026122
      px      :    -0.000394
      py      :    -0.025456
      dz2     :    -0.001908  d :    -0.004375
      dxz     :    -0.003868
      dyz     :    -0.002263
      dx2y2   :    -0.001215
      dxy     :     0.004879
      f0      :     0.000011  f :     0.000078
      f+1     :    -0.000010
      f-1     :     0.000011
      f+2     :    -0.000020
      f-2     :     0.000033
      f+3     :     0.000026
      f-3     :     0.000027
  6 Aus       :    -0.102230  s :    -0.102230
      pz      :     0.002165  p :    -0.062038
      px      :    -0.048073
      py      :    -0.016130
      dz2     :    -0.001489  d :     0.001301
      dxz     :     0.002423
      dyz     :     0.004289
      dx2y2   :    -0.000431
      dxy     :    -0.003490
      f0      :     0.000019  f :     0.000202
      f+1     :     0.000011
      f-1     :     0.000028
      f+2     :     0.000074
      f-2     :     0.000042
      f+3     :     0.000015
      f-3     :     0.000012
  7 Aus       :    -0.027239  s :    -0.027239
      pz      :     0.004029  p :    -0.044941
      px      :    -0.023219
      py      :    -0.025752
      dz2     :     0.006825  d :    -0.018411
      dxz     :    -0.002826
      dyz     :     0.000340
      dx2y2   :    -0.011169
      dxy     :    -0.011581
      f0      :     0.000072  f :    -0.000044
      f+1     :    -0.000006
      f-1     :     0.000006
      f+2     :    -0.000063
      f-2     :    -0.000050
      f+3     :    -0.000005
      f-3     :     0.000002
  8 Aus       :    -0.024749  s :    -0.024749
      pz      :    -0.003399  p :    -0.044761
      px      :    -0.004064
      py      :    -0.037297
      dz2     :    -0.002485  d :    -0.018802
      dxz     :    -0.008694
      dyz     :    -0.005693
      dx2y2   :    -0.004339
      dxy     :     0.002409
      f0      :    -0.000002  f :    -0.000046
      f+1     :    -0.000023
      f-1     :    -0.000015
      f+2     :    -0.000032
      f-2     :     0.000048
      f+3     :     0.000002
      f-3     :    -0.000025
  9 Aus       :     0.023466  s :     0.023466
      pz      :    -0.080552  p :    -0.179559
      px      :    -0.075339
      py      :    -0.023668
      dz2     :    -0.001819  d :    -0.000425
      dxz     :     0.000648
      dyz     :    -0.002811
      dx2y2   :     0.001132
      dxy     :     0.002425
      f0      :     0.000013  f :     0.000062
      f+1     :    -0.000017
      f-1     :    -0.000001
      f+2     :     0.000005
      f-2     :     0.000016
      f+3     :     0.000060
      f-3     :    -0.000015
 10 Aus       :    -0.090761  s :    -0.090761
      pz      :    -0.022745  p :    -0.061992
      px      :    -0.006050
      py      :    -0.033197
      dz2     :     0.000356  d :    -0.009822
      dxz     :    -0.000338
      dyz     :    -0.013662
      dx2y2   :     0.004869
      dxy     :    -0.001048
      f0      :     0.000018  f :     0.000053
      f+1     :     0.000007
      f-1     :    -0.000020
      f+2     :     0.000057
      f-2     :    -0.000045
      f+3     :     0.000056
      f-3     :    -0.000020
 11 Aus       :    -0.101277  s :    -0.101277
      pz      :    -0.002109  p :    -0.047680
      px      :    -0.015114
      py      :    -0.030457
      dz2     :    -0.002919  d :     0.012643
      dxz     :     0.002885
      dyz     :     0.008336
      dx2y2   :     0.003556
      dxy     :     0.000785
      f0      :     0.000007  f :     0.000192
      f+1     :     0.000025
      f-1     :     0.000017
      f+2     :     0.000038
      f-2     :     0.000083
      f+3     :     0.000008
      f-3     :     0.000014
 12 Mns       :     0.020177  s :     0.020177
      pz      :     0.010370  p :     0.035184
      px      :     0.011818
      py      :     0.012996
      dz2     :     0.910491  d :     4.354523
      dxz     :     0.870661
      dyz     :     0.882205
      dx2y2   :     0.831315
      dxy     :     0.859851
      f0      :     0.000003  f :     0.000016
      f+1     :     0.000004
      f-1     :     0.000002
      f+2     :     0.000002
      f-2     :     0.000002
      f+3     :     0.000001
      f-3     :     0.000002


                      *****************************
                      * MAYER POPULATION ANALYSIS *
                      *****************************

  NA   - Mulliken gross atomic population
  ZA   - Total nuclear charge
  QA   - Mulliken gross atomic charge
  VA   - Mayer's total valence
  BVA  - Mayer's bonded valence
  FA   - Mayer's free valence

  ATOM       NA         ZA         QA         VA         BVA        FA
  0 Au    18.7195    19.0000     0.2805     1.2856     1.2807     0.0050
  1 Au    18.7313    19.0000     0.2687     1.3518     1.3030     0.0488
  2 Au    18.9919    19.0000     0.0081     1.5124     1.5063     0.0061
  3 Au    18.7470    19.0000     0.2530     1.4622     1.4142     0.0480
  4 Au    18.7300    19.0000     0.2700     1.3743     1.2943     0.0800
  5 Au    18.9941    19.0000     0.0059     1.5097     1.5040     0.0058
  6 Au    18.7293    19.0000     0.2707     1.3520     1.3038     0.0483
  7 Au    18.8743    19.0000     0.1257     1.4490     1.4348     0.0142
  8 Au    18.8767    19.0000     0.1233     1.4491     1.4356     0.0135
  9 Au    18.7389    19.0000     0.2611     1.5657     1.5547     0.0110
 10 Au    18.7458    19.0000     0.2542     1.4565     1.4078     0.0487
 11 Au    18.9679    19.0000     0.0321     1.8003     1.7242     0.0761
 12 Mn    27.1534    25.0000    -2.1534     9.4125     4.9464     4.4660

  Mayer bond orders larger than 0.100000
B(  0-Au,  2-Au) :   0.3078 B(  0-Au,  5-Au) :   0.3092 B(  0-Au, 11-Au) :   0.3664 
B(  0-Au, 12-Mn) :   0.1228 B(  1-Au,  2-Au) :   0.1894 B(  1-Au,  3-Au) :   0.1038 
B(  1-Au,  4-Au) :   0.1603 B(  1-Au,  8-Au) :   0.1435 B(  1-Au, 12-Mn) :   0.5169 
B(  2-Au,  3-Au) :   0.2022 B(  2-Au, 11-Au) :   0.1459 B(  2-Au, 12-Mn) :   0.4318 
B(  3-Au,  8-Au) :   0.1634 B(  3-Au,  9-Au) :   0.2207 B(  3-Au, 11-Au) :   0.1184 
B(  3-Au, 12-Mn) :   0.4676 B(  4-Au,  6-Au) :   0.1596 B(  4-Au,  7-Au) :   0.1704 
B(  4-Au,  8-Au) :   0.1705 B(  4-Au, 12-Mn) :   0.4537 B(  5-Au,  6-Au) :   0.1900 
B(  5-Au, 10-Au) :   0.1988 B(  5-Au, 11-Au) :   0.1418 B(  5-Au, 12-Mn) :   0.4350 
B(  6-Au,  7-Au) :   0.1465 B(  6-Au, 10-Au) :   0.1007 B(  6-Au, 12-Mn) :   0.5177 
B(  7-Au,  8-Au) :   0.1510 B(  7-Au,  9-Au) :   0.1993 B(  7-Au, 10-Au) :   0.1617 
B(  7-Au, 12-Mn) :   0.4133 B(  8-Au,  9-Au) :   0.2026 B(  8-Au, 12-Mn) :   0.4122 
B(  9-Au, 10-Au) :   0.2211 B(  9-Au, 11-Au) :   0.2584 B(  9-Au, 12-Mn) :   0.2443 
B( 10-Au, 11-Au) :   0.1175 B( 10-Au, 12-Mn) :   0.4692 B( 11-Au, 12-Mn) :   0.4618 


-------
TIMINGS
-------

Total SCF time: 0 days 0 hours 13 min 32 sec 

Total time                  ....     812.344 sec
Sum of individual times     ....     809.619 sec  ( 99.7%)

Fock matrix formation       ....     785.348 sec  ( 96.7%)
  Split-RI-J                ....      46.068 sec  (  5.9% of F)
  Chain of spheres X        ....     657.327 sec  ( 83.7% of F)
  XC integration            ....      80.360 sec  ( 10.2% of F)
    Basis function eval.    ....      10.543 sec  ( 13.1% of XC)
    Density eval.           ....      37.200 sec  ( 46.3% of XC)
    XC-Functional eval.     ....       1.180 sec  (  1.5% of XC)
    XC-Potential eval.      ....      21.689 sec  ( 27.0% of XC)
Diagonalization             ....      13.436 sec  (  1.7%)
Density matrix formation    ....       0.385 sec  (  0.0%)
Population analysis         ....       0.245 sec  (  0.0%)
Initial guess               ....       0.453 sec  (  0.1%)
Orbital Transformation      ....       0.000 sec  (  0.0%)
Orbital Orthonormalization  ....       0.406 sec  (  0.0%)
DIIS solution               ....       5.079 sec  (  0.6%)
Grid generation             ....       4.673 sec  (  0.6%)

Maximum memory used throughout the entire SCF-calculation: 128.2 MB


           ************************************************************
           *        Program running with 6 parallel MPI-processes     *
           *              working on a common directory               *
           ************************************************************

------------------------------------------------------------------------------
                                ORCA  MP2 
------------------------------------------------------------------------------

Freezing NCore=10 chemical core electrons

   <<< Use J-auxbasis for calculation of Separable RI-J derivative contributions (Dim=1157) >>> 


-------------
RI-MP2 ENERGY
-------------
Dimension of the basis                    ...  525
Memory devoted to MP2                     ...  256 MB   
Data format for buffers                   ... DOUBLE
Compression type for matrix containers    ... UNCOMPRESSED
Overall scaling of the MP2 energy         ...   2.700e-01
Calculating two index integrals           ... done (    0.059 sec)
Cholesky decomposition of V**-1           ... done (    0.694 sec)

-----------------
RI-TRANSFORMATION (AUX index driven)
-----------------

Dimension of the orbital-basis         ... 525
Dimension of the aux-basis             ... 1994
Transformation of internal/external MOs...    5- 127 to  128- 524
Number Format for Storage              ... Double (8 Byte)
Integral mode                          ... Direct

First Phase: integral generation and transformation of MO indices
  Aux angular momentum 0               ... done (    0.282 sec)
  Aux angular momentum 1               ... done (    0.660 sec)
  Aux angular momentum 2               ... done (    0.982 sec)
  Aux angular momentum 3               ... done (    0.937 sec)
  Aux angular momentum 4               ... done (    0.815 sec)
  Aux angular momentum 5               ... done (    0.804 sec)
Closing buffer VIA ( 0.73 GB; CompressionRatio= 1.00)
  Phase 1 completed in     7.508 sec
Second Phase: sorting and transformation of aux index

IA-Transformation
Memory available                       ... 176 MB 
Max. # MO pairs treated in a batch     ... 21    
# of internal orbitals                 ... 123
# batches for internal orbitals        ... 1
Closing buffer IAV ( 0.73 GB; CompressionRatio= 1.00)
(ia|v) transformation done in     7.143 sec

  Phase 2 completed in     7.275 sec
RI-Integral transformation completed in    14.784 sec

-----------------
RI-TRANSFORMATION (AUX index driven)
-----------------

Dimension of the orbital-basis         ... 525
Dimension of the aux-basis             ... 1994
Transformation of internal/external MOs...    5- 124 to  125- 524
Number Format for Storage              ... Double (8 Byte)
Integral mode                          ... Direct

First Phase: integral generation and transformation of MO indices
  Aux angular momentum 0               ... done (    0.238 sec)
  Aux angular momentum 1               ... done (    0.623 sec)
  Aux angular momentum 2               ... done (    0.948 sec)
  Aux angular momentum 3               ... done (    0.921 sec)
  Aux angular momentum 4               ... done (    0.796 sec)
  Aux angular momentum 5               ... done (    0.787 sec)
Closing buffer VIA ( 0.71 GB; CompressionRatio= 1.00)
  Phase 1 completed in     7.265 sec
Second Phase: sorting and transformation of aux index

IA-Transformation
Memory available                       ... 176 MB 
Max. # MO pairs treated in a batch     ... 20    
# of internal orbitals                 ... 120
# batches for internal orbitals        ... 1
Closing buffer IAV ( 0.71 GB; CompressionRatio= 1.00)
(ia|v) transformation done in     6.784 sec

  Phase 2 completed in     6.915 sec
RI-Integral transformation completed in    14.180 sec
Opening buffers                              ... done

Starting loop over batches of integrals:

Operator 0  - window                       ... (  5-127)x(128-524)
Operator 0  - Memory available             ...   256 MB
Operator 0  - Memory needed per MO         ...   6.0 MB
Operator 0  - Number of orbitals per batch ... 21
Operator 0  - Number of batches            ... 1

OPERATOR  0   PASS   0:  MOs     5 ...   25 +   26 ...   46 +   47 ...   67 +   68 ...   88
                            +   89 ...  109 +  110 ...  127
  Reading integrals       ... ok
  Internal MO   7
  Internal MO  10
  Internal MO  13
  Internal MO  16
  Internal MO  19
  Internal MO  22
  Internal MO  25

Operator 1  - window                       ... (  5-124)x(125-524)
Operator 1  - Memory available             ...   256 MB
Operator 1  - Memory needed per MO         ...   6.1 MB
Operator 1  - Number of orbitals per batch ... 20
Operator 1  - Number of batches            ... 1

OPERATOR  1   PASS   0:  MOs     5 ...   24 +   25 ...   44 +   45 ...   64 +   65 ...   84
                            +   85 ...  104 +  105 ...  124
  Reading integrals       ... ok
  Internal MO   7
  Internal MO  10
  Internal MO  13
  Internal MO  16
  Internal MO  19
  Internal MO  22
Time spent in pair loops =   344.779 sec
Deleting buffer (Ka|jb)[aa] ...done
Deleting buffer (Ka|jb)[ba] ...done
Deleting buffer (Ka|jb)[ab] ...done
Deleting buffer (Ka|jb)[bb] ...done

Correlation energy components}
 E2 and T2 for alpha/alpha pairs :     -0.365947083 Eh      0.000000000
 E2 and T2 for beta/beta   pairs :     -0.357042031 Eh      0.000000000
 E2 and T2 for alpha/beta  pairs :     -1.222071969 Eh      0.000000000


-----------------------------------------------
 RI-MP2 CORRELATION ENERGY:     -1.945061084 Eh
-----------------------------------------------


-------
TIMINGS
-------

Total time                :  526.299 sec
Integral trafo            :   28.994 sec (  5.5%)
I/O of integrals          :    0.148 sec (  0.0%)
K(i,j) Operators          :  168.636 sec ( 32.0%)
T(i,j) pair energies      :    2.805 sec (  0.5%)
V-calculation             :    0.059 sec (  0.0%)
V**(-1/2)                 :    0.694 sec (  0.1%)
Gamma(ia|P)               :    0.000 sec (  0.0%)
Gamma-Trafo               :    0.000 sec (  0.0%)
D(virtual)                :    0.000 sec (  0.0%)
D(internal)               :    0.000 sec (  0.0%)
W(virtual)                :    0.000 sec (  0.0%)
W(internal)               :    0.000 sec (  0.0%)
L(virtual)                :    0.000 sec (  0.0%)
L(internal)               :    0.000 sec (  0.0%)
G(D)                      :    0.000 sec (  0.0%)
G(Z)                      :    0.000 sec (  0.0%)
Z-Vector Solution         :    0.000 sec (  0.0%)
3-Index Derivative        :    0.000 sec (  0.0%)
2-Index Derivative        :    0.000 sec (  0.0%)
Separable Gradient (RIJ)  :    0.000 sec (  0.0%)
Separable Gradient (COSX) :    0.000 sec (  0.0%)


---------------------------------------
MP2 TOTAL ENERGY:    -2777.854730903 Eh
---------------------------------------

Maximum memory used throughout the entire MP2-calculation: 257.5 MB

-------------------------   --------------------
FINAL SINGLE POINT ENERGY     -2777.854730903447
-------------------------   --------------------


                            ***************************************
                            *     ORCA property calculations      *
                            ***************************************


  WARNING: The energy has been calculated at the MP2 level but the densities
           used in the property calculations are still SCF densities
           MP2 response densities have not been calculated 
           use %mp2 Density relaxed end
           or  %mp2 Density unrelaxed end

                                    ---------------------
                                    Active property flags
                                    ---------------------
   (+) Dipole Moment


------------------------------------------------------------------------------
                       ORCA ELECTRIC PROPERTIES CALCULATION
------------------------------------------------------------------------------

Dipole Moment Calculation                       ... on
Quadrupole Moment Calculation                   ... off
Polarizability Calculation                      ... off
GBWName                                         ... b2plyp_job2.gbw
Electron density                                ... b2plyp_job2.scfp
The origin for moment calculation is the CENTER OF MASS  = (17.034475, 16.323069 13.356955)

-------------
DIPOLE MOMENT
-------------
                                X             Y             Z
Electronic contribution:     -8.85500      -9.19417       3.27623
Nuclear contribution   :      8.76809       9.04227      -3.30805
                        -----------------------------------------
Total Dipole Moment    :     -0.08690      -0.15190      -0.03182
                        -----------------------------------------
Magnitude (a.u.)       :      0.17788
Magnitude (Debye)      :      0.45212



--------------------
Rotational spectrum 
--------------------
 
Rotational constants in cm-1:     0.001580     0.001289     0.001105 
Rotational constants in MHz :    47.367865    38.636460    33.113797 

 Dipole components along the rotational axes: 
x,y,z [a.u.] :    -0.013989    -0.002272     0.177310 
x,y,z [Debye]:    -0.035558    -0.005774     0.450685 

 

Timings for individual modules:

Sum of individual times         ...     1350.692 sec (=  22.512 min)
GTO integral calculation        ...       11.192 sec (=   0.187 min)   0.8 %
SCF iterations                  ...      812.609 sec (=  13.543 min)  60.2 %
MP2 module                      ...      526.890 sec (=   8.782 min)  39.0 %



                             ****ORCA TERMINATED NORMALLY****
TOTAL RUN TIME: 0 days 0 hours 57 minutes 37 seconds 543 msec
