
                                 *****************
                                 * O   R   C   A *
                                 *****************

                                            #,                                       
                                            ###                                      
                                            ####                                     
                                            #####                                    
                                            ######                                   
                                           ########,                                 
                                     ,,################,,,,,                         
                               ,,#################################,,                 
                          ,,##########################################,,             
                       ,#########################################, ''#####,          
                    ,#############################################,,   '####,        
                  ,##################################################,,,,####,       
                ,###########''''           ''''###############################       
              ,#####''   ,,,,##########,,,,          '''####'''          '####       
            ,##' ,,,,###########################,,,                        '##       
           ' ,,###''''                  '''############,,,                           
         ,,##''                                '''############,,,,        ,,,,,,###''
      ,#''                                            '''#######################'''  
     '                                                          ''''####''''         
             ,#######,   #######,   ,#######,      ##                                
            ,#'     '#,  ##    ##  ,#'     '#,    #''#        ######   ,####,        
            ##       ##  ##   ,#'  ##            #'  '#       #        #'  '#        
            ##       ##  #######   ##           ,######,      #####,   #    #        
            '#,     ,#'  ##    ##  '#,     ,#' ,#      #,         ##   #,  ,#        
             '#######'   ##     ##  '#######'  #'      '#     #####' # '####'        



                  #######################################################
                  #                        -***-                        #
                  #          Department of theory and spectroscopy      #
                  #    Directorship and core code : Frank Neese         #
                  #        Max Planck Institute fuer Kohlenforschung    #
                  #                Kaiser Wilhelm Platz 1               #
                  #                 D-45470 Muelheim/Ruhr               #
                  #                      Germany                        #
                  #                                                     #
                  #                  All rights reserved                #
                  #                        -***-                        #
                  #######################################################


                         Program Version 5.0.3 -  RELEASE  -


 With contributions from (in alphabetic order):
   Daniel Aravena         : Magnetic Suceptibility
   Michael Atanasov       : Ab Initio Ligand Field Theory (pilot matlab implementation)
   Alexander A. Auer      : GIAO ZORA, VPT2 properties, NMR spectrum
   Ute Becker             : Parallelization
   Giovanni Bistoni       : ED, misc. LED, open-shell LED, HFLD
   Martin Brehm           : Molecular dynamics
   Dmytro Bykov           : SCF Hessian
   Vijay G. Chilkuri      : MRCI spin determinant printing, contributions to CSF-ICE
   Dipayan Datta          : RHF DLPNO-CCSD density
   Achintya Kumar Dutta   : EOM-CC, STEOM-CC
   Dmitry Ganyushin       : Spin-Orbit,Spin-Spin,Magnetic field MRCI
   Miquel Garcia          : C-PCM and meta-GGA Hessian, CC/C-PCM, Gaussian charge scheme
   Yang Guo               : DLPNO-NEVPT2, F12-NEVPT2, CIM, IAO-localization
   Andreas Hansen         : Spin unrestricted coupled pair/coupled cluster methods
   Benjamin Helmich-Paris : MC-RPA, TRAH-SCF, COSX integrals
   Lee Huntington         : MR-EOM, pCC
   Robert Izsak           : Overlap fitted RIJCOSX, COSX-SCS-MP3, EOM
   Marcus Kettner         : VPT2
   Christian Kollmar      : KDIIS, OOCD, Brueckner-CCSD(T), CCSD density, CASPT2, CASPT2-K
   Simone Kossmann        : Meta GGA functionals, TD-DFT gradient, OOMP2, MP2 Hessian
   Martin Krupicka        : Initial AUTO-CI
   Lucas Lang             : DCDCAS
   Marvin Lechner         : AUTO-CI (C++ implementation), FIC-MRCC
   Dagmar Lenk            : GEPOL surface, SMD
   Dimitrios Liakos       : Extrapolation schemes; Compound Job, initial MDCI parallelization
   Dimitrios Manganas     : Further ROCIS development; embedding schemes
   Dimitrios Pantazis     : SARC Basis sets
   Anastasios Papadopoulos: AUTO-CI, single reference methods and gradients
   Taras Petrenko         : DFT Hessian,TD-DFT gradient, ASA, ECA, R-Raman, ABS, FL, XAS/XES, NRVS
   Peter Pinski           : DLPNO-MP2, DLPNO-MP2 Gradient
   Christoph Reimann      : Effective Core Potentials
   Marius Retegan         : Local ZFS, SOC
   Christoph Riplinger    : Optimizer, TS searches, QM/MM, DLPNO-CCSD(T), (RO)-DLPNO pert. Triples
   Tobias Risthaus        : Range-separated hybrids, TD-DFT gradient, RPA, STAB
   Michael Roemelt        : Original ROCIS implementation
   Masaaki Saitow         : Open-shell DLPNO-CCSD energy and density
   Barbara Sandhoefer     : DKH picture change effects
   Avijit Sen             : IP-ROCIS
   Kantharuban Sivalingam : CASSCF convergence, NEVPT2, FIC-MRCI
   Bernardo de Souza      : ESD, SOC TD-DFT
   Georgi Stoychev        : AutoAux, RI-MP2 NMR, DLPNO-MP2 response
   Willem Van den Heuvel  : Paramagnetic NMR
   Boris Wezisla          : Elementary symmetry handling
   Frank Wennmohs         : Technical directorship


 We gratefully acknowledge several colleagues who have allowed us to
 interface, adapt or use parts of their codes:
   Stefan Grimme, W. Hujo, H. Kruse, P. Pracht,  : VdW corrections, initial TS optimization,
                  C. Bannwarth, S. Ehlert          DFT functionals, gCP, sTDA/sTD-DF
   Ed Valeev, F. Pavosevic, A. Kumar             : LibInt (2-el integral package), F12 methods
   Garnet Chan, S. Sharma, J. Yang, R. Olivares  : DMRG
   Ulf Ekstrom                                   : XCFun DFT Library
   Mihaly Kallay                                 : mrcc  (arbitrary order and MRCC methods)
   Jiri Pittner, Ondrej Demel                    : Mk-CCSD
   Frank Weinhold                                : gennbo (NPA and NBO analysis)
   Christopher J. Cramer and Donald G. Truhlar   : smd solvation model
   Lars Goerigk                                  : TD-DFT with DH, B97 family of functionals
   V. Asgeirsson, H. Jonsson                     : NEB implementation
   FAccTs GmbH                                   : IRC, NEB, NEB-TS, DLPNO-Multilevel, CI-OPT
                                                   MM, QMMM, 2- and 3-layer-ONIOM, Crystal-QMMM,
                                                   LR-CPCM, SF, NACMEs, symmetry and pop. for TD-DFT,
                                                   nearIR, NL-DFT gradient (VV10), updates on ESD,
                                                   ML-optimized integration grids
   S Lehtola, MJT Oliveira, MAL Marques          : LibXC Library
   Liviu Ungur et al                             : ANISO software


 Your calculation uses the libint2 library for the computation of 2-el integrals
 For citations please refer to: http://libint.valeyev.net

 Your ORCA version has been built with support for libXC version: 5.1.0
 For citations please refer to: https://tddft.org/programs/libxc/

 This ORCA versions uses:
   CBLAS   interface :  Fast vector & matrix operations
   LAPACKE interface :  Fast linear algebra routines
   SCALAPACK package :  Parallel linear algebra routines
   Shared memory     :  Shared parallel matrices
   BLAS/LAPACK       :  OpenBLAS 0.3.15  USE64BITINT DYNAMIC_ARCH NO_AFFINITY Sandybridge SINGLE_THREADED
        Core in use  :  Sandybridge
   Copyright (c) 2011-2014, The OpenBLAS Project




***************************************
The coordinates will be read from file: pbe.xyz
***************************************


================================================================================

cite the ECPs for Au [Def2-ECP] as follows:
Ce-Yb(ecp-28): M. Dolg, H. Stoll, H.Preuss, J. Chem. Phys., 1989, 90, 1730-1734.
Y-Cd(ecp-28), Hf-Hg(ecp-46): D. Andrae,U. Haeussermann, M. Dolg, H. Stoll, H. Preuss, Theor. Chim. Acta, 1990, 77, 123-141.
In-Sb(ecp-28), Tl-Bi(ecp-46): B. Metz, H. Stoll, M. Dolg, J. Chem. Phys., 2000, 113, 2563-2569.
Te-Xe(ecp-28), Po-Rn(ecp-46): K. A. Peterson, D. Figgen, E. Goll, H. Stoll, M. Dolg, J. Chem. Phys., 2003, 119, 11113-11123.
Rb(ecp-28), Cs(ecp-46): T. Leininger, A. Nicklass, W. Kuechle, H. Stoll, M. Dolg, A. Bergner, Chem. Phys. Lett., 1996, 255, 274-280.
Sr(ecp-28), Ba(ecp-46): M. Kaupp, P. V. Schleyer, H. Stoll and H. Preuss, J. Chem. Phys., 1991, 94, 1360-1366.
La(ecp-46): M. Dolg, H. Stoll, A. Savin, H. Preuss, Theor. Chim. Acta, 1989, 75, 173-194.
Lu(ecp-28): X. Cao, M. Dolg, J. Chem. Phys., 2001, 115, 7348-7355.

ECP parameters for Au [Def2-ECP] have been obtained from:
TURBOMOLE (7.0.2)

----- Orbital basis set information -----
Your calculation utilizes the basis: def2-TZVP
   F. Weigend and R. Ahlrichs, Phys. Chem. Chem. Phys. 7, 3297 (2005).

----- AuxJ basis set information -----
Your calculation utilizes the auxiliary basis: def2/J
   F. Weigend, Phys. Chem. Chem. Phys. 8, 1057 (2006).

================================================================================
                                        WARNINGS
                       Please study these warnings very carefully!
================================================================================

Using LibXC functional ID 497 : Re-regularized SCAN exchange by Furness et al
[ 1]  J. W. Furness, A. D. Kaplan, J. Ning, J. P. Perdew, and J. Sun, J. Phys. Chem. Lett. 11, 8208 (2020)
[ 2]  J. W. Furness, A. D. Kaplan, J. Ning, J. P. Perdew, and J. Sun, J. Phys. Chem. Lett. 11, 9248 (2020)
Using LibXC functional ID 498 : Re-regularized SCAN correlation by Furness et al
[ 1]  J. W. Furness, A. D. Kaplan, J. Ning, J. P. Perdew, and J. Sun, J. Phys. Chem. Lett. 11, 8208 (2020)
[ 2]  J. W. Furness, A. D. Kaplan, J. Ning, J. P. Perdew, and J. Sun, J. Phys. Chem. Lett. 11, 9248 (2020)
Using LibXC functional ID 497 : Re-regularized SCAN exchange by Furness et al
[ 1]  J. W. Furness, A. D. Kaplan, J. Ning, J. P. Perdew, and J. Sun, J. Phys. Chem. Lett. 11, 8208 (2020)
[ 2]  J. W. Furness, A. D. Kaplan, J. Ning, J. P. Perdew, and J. Sun, J. Phys. Chem. Lett. 11, 9248 (2020)
Using LibXC functional ID 498 : Re-regularized SCAN correlation by Furness et al
[ 1]  J. W. Furness, A. D. Kaplan, J. Ning, J. P. Perdew, and J. Sun, J. Phys. Chem. Lett. 11, 8208 (2020)
[ 2]  J. W. Furness, A. D. Kaplan, J. Ning, J. P. Perdew, and J. Sun, J. Phys. Chem. Lett. 11, 9248 (2020)

WARNING: your system is open-shell and RHF/RKS was chosen
  ===> : WILL SWITCH to UHF/UKS


INFO   : the flag for use of the SHARK integral package has been found!



***************************************
The coordinates will be read from file: pbe.xyz
***************************************


================================================================================

cite the ECPs for Au [Def2-ECP] as follows:
Ce-Yb(ecp-28): M. Dolg, H. Stoll, H.Preuss, J. Chem. Phys., 1989, 90, 1730-1734.
Y-Cd(ecp-28), Hf-Hg(ecp-46): D. Andrae,U. Haeussermann, M. Dolg, H. Stoll, H. Preuss, Theor. Chim. Acta, 1990, 77, 123-141.
In-Sb(ecp-28), Tl-Bi(ecp-46): B. Metz, H. Stoll, M. Dolg, J. Chem. Phys., 2000, 113, 2563-2569.
Te-Xe(ecp-28), Po-Rn(ecp-46): K. A. Peterson, D. Figgen, E. Goll, H. Stoll, M. Dolg, J. Chem. Phys., 2003, 119, 11113-11123.
Rb(ecp-28), Cs(ecp-46): T. Leininger, A. Nicklass, W. Kuechle, H. Stoll, M. Dolg, A. Bergner, Chem. Phys. Lett., 1996, 255, 274-280.
Sr(ecp-28), Ba(ecp-46): M. Kaupp, P. V. Schleyer, H. Stoll and H. Preuss, J. Chem. Phys., 1991, 94, 1360-1366.
La(ecp-46): M. Dolg, H. Stoll, A. Savin, H. Preuss, Theor. Chim. Acta, 1989, 75, 173-194.
Lu(ecp-28): X. Cao, M. Dolg, J. Chem. Phys., 2001, 115, 7348-7355.

ECP parameters for Au [Def2-ECP] have been obtained from:
TURBOMOLE (7.0.2)

----- Orbital basis set information -----
Your calculation utilizes the basis: def2-TZVP
   F. Weigend and R. Ahlrichs, Phys. Chem. Chem. Phys. 7, 3297 (2005).

----- AuxJ basis set information -----
Your calculation utilizes the auxiliary basis: def2/J
   F. Weigend, Phys. Chem. Chem. Phys. 8, 1057 (2006).

================================================================================
                                        WARNINGS
                       Please study these warnings very carefully!
================================================================================

Using LibXC functional ID 497 : Re-regularized SCAN exchange by Furness et al
[ 1]  J. W. Furness, A. D. Kaplan, J. Ning, J. P. Perdew, and J. Sun, J. Phys. Chem. Lett. 11, 8208 (2020)
[ 2]  J. W. Furness, A. D. Kaplan, J. Ning, J. P. Perdew, and J. Sun, J. Phys. Chem. Lett. 11, 9248 (2020)
Using LibXC functional ID 498 : Re-regularized SCAN correlation by Furness et al
[ 1]  J. W. Furness, A. D. Kaplan, J. Ning, J. P. Perdew, and J. Sun, J. Phys. Chem. Lett. 11, 8208 (2020)
[ 2]  J. W. Furness, A. D. Kaplan, J. Ning, J. P. Perdew, and J. Sun, J. Phys. Chem. Lett. 11, 9248 (2020)
Using LibXC functional ID 497 : Re-regularized SCAN exchange by Furness et al
[ 1]  J. W. Furness, A. D. Kaplan, J. Ning, J. P. Perdew, and J. Sun, J. Phys. Chem. Lett. 11, 8208 (2020)
[ 2]  J. W. Furness, A. D. Kaplan, J. Ning, J. P. Perdew, and J. Sun, J. Phys. Chem. Lett. 11, 9248 (2020)
Using LibXC functional ID 498 : Re-regularized SCAN correlation by Furness et al
[ 1]  J. W. Furness, A. D. Kaplan, J. Ning, J. P. Perdew, and J. Sun, J. Phys. Chem. Lett. 11, 8208 (2020)
[ 2]  J. W. Furness, A. D. Kaplan, J. Ning, J. P. Perdew, and J. Sun, J. Phys. Chem. Lett. 11, 9248 (2020)

INFO   : the flag for use of the SHARK integral package has been found!

================================================================================
                                       INPUT FILE
================================================================================
NAME = scan.inp
|  1> !R2SCAN def2-TZVP VERYSLOWCONV
|  2> !KDIIS
|  3> %scf
|  4>   AutoTRAHIter 200
|  5>   maxiter 400
|  6> end
|  7> 
|  8> %pal nprocs 6 end 
|  9> 
| 10> *xyzfile 0 6 pbe.xyz
| 11> 
| 12> $new_job
| 13> 
| 14> !R2SCAN def2-TZVP VERYSLOWCONV
| 15> !KDIIS
| 16> %scf
| 17>   AutoTRAHIter 200
| 18>   maxiter 400
| 19> end
| 20> 
| 21> 
| 22> %pal nprocs 6 end 
| 23> 
| 24> *xyzfile 0 4 pbe.xyz
| 25> 
| 26> 
| 27> 
| 28> 
| 29> 
| 30>                          ****END OF INPUT****
================================================================================


                 $$$$$$$$$$$$$$$$$$$$$$$$$$$$$$$$$$$$$$$$$$$$$$ 
                 $ THERE ARE  2 JOBS TO BE PROCESSED THIS RUN $
                 $$$$$$$$$$$$$$$$$$$$$$$$$$$$$$$$$$$$$$$$$$$$$$ 




                 $$$$$$$$$$$$$$$$  JOB NUMBER  1 $$$$$$$$$$$$$$


                       ****************************
                       * Single Point Calculation *
                       ****************************

---------------------------------
CARTESIAN COORDINATES (ANGSTROEM)
---------------------------------
  Au     7.451772    9.713351   10.404105
  Au    11.808446    8.630598    7.741597
  Au     9.907223    8.740193    9.734464
  Au     9.960194    6.457161    8.174285
  Au    11.134092    9.801363    5.275767
  Au     7.272410   10.695812    7.870803
  Au     8.592503   10.996278    5.472336
  Au     8.895353    8.465621    4.148222
  Au    10.903038    6.986792    5.556480
  Au     8.133667    6.490635    6.079385
  Au     6.688003    8.857328    5.883818
  Au     7.358678    7.750670    8.501876
  Mn     9.249779    8.880684    6.979337

----------------------------
CARTESIAN COORDINATES (A.U.)
----------------------------
  NO LB      ZA    FRAG     MASS         X           Y           Z
   0 Au   19.0000*   0   196.966   14.081808   18.355574   19.660908
   1 Au   19.0000*   0   196.966   22.314730   16.309466   14.629498
   2 Au   19.0000*   0   196.966   18.721938   16.516572   18.395472
   3 Au   19.0000*   0   196.966   18.822040   12.202266   15.447160
   4 Au   19.0000*   0   196.966   21.040385   18.521892    9.969756
   5 Au   19.0000*   0   196.966   13.742863   20.212156   14.873661
   6 Au   19.0000*   0   196.966   16.237477   20.779954   10.341216
   7 Au   19.0000*   0   196.966   16.809781   15.997706    7.839003
   8 Au   19.0000*   0   196.966   20.603755   13.203124   10.500226
   9 Au   19.0000*   0   196.966   15.370404   12.265523   11.488372
  10 Au   19.0000*   0   196.966   12.638494   16.737924   11.118805
  11 Au   19.0000*   0   196.966   13.905885   14.646643   16.066218
  12 Mn   25.0000    0    54.940   17.479549   16.782060   13.189036
* core charge reduced due to ECP

--------------------------------
INTERNAL COORDINATES (ANGSTROEM)
--------------------------------
 Au     0   0   0     0.000000000000     0.00000000     0.00000000
 Au     1   0   0     5.219378833026     0.00000000     0.00000000
 Au     1   2   0     2.724829244429    17.89058484     0.00000000
 Au     3   1   2     2.765718857883   116.78905525   279.67424557
 Au     2   1   3     2.811718534437    99.25289558   175.65509464
 Au     1   2   3     2.723053268079    69.83371816   184.02201207
 Au     6   1   2     2.754190935421   144.88001751   358.01166233
 Au     5   2   1     2.840337750354   109.95990382   296.41734766
 Au     4   3   1     2.832377997183   111.92523793   110.64961509
 Au     4   3   1     2.779555488017   113.74300225    43.50001350
 Au     6   1   2     2.769415446362   116.22286647    77.98884264
 Au     1   2   3     2.734822926683    61.62226902   258.10112120
 Mn    12   1   2     2.677932116129    93.93284288   329.89380141

---------------------------
INTERNAL COORDINATES (A.U.)
---------------------------
 Au     0   0   0     0.000000000000     0.00000000     0.00000000
 Au     1   0   0     9.863196583604     0.00000000     0.00000000
 Au     1   2   0     5.149181033671    17.89058484     0.00000000
 Au     3   1   2     5.226451204821   116.78905525   279.67424557
 Au     2   1   3     5.313377995757    99.25289558   175.65509464
 Au     1   2   3     5.145824924749    69.83371816   184.02201207
 Au     6   1   2     5.204666588474   144.88001751   358.01166233
 Au     5   2   1     5.367460476007   109.95990382   296.41734766
 Au     4   3   1     5.352418722421   111.92523793   110.64961509
 Au     4   3   1     5.252598646390   113.74300225    43.50001350
 Au     6   1   2     5.233436744675   116.22286647    77.98884264
 Au     1   2   3     5.168066356199    61.62226902   258.10112120
 Mn    12   1   2     5.060558304717    93.93284288   329.89380141

---------------------
BASIS SET INFORMATION
---------------------
There are 2 groups of distinct atoms

 Group   1 Type Au  : 8s7p6d1f contracted to 6s4p3d1f pattern {311111/4111/411/1}
 Group   2 Type Mn  : 17s11p7d1f contracted to 6s4p4d1f pattern {842111/6311/4111/1}

Atom   0Au   basis set group =>   1
Atom   1Au   basis set group =>   1
Atom   2Au   basis set group =>   1
Atom   3Au   basis set group =>   1
Atom   4Au   basis set group =>   1
Atom   5Au   basis set group =>   1
Atom   6Au   basis set group =>   1
Atom   7Au   basis set group =>   1
Atom   8Au   basis set group =>   1
Atom   9Au   basis set group =>   1
Atom  10Au   basis set group =>   1
Atom  11Au   basis set group =>   1
Atom  12Mn   basis set group =>   2
---------------------------------
AUXILIARY/J BASIS SET INFORMATION
---------------------------------
There are 2 groups of distinct atoms

 Group   1 Type Au  : 11s5p5d3f3g contracted to 8s5p5d2f3g pattern {41111111/11111/11111/21/111}
 Group   2 Type Mn  : 19s5p5d3f3g contracted to 8s5p5d2f3g pattern {121111111/11111/11111/21/111}

Atom   0Au   basis set group =>   1
Atom   1Au   basis set group =>   1
Atom   2Au   basis set group =>   1
Atom   3Au   basis set group =>   1
Atom   4Au   basis set group =>   1
Atom   5Au   basis set group =>   1
Atom   6Au   basis set group =>   1
Atom   7Au   basis set group =>   1
Atom   8Au   basis set group =>   1
Atom   9Au   basis set group =>   1
Atom  10Au   basis set group =>   1
Atom  11Au   basis set group =>   1
Atom  12Mn   basis set group =>   2
-------------------------
ECP PARAMETER INFORMATION
-------------------------

 Group 1, Type Au ECP Def2-ECP (replacing 60 core electrons, lmax=3)

Atom   0Au   ECP group =>   1
Atom   1Au   ECP group =>   1
Atom   2Au   ECP group =>   1
Atom   3Au   ECP group =>   1
Atom   4Au   ECP group =>   1
Atom   5Au   ECP group =>   1
Atom   6Au   ECP group =>   1
Atom   7Au   ECP group =>   1
Atom   8Au   ECP group =>   1
Atom   9Au   ECP group =>   1
Atom  10Au   ECP group =>   1
Atom  11Au   ECP group =>   1



           ************************************************************
           *        Program running with 6 parallel MPI-processes     *
           *              working on a common directory               *
           ************************************************************
------------------------------------------------------------------------------
                           ORCA GTO INTEGRAL CALCULATION
                           -- RI-GTO INTEGRALS CHOSEN --
------------------------------------------------------------------------------
------------------------------------------------------------------------------
                   ___                                                        
                  /   \      - P O W E R E D   B Y -                         
                 /     \                                                     
                 |  |  |   _    _      __       _____    __    __             
                 |  |  |  | |  | |    /  \     |  _  \  |  |  /  |          
                  \  \/   | |  | |   /    \    | | | |  |  | /  /          
                 / \  \   | |__| |  /  /\  \   | |_| |  |  |/  /          
                |  |  |   |  __  | /  /__\  \  |    /   |      \           
                |  |  |   | |  | | |   __   |  |    \   |  |\   \          
                \     /   | |  | | |  |  |  |  | |\  \  |  | \   \       
                 \___/    |_|  |_| |__|  |__|  |_| \__\ |__|  \__/        
                                                                              
                      - O R C A' S   B I G   F R I E N D -                    
                                      &                                       
                       - I N T E G R A L  F E E D E R -                       
                                                                              
 v1 FN, 2020, v2 2021                                                         
------------------------------------------------------------------------------


Reading SHARK input file scan.SHARKINP.tmp ... ok
----------------------
SHARK INTEGRAL PACKAGE
----------------------

Number of atoms                             ...     13
Number of basis functions                   ...    525
Number of shells                            ...    183
Maximum angular momentum                    ...      3
Integral batch strategy                     ... SHARK/LIBINT Hybrid
RI-J (if used) integral strategy            ... SPLIT-RIJ (Revised 2003 algorithm where possible)
Printlevel                                  ...      1
Contraction scheme used                     ... SEGMENTED contraction
Coulomb Range Separation                    ... NOT USED
Exchange Range Separation                   ... NOT USED
Finite Nucleus Model                        ... NOT USED
Auxiliary Coulomb fitting basis             ... AVAILABLE
   # of basis functions in Aux-J            ...   1157
   # of shells in Aux-J                     ...    299
   Maximum angular momentum in Aux-J        ...      4
Auxiliary J/K fitting basis                 ... NOT available
Auxiliary Correlation fitting basis         ... NOT available
Auxiliary 'external' fitting basis          ... NOT available
Integral threshold                          ...     1.000000e-10
Primitive cut-off                           ...     1.000000e-11
Primitive pair pre-selection threshold      ...     1.000000e-11

Calculating pre-screening integrals         ... done (  0.2 sec) Dimension = 183
Organizing shell pair data                  ... done (  0.5 sec)
Shell pair information
Total number of shell pairs                 ...     16836
Shell pairs after pre-screening             ...     13836
Total number of primitive shell pairs       ...     45389
Primitive shell pairs kept                  ...     27296
          la=0 lb=0:   2165 shell pairs
          la=1 lb=0:   3163 shell pairs
          la=1 lb=1:   1187 shell pairs
          la=2 lb=0:   2755 shell pairs
          la=2 lb=1:   1915 shell pairs
          la=2 lb=2:    791 shell pairs
          la=3 lb=0:    732 shell pairs
          la=3 lb=1:    562 shell pairs
          la=3 lb=2:    486 shell pairs
          la=3 lb=3:     80 shell pairs

Calculating one electron integrals          ... done (  0.1 sec)
Calculating ECP integrals                   ... done ( 14.4 sec)
Calculating RI/J V-Matrix + Cholesky decomp.... done (  0.1 sec)
Calculating Nuclear repulsion               ... done (  0.0 sec) ENN=   4401.534112292828 Eh

SHARK setup successfully completed in  16.0 seconds

Maximum memory used throughout the entire GTOINT-calculation: 30.9 MB


           ************************************************************
           *        Program running with 6 parallel MPI-processes     *
           *              working on a common directory               *
           ************************************************************
-------------------------------------------------------------------------------
                                 ORCA SCF
-------------------------------------------------------------------------------

------------
SCF SETTINGS
------------
Hamiltonian:
 Density Functional     Method          .... DFT(GTOs)
  Functional kind                       .... Exchange
  Functional name                       .... Re-regularized SCAN exchange by Furness et al
  Functional family                     .... MGGA
  Functional refs                              
    [ 0] J. W. Furness, A. D. Kaplan, J. Ning, J. P. Perdew, and J. Sun, J. Phys. Chem. Lett. 11, 8208 (2020)
    [ 1] J. W. Furness, A. D. Kaplan, J. Ning, J. P. Perdew, and J. Sun, J. Phys. Chem. Lett. 11, 9248 (2020)
  Functional external parameters         .... 8
 Parameter  0 :         c1 parameter
 Parameter  1 :         c2 parameter
 Parameter  2 :          d parameter
 Parameter  3 :         k1 parameter
 Parameter  4 :       taur parameter
 Parameter  5 :     alphar parameter
 Parameter  6 :        eta parameter
 Parameter  7 :        dp2 parameter
  Functional kind                       .... Correlation
  Functional name                       .... Re-regularized SCAN correlation by Furness et al
  Functional family                     .... MGGA
  Functional refs                              
    [ 0] J. W. Furness, A. D. Kaplan, J. Ning, J. P. Perdew, and J. Sun, J. Phys. Chem. Lett. 11, 8208 (2020)
    [ 1] J. W. Furness, A. D. Kaplan, J. Ning, J. P. Perdew, and J. Sun, J. Phys. Chem. Lett. 11, 9248 (2020)
  Functional external parameters         .... 0
 Gradients option       PostSCFGGA      .... off
   Density functional embedding theory  .... OFF
   NL short-range parameter             .... 12.300000
 RI-approximation to the Coulomb term is turned on
   Number of AuxJ basis functions       .... 1157


General Settings:
 Integral files         IntName         .... scan
 Hartree-Fock type      HFTyp           .... UHF
 Total Charge           Charge          ....    0
 Multiplicity           Mult            ....    6
 Number of Electrons    NEL             ....  253
 Basis Dimension        Dim             ....  525
 Nuclear Repulsion      ENuc            ....   4401.5341122928 Eh

Convergence Acceleration:
 DIIS                   CNVDIIS         .... off
 Trust-Rad. Augm. Hess. CNVTRAH         .... auto
   Auto Start mean grad. ratio tolernc. ....  1.125000
   Auto Start start iteration           ....   200
   Auto Start num. interpolation iter.  ....    10
   Max. Number of Micro iterations      ....    16
   Max. Number of Macro iterations      .... Maxiter - #DIIS iter
   Number of Davidson start vectors     ....     2
   Converg. threshold I  (grad. norm)   ....   5.000e-05
   Converg. threshold II (energy diff.) ....   1.000e-06
   Grad. Scal. Fac. for Micro threshold ....   0.100
   Minimum threshold for Micro iter.    ....   0.010
   NR start threshold (gradient norm)   ....   0.001
   Initial trust radius                 ....   0.400
   Minimum AH scaling param. (alpha)    ....   1.000
   Maximum AH scaling param. (alpha)    .... 1000.000
   Orbital update algorithm             .... Taylor
   White noise on init. David. guess    .... on
   Maximum white noise                  ....   0.010
   Quad. conv. algorithm                .... NR
 SOSCF                  CNVSOSCF        .... off
 Level Shifting         CNVShift        .... off
 Zerner damping         CNVZerner       .... off
 Static damping         CNVDamp         .... off
 Fernandez-Rico         CNVRico         .... off

SCF Procedure:
 Maximum # iterations   MaxIter         ....   400
 SCF integral mode      SCFMode         .... Direct
   Integral package                     .... SHARK and LIBINT hybrid scheme
 Reset frequency        DirectResetFreq ....    20
 Integral Threshold     Thresh          ....  1.000e-10 Eh
 Primitive CutOff       TCut            ....  1.000e-11 Eh

Convergence Tolerance:
 Convergence Check Mode ConvCheckMode   .... All-Criteria
 Convergence forced     ConvForced      .... 0
 Energy Change          TolE            ....  1.000e-06 Eh
 Max Density Change     TolMaxP         ....  1.000e-05
 RMS Density Change     TolRMSP         ....  1.000e-06


Diagonalization of the overlap matrix:
Smallest eigenvalue                        ... 3.118e-04
Time for diagonalization                   ...    0.076 sec
Threshold for overlap eigenvalues          ... 1.000e-08
Number of eigenvalues below threshold      ... 0
Time for construction of square roots      ...    0.077 sec
Total time needed                          ...    0.155 sec

Time for model grid setup =    0.767 sec

------------------------------
INITIAL GUESS: MODEL POTENTIAL
------------------------------
Loading Hartree-Fock densities                     ... done
  calling /home/ehlert/src/miniconda3/envs/orca500/Programs/ORCA501/orca scan_atom79.inp > scan_atom79.out in order to generate an atomic fitting density for atom 0 (Au with ECP) on-the-fly... 
    atom 0 (Au), assumed electronic state with S=2: 1s2 2s2 2p6 3s2 3p6 4s2 3d10 4p6 5s2 4d10 5p6 6s1 4f14 5d10           ... done
Calculating cut-offs                               ... done
Initializing the effective Hamiltonian             ... done
Setting up the integral package (SHARK)            ... done
Starting the Coulomb interaction                   ... done (   0.7 sec)
Reading the grid                                   ... done
Mapping shells                                     ... done
Starting the XC term evaluation                    ... done (   0.7 sec)
  promolecular density results
     # of electrons  =    973.012862863
     EX              =  -4440.496633783
     EC              =    -59.218867898
     EX+EC           =  -4499.715501682
Transforming the Hamiltonian                       ... done (   0.1 sec)
Diagonalizing the Hamiltonian                      ... done (   0.1 sec)
Back transforming the eigenvectors                 ... done (   0.0 sec)
Now organizing SCF variables                       ... done
                      ------------------
                      INITIAL GUESS DONE (   3.3 sec)
                      ------------------
-------------------
DFT GRID GENERATION
-------------------

General Integration Accuracy     IntAcc      ... 4.388
Radial Grid Type                 RadialGrid  ... OptM3 with GC (2021)
Angular Grid (max. ang.)         AngularGrid ... 4 (Lebedev-302)
Angular grid pruning method      GridPruning ... 4 (adaptive)
Weight generation scheme         WeightScheme... Becke
Basis function cutoff            BFCut       ... 1.0000e-10
Integration weight cutoff        WCut        ... 1.0000e-14
Angular grids for H and He will be reduced by one unit
Partially contracted basis set               ... off
Rotationally invariant grid construction     ... off

Total number of grid points                  ...   144546
Total number of batches                      ...     2266
Average number of points per batch           ...       63
Average number of grid points per atom       ...    11119
Time for grid setup =    2.496 sec

--------------
SCF ITERATIONS
--------------
ITER       Energy         Delta-E        Max-DP      RMS-DP      [F,P]   Gradient Norm
               ***  Starting incremental Fock matrix formation  ***
                             ****Resetting KDIIS****
                             ****Turning on KDIIS(Cayley)****
  0  -2779.1643757275   0.000000000000 0.13273791  0.00116308  0.3712446   0.222194368
  1  -2780.2018144542  -1.037438726658 0.30318966  0.00151712  0.3240145   0.170277813
  2  -2780.6714114289  -0.469596974680 0.10948440  0.00132252  0.2562570   0.128047319
  3  -2780.9255730754  -0.254161646539 0.26029588  0.00155009  0.1499519   0.074363371
  4  -2781.0186526575  -0.093079582098 0.07613474  0.00046408  0.0470740   0.021001935
  5  -2781.0590418067  -0.040389149175 0.09964126  0.00042330  0.0238567   0.007532651
  6  -2781.0805842312  -0.021542424547 0.07896901  0.00075935  0.0290646   0.005508052
  7  -2781.1041133041  -0.023529072906 0.02362738  0.00029245  0.0130089   0.005968505
  8  -2781.1084066012  -0.004293297101 0.03578282  0.00025010  0.0124614   0.007823409
  9  -2781.1168616566  -0.008455055368 0.02510163  0.00019122  0.0141593   0.003418293
 10  -2781.1212859892  -0.004424332596 0.03896546  0.00030473  0.0079610   0.001742689
 11  -2781.1253209523  -0.004034963156 0.01431498  0.00011380  0.0044837   0.002637532
 12  -2781.1265229976  -0.001202045243 0.00963547  0.00008842  0.0031192   0.001290785
 13  -2781.1270750216  -0.000552024007 0.00489402  0.00004462  0.0021326   0.001282451
 14  -2781.1273226102  -0.000247588631 0.00733126  0.00005597  0.0019269   0.000586055
 15  -2781.1275664621  -0.000243851889 0.00437561  0.00003603  0.0020980   0.000622733
 16  -2781.1276867329  -0.000120270816 0.00400392  0.00002634  0.0020741   0.000540185
 17  -2781.1277790359  -0.000092302942 0.00268663  0.00002843  0.0020998   0.000536341
 18  -2781.1278724843  -0.000093448437 0.00242255  0.00002523  0.0020691   0.000438749
 19  -2781.1279517671  -0.000079282839 0.00243140  0.00001884  0.0021298   0.000363696
               *** Restarting incremental Fock matrix formation ***
                             ****Resetting KDIIS****
 20  -2781.1280251205  -0.000073353315 0.00043272  0.00000373  0.0021249   0.000342626
 21  -2781.1280376176  -0.000012497129 0.00089897  0.00000822  0.0021238   0.000306400
 22  -2781.1280669564  -0.000029338834 0.00300784  0.00002668  0.0021253   0.000294065
 23  -2781.1281628546  -0.000095898152 0.02432138  0.00022625  0.0021257   0.000287442
 24  -2781.1289497100  -0.000786855405 0.00773447  0.00007484  0.0020691   0.000299399
 25  -2781.1291841408  -0.000234430817 0.01527850  0.00015242  0.0020421   0.000285081
 26  -2781.1296716471  -0.000487506300 0.00508377  0.00004870  0.0018858   0.000293269
 27  -2781.1298146299  -0.000142982769 0.01879203  0.00020632  0.0017979   0.000371575
 28  -2781.1303578242  -0.000543194337 0.02606972  0.00031946  0.0015482   0.000438141
 29  -2781.1309508962  -0.000593072017 0.00940273  0.00012736  0.0008530   0.000285229
 30  -2781.1307801549   0.000170741301 0.01424732  0.00018549  0.0011778   0.000350905
 31  -2781.1310659860  -0.000285831035 0.00190908  0.00002520  0.0007447   0.000298594
 32  -2781.1310817341  -0.000015748185 0.00784990  0.00010302  0.0007077   0.000238226
 33  -2781.1311881027  -0.000106368578 0.00144233  0.00001454  0.0006282   0.000313511
 34  -2781.1312043100  -0.000016207290 0.00131349  0.00001310  0.0005155   0.000259895
 35  -2781.1311999246   0.000004385443 0.00328377  0.00004098  0.0005163   0.000244596
 36  -2781.1312288003  -0.000028875741 0.00087540  0.00001268  0.0005000   0.000197948
 37  -2781.1312321153  -0.000003315040 0.00168728  0.00002147  0.0004633   0.000203917
                          ***Energy convergence achieved***
 38  -2781.1312328260  -0.000000710650 0.00162162  0.00002061  0.0004640   0.000132717
 39  -2781.1312464546  -0.000013628573 0.00079877  0.00000781  0.0004031   0.000108340
               *** Restarting incremental Fock matrix formation ***
                             ****Resetting KDIIS****
 40  -2781.1312490709  -0.000002616374 0.00016032  0.00000109  0.0004172   0.000112483
                          ***Energy convergence achieved***
 41  -2781.1312497184  -0.000000647489 0.00027489  0.00000183  0.0004100   0.000084529
 42  -2781.1312516577  -0.000001939277 0.00041153  0.00000413  0.0004031   0.000075524
 43  -2781.1312537860  -0.000002128264 0.00416718  0.00005362  0.0003916   0.000067243
 44  -2781.1312787078  -0.000024921787 0.00194979  0.00002402  0.0002452   0.000124126
 45  -2781.1312882648  -0.000009557056 0.00063032  0.00000645  0.0002002   0.000033511
 46  -2781.1312908196  -0.000002554738 0.00031876  0.00000391  0.0001874   0.000042555
                          ***Energy convergence achieved***
 47  -2781.1312914571  -0.000000637533 0.00152822  0.00001702  0.0001843   0.000031914
 48  -2781.1312987980  -0.000007340923 0.00256271  0.00002794  0.0001692   0.000055455
 49  -2781.1313016662  -0.000002868233 0.00089536  0.00001024  0.0001150   0.000043727
 50  -2781.1313059884  -0.000004322108 0.00032241  0.00000279  0.0001108   0.000035613
 51  -2781.1313043115   0.000001676889 0.00095114  0.00001092  0.0000911   0.000043855
 52  -2781.1313061027  -0.000001791258 0.00025820  0.00000240  0.0000921   0.000018016
                          ***Energy convergence achieved***
 53  -2781.1313067175  -0.000000614796 0.00059419  0.00000750  0.0000822   0.000025466
 54  -2781.1313069388  -0.000000221274 0.00019838  0.00000197  0.0000678   0.000018006
 55  -2781.1313082171  -0.000001278335 0.00036788  0.00000438  0.0000692   0.000025855
                          ***Energy convergence achieved***
 56  -2781.1313073897   0.000000827404 0.00058076  0.00000671  0.0000687   0.000021208
 57  -2781.1313085809  -0.000001191213 0.00028201  0.00000349  0.0000694   0.000014620
                          ***Energy convergence achieved***
 58  -2781.1313083425   0.000000238451 0.00052546  0.00000585  0.0000669   0.000017494
 59  -2781.1313089129  -0.000000570445 0.00023575  0.00000152  0.0000690   0.000012784
               *** Restarting incremental Fock matrix formation ***
                             ****Resetting KDIIS****
                           ***RMSP convergence achieved***

            ***Energy convergence in two consecutive cycles with***
                    ***'reasonable' density convergence***
                       *** signaling convergence ***

                    *** KDIIS BlockDiag ( 0.279 sec) ***

               *****************************************************
               *                     SUCCESS                       *
               *           SCF CONVERGED AFTER  60 CYCLES          *
               *****************************************************


----------------
TOTAL SCF ENERGY
----------------

Total Energy       :        -2781.13130858 Eh          -75678.43032 eV

Components:
Nuclear Repulsion  :         4401.53411229 Eh          119771.83228 eV
Electronic Energy  :        -7182.66542088 Eh         -195450.26260 eV
One Electron Energy:       -13245.71307898 Eh         -360434.17700 eV
Two Electron Energy:         6063.04765810 Eh          164983.91440 eV

Virial components:
Potential Energy   :        -4480.93486256 Eh         -121932.43654 eV
Kinetic Energy     :         1699.80355397 Eh           46254.00621 eV
Virial Ratio       :            2.63614866


DFT components:
N(Alpha)           :      129.000030065465 electrons
N(Beta)            :      124.000028798034 electrons
N(Total)           :      253.000058863499 electrons
E(X)               :     -196.795824604137 Eh       
E(C)               :      -10.490737235047 Eh       
E(XC)              :     -207.286561839184 Eh       
DFET-embed. en.    :        0.000000000000 Eh       

---------------
SCF CONVERGENCE
---------------

  Last Energy change         ...    3.2843e-07  Tolerance :   1.0000e-06
  Last MAX-Density change    ...    3.6599e-05  Tolerance :   1.0000e-05
  Last RMS-Density change    ...    1.5872e-07  Tolerance :   1.0000e-06

             **** THE GBW FILE WAS UPDATED (scan.gbw) ****
             **** DENSITY scan.scfp WAS UPDATED ****
             **** ENERGY FILE WAS UPDATED (scan.en.tmp) ****
----------------------
UHF SPIN CONTAMINATION
----------------------

Warning: in a DFT calculation there is little theoretical justification to 
         calculate <S**2> as in Hartree-Fock theory. We will do it anyways
         but you should keep in mind that the values have only limited relevance

Expectation value of <S**2>     :     9.524293
Ideal value S*(S+1) for S=2.5   :     8.750000
Deviation                       :     0.774293

             **** THE GBW FILE WAS UPDATED (scan.gbw) ****
             **** DENSITY scan.scfp WAS UPDATED ****
----------------
ORBITAL ENERGIES
----------------
                 SPIN UP ORBITALS
  NO   OCC          E(Eh)            E(eV) 
   0   1.0000    -235.045019     -6395.9001 
   1   1.0000     -27.222766      -740.7691 
   2   1.0000     -23.270823      -633.2313 
   3   1.0000     -23.269000      -633.1817 
   4   1.0000     -23.268501      -633.1681 
   5   1.0000      -4.130858      -112.4064 
   6   1.0000      -4.129834      -112.3785 
   7   1.0000      -4.123267      -112.1998 
   8   1.0000      -4.122123      -112.1687 
   9   1.0000      -4.120617      -112.1277 
  10   1.0000      -4.119906      -112.1083 
  11   1.0000      -4.118217      -112.0624 
  12   1.0000      -4.116546      -112.0169 
  13   1.0000      -4.115767      -111.9957 
  14   1.0000      -4.115531      -111.9893 
  15   1.0000      -4.115460      -111.9874 
  16   1.0000      -4.107774      -111.7782 
  17   1.0000      -3.246489       -88.3415 
  18   1.0000      -2.320368       -63.1404 
  19   1.0000      -2.317990       -63.0757 
  20   1.0000      -2.317571       -63.0643 
  21   1.0000      -2.315945       -63.0201 
  22   1.0000      -2.315021       -62.9949 
  23   1.0000      -2.312692       -62.9316 
  24   1.0000      -2.310824       -62.8807 
  25   1.0000      -2.310152       -62.8624 
  26   1.0000      -2.309892       -62.8553 
  27   1.0000      -2.309150       -62.8352 
  28   1.0000      -2.308889       -62.8281 
  29   1.0000      -2.308163       -62.8083 
  30   1.0000      -2.307372       -62.7868 
  31   1.0000      -2.307044       -62.7779 
  32   1.0000      -2.306880       -62.7734 
  33   1.0000      -2.306564       -62.7648 
  34   1.0000      -2.305542       -62.7370 
  35   1.0000      -2.304763       -62.7158 
  36   1.0000      -2.304451       -62.7073 
  37   1.0000      -2.303530       -62.6822 
  38   1.0000      -2.303209       -62.6735 
  39   1.0000      -2.302634       -62.6578 
  40   1.0000      -2.302113       -62.6437 
  41   1.0000      -2.301707       -62.6326 
  42   1.0000      -2.301626       -62.6304 
  43   1.0000      -2.301281       -62.6210 
  44   1.0000      -2.300978       -62.6128 
  45   1.0000      -2.300692       -62.6050 
  46   1.0000      -2.300127       -62.5896 
  47   1.0000      -2.299991       -62.5859 
  48   1.0000      -2.298833       -62.5544 
  49   1.0000      -2.298437       -62.5436 
  50   1.0000      -2.297490       -62.5179 
  51   1.0000      -2.295676       -62.4685 
  52   1.0000      -2.292123       -62.3718 
  53   1.0000      -2.290842       -62.3370 
  54   1.0000      -2.105683       -57.2985 
  55   1.0000      -2.102988       -57.2252 
  56   1.0000      -2.101061       -57.1728 
  57   1.0000      -0.443186       -12.0597 
  58   1.0000      -0.396840       -10.7986 
  59   1.0000      -0.396241       -10.7823 
  60   1.0000      -0.392297       -10.6749 
  61   1.0000      -0.387704       -10.5500 
  62   1.0000      -0.385784       -10.4977 
  63   1.0000      -0.381811       -10.3896 
  64   1.0000      -0.379996       -10.3402 
  65   1.0000      -0.369959       -10.0671 
  66   1.0000      -0.365015        -9.9326 
  67   1.0000      -0.362574        -9.8661 
  68   1.0000      -0.360002        -9.7962 
  69   1.0000      -0.358046        -9.7429 
  70   1.0000      -0.357396        -9.7252 
  71   1.0000      -0.355657        -9.6779 
  72   1.0000      -0.350483        -9.5371 
  73   1.0000      -0.349284        -9.5045 
  74   1.0000      -0.346218        -9.4211 
  75   1.0000      -0.343383        -9.3439 
  76   1.0000      -0.342195        -9.3116 
  77   1.0000      -0.339455        -9.2370 
  78   1.0000      -0.337756        -9.1908 
  79   1.0000      -0.335272        -9.1232 
  80   1.0000      -0.334983        -9.1154 
  81   1.0000      -0.331270        -9.0143 
  82   1.0000      -0.325410        -8.8549 
  83   1.0000      -0.324852        -8.8397 
  84   1.0000      -0.320321        -8.7164 
  85   1.0000      -0.318445        -8.6653 
  86   1.0000      -0.317854        -8.6493 
  87   1.0000      -0.313866        -8.5407 
  88   1.0000      -0.313339        -8.5264 
  89   1.0000      -0.308013        -8.3815 
  90   1.0000      -0.305647        -8.3171 
  91   1.0000      -0.304003        -8.2723 
  92   1.0000      -0.297085        -8.0841 
  93   1.0000      -0.293888        -7.9971 
  94   1.0000      -0.293377        -7.9832 
  95   1.0000      -0.290819        -7.9136 
  96   1.0000      -0.287063        -7.8114 
  97   1.0000      -0.286152        -7.7866 
  98   1.0000      -0.283652        -7.7186 
  99   1.0000      -0.283340        -7.7101 
 100   1.0000      -0.280687        -7.6379 
 101   1.0000      -0.279749        -7.6124 
 102   1.0000      -0.279260        -7.5990 
 103   1.0000      -0.278266        -7.5720 
 104   1.0000      -0.276982        -7.5371 
 105   1.0000      -0.275694        -7.5020 
 106   1.0000      -0.273575        -7.4444 
 107   1.0000      -0.270388        -7.3576 
 108   1.0000      -0.268640        -7.3101 
 109   1.0000      -0.268483        -7.3058 
 110   1.0000      -0.266573        -7.2538 
 111   1.0000      -0.265991        -7.2380 
 112   1.0000      -0.264514        -7.1978 
 113   1.0000      -0.262778        -7.1505 
 114   1.0000      -0.262404        -7.1404 
 115   1.0000      -0.261623        -7.1191 
 116   1.0000      -0.260567        -7.0904 
 117   1.0000      -0.259793        -7.0693 
 118   1.0000      -0.259051        -7.0491 
 119   1.0000      -0.256337        -6.9753 
 120   1.0000      -0.254618        -6.9285 
 121   1.0000      -0.253737        -6.9045 
 122   1.0000      -0.249856        -6.7989 
 123   1.0000      -0.248865        -6.7720 
 124   1.0000      -0.246609        -6.7106 
 125   1.0000      -0.242985        -6.6119 
 126   1.0000      -0.212260        -5.7759 
 127   1.0000      -0.192888        -5.2487 
 128   1.0000      -0.187543        -5.1033 
 129   0.0000      -0.178627        -4.8607 
 130   0.0000      -0.149229        -4.0607 
 131   0.0000      -0.136494        -3.7142 
 132   0.0000      -0.117712        -3.2031 
 133   0.0000      -0.110542        -3.0080 
 134   0.0000      -0.108472        -2.9517 
 135   0.0000      -0.061985        -1.6867 
 136   0.0000      -0.059627        -1.6225 
 137   0.0000      -0.057086        -1.5534 
 138   0.0000      -0.055286        -1.5044 
 139   0.0000      -0.041696        -1.1346 
 140   0.0000      -0.038399        -1.0449 
 141   0.0000      -0.027259        -0.7417 
 142   0.0000      -0.020314        -0.5528 
 143   0.0000      -0.007446        -0.2026 
 144   0.0000       0.000690         0.0188 
 145   0.0000       0.011911         0.3241 
 146   0.0000       0.015370         0.4182 
 147   0.0000       0.045065         1.2263 
 148   0.0000       0.045438         1.2364 
 149   0.0000       0.051013         1.3881 
 150   0.0000       0.053281         1.4499 
 151   0.0000       0.058215         1.5841 
 152   0.0000       0.067609         1.8397 
 153   0.0000       0.068330         1.8593 
 154   0.0000       0.071188         1.9371 
 155   0.0000       0.072093         1.9617 
 156   0.0000       0.073281         1.9941 
 157   0.0000       0.075844         2.0638 
 158   0.0000       0.085206         2.3186 
 159   0.0000       0.087055         2.3689 
 160   0.0000       0.096823         2.6347 
 161   0.0000       0.105432         2.8689 
 162   0.0000       0.107878         2.9355 
 163   0.0000       0.108956         2.9648 
 164   0.0000       0.121346         3.3020 
 165   0.0000       0.130613         3.5542 
 166   0.0000       0.134333         3.6554 
 167   0.0000       0.139247         3.7891 
 168   0.0000       0.142195         3.8693 
 169   0.0000       0.154688         4.2093 
 170   0.0000       0.159917         4.3516 
 171   0.0000       0.162661         4.4262 
 172   0.0000       0.169938         4.6243 
 173   0.0000       0.178844         4.8666 
 174   0.0000       0.181492         4.9387 
 175   0.0000       0.183676         4.9981 
 176   0.0000       0.186043         5.0625 
 177   0.0000       0.187598         5.1048 
 178   0.0000       0.194346         5.2884 
 179   0.0000       0.196444         5.3455 
 180   0.0000       0.219490         5.9726 
 181   0.0000       0.225431         6.1343 
 182   0.0000       0.231739         6.3059 
 183   0.0000       0.236973         6.4484 
 184   0.0000       0.240600         6.5471 
 185   0.0000       0.244546         6.6544 
 186   0.0000       0.245354         6.6764 
 187   0.0000       0.251194         6.8353 
 188   0.0000       0.252542         6.8720 
 189   0.0000       0.254984         6.9385 
 190   0.0000       0.258814         7.0427 
 191   0.0000       0.266124         7.2416 
 192   0.0000       0.268511         7.3066 
 193   0.0000       0.275535         7.4977 
 194   0.0000       0.283708         7.7201 
 195   0.0000       0.285468         7.7680 
 196   0.0000       0.295292         8.0353 
 197   0.0000       0.308394         8.3918 
 198   0.0000       0.309034         8.4092 
 199   0.0000       0.311013         8.4631 
 200   0.0000       0.317997         8.6531 
 201   0.0000       0.324560         8.8317 
 202   0.0000       0.326558         8.8861 
 203   0.0000       0.329305         8.9608 
 204   0.0000       0.336383         9.1534 
 205   0.0000       0.339629         9.2418 
 206   0.0000       0.343121         9.3368 
 207   0.0000       0.349266         9.5040 
 208   0.0000       0.355385         9.6705 
 209   0.0000       0.359659         9.7868 
 210   0.0000       0.364279         9.9125 
 211   0.0000       0.365990         9.9591 
 212   0.0000       0.371652        10.1132 
 213   0.0000       0.383135        10.4256 
 214   0.0000       0.388224        10.5641 
 215   0.0000       0.396713        10.7951 
 216   0.0000       0.402697        10.9579 
 217   0.0000       0.406347        11.0573 
 218   0.0000       0.408215        11.1081 
 219   0.0000       0.411738        11.2039 
 220   0.0000       0.413579        11.2541 
 221   0.0000       0.427213        11.6251 
 222   0.0000       0.436318        11.8728 
 223   0.0000       0.440784        11.9944 
 224   0.0000       0.451091        12.2748 
 225   0.0000       0.457864        12.4591 
 226   0.0000       0.460550        12.5322 
 227   0.0000       0.469063        12.7639 
 228   0.0000       0.482209        13.1216 
 229   0.0000       0.485327        13.2064 
 230   0.0000       0.489480        13.3194 
 231   0.0000       0.492244        13.3946 
 232   0.0000       0.494458        13.4549 
 233   0.0000       0.499574        13.5941 
 234   0.0000       0.503818        13.7096 
 235   0.0000       0.505545        13.7566 
 236   0.0000       0.506946        13.7947 
 237   0.0000       0.510589        13.8938 
 238   0.0000       0.516380        14.0514 
 239   0.0000       0.524002        14.2588 
 240   0.0000       0.526992        14.3402 
 241   0.0000       0.529918        14.4198 
 242   0.0000       0.532500        14.4901 
 243   0.0000       0.534028        14.5316 
 244   0.0000       0.537552        14.6275 
 245   0.0000       0.546282        14.8651 
 246   0.0000       0.554294        15.0831 
 247   0.0000       0.558481        15.1970 
 248   0.0000       0.571748        15.5581 
 249   0.0000       0.579220        15.7614 
 250   0.0000       0.585629        15.9358 
 251   0.0000       0.589326        16.0364 
 252   0.0000       0.661046        17.9880 
 253   0.0000       0.671122        18.2622 
 254   0.0000       0.680298        18.5118 
 255   0.0000       0.697567        18.9818 
 256   0.0000       0.699208        19.0264 
 257   0.0000       0.708618        19.2825 
 258   0.0000       0.711862        19.3708 
 259   0.0000       0.720351        19.6018 
 260   0.0000       0.722027        19.6473 
 261   0.0000       0.723756        19.6944 
 262   0.0000       0.732737        19.9388 
 263   0.0000       0.734776        19.9943 
 264   0.0000       0.745071        20.2744 
 265   0.0000       0.761398        20.7187 
 266   0.0000       0.785584        21.3768 
 267   0.0000       0.804587        21.8939 
 268   0.0000       0.813574        22.1385 
 269   0.0000       0.815675        22.1957 
 270   0.0000       0.827257        22.5108 
 271   0.0000       0.832862        22.6633 
 272   0.0000       0.851535        23.1714 
 273   0.0000       0.853252        23.2182 
 274   0.0000       0.858916        23.3723 
 275   0.0000       0.870948        23.6997 
 276   0.0000       0.907440        24.6927 
 277   0.0000       0.917805        24.9748 
 278   0.0000       0.918704        24.9992 
 279   0.0000       0.937134        25.5007 
 280   0.0000       0.939234        25.5578 
 281   0.0000       0.942186        25.6382 
 282   0.0000       0.954155        25.9639 
 283   0.0000       0.964591        26.2478 
 284   0.0000       0.975416        26.5424 
 285   0.0000       0.976976        26.5849 
 286   0.0000       0.990051        26.9406 
 287   0.0000       1.025193        27.8969 
 288   0.0000       1.105791        30.0901 
 289   0.0000       1.114374        30.3237 
 290   0.0000       1.197035        32.5730 
 291   0.0000       1.249345        33.9964 
 292   0.0000       1.265802        34.4442 
 293   0.0000       1.268959        34.5301 
 294   0.0000       1.271139        34.5895 
 295   0.0000       1.295475        35.2517 
 296   0.0000       1.300939        35.4003 
 297   0.0000       1.328100        36.1394 
 298   0.0000       1.329084        36.1662 
 299   0.0000       1.334513        36.3139 
 300   0.0000       1.335917        36.3522 
 301   0.0000       1.353002        36.8171 
 302   0.0000       1.354164        36.8487 
 303   0.0000       1.364398        37.1271 
 304   0.0000       1.365585        37.1595 
 305   0.0000       1.369146        37.2564 
 306   0.0000       1.383929        37.6586 
 307   0.0000       1.389754        37.8171 
 308   0.0000       1.402532        38.1648 
 309   0.0000       1.428526        38.8722 
 310   0.0000       1.438534        39.1445 
 311   0.0000       1.445255        39.3274 
 312   0.0000       1.446875        39.3715 
 313   0.0000       1.463990        39.8372 
 314   0.0000       1.464513        39.8514 
 315   0.0000       1.469807        39.9955 
 316   0.0000       1.470608        40.0173 
 317   0.0000       1.478092        40.2209 
 318   0.0000       1.482962        40.3534 
 319   0.0000       1.486627        40.4532 
 320   0.0000       1.490159        40.5493 
 321   0.0000       1.496262        40.7153 
 322   0.0000       1.496834        40.7309 
 323   0.0000       1.503287        40.9065 
 324   0.0000       1.503537        40.9133 
 325   0.0000       1.509215        41.0678 
 326   0.0000       1.511733        41.1364 
 327   0.0000       1.512034        41.1445 
 328   0.0000       1.515643        41.2428 
 329   0.0000       1.519105        41.3369 
 330   0.0000       1.520382        41.3717 
 331   0.0000       1.523110        41.4459 
 332   0.0000       1.528233        41.5853 
 333   0.0000       1.529679        41.6247 
 334   0.0000       1.533131        41.7186 
 335   0.0000       1.534147        41.7463 
 336   0.0000       1.537194        41.8292 
 337   0.0000       1.541190        41.9379 
 338   0.0000       1.544611        42.0310 
 339   0.0000       1.547504        42.1097 
 340   0.0000       1.548838        42.1460 
 341   0.0000       1.549288        42.1583 
 342   0.0000       1.549743        42.1706 
 343   0.0000       1.552929        42.2573 
 344   0.0000       1.555233        42.3200 
 345   0.0000       1.555715        42.3332 
 346   0.0000       1.556697        42.3599 
 347   0.0000       1.557522        42.3823 
 348   0.0000       1.561627        42.4940 
 349   0.0000       1.562471        42.5170 
 350   0.0000       1.565290        42.5937 
 351   0.0000       1.565868        42.6094 
 352   0.0000       1.566904        42.6376 
 353   0.0000       1.567719        42.6598 
 354   0.0000       1.568472        42.6803 
 355   0.0000       1.571734        42.7691 
 356   0.0000       1.573965        42.8298 
 357   0.0000       1.574593        42.8469 
 358   0.0000       1.576651        42.9029 
 359   0.0000       1.578090        42.9420 
 360   0.0000       1.580253        43.0009 
 361   0.0000       1.580559        43.0092 
 362   0.0000       1.581969        43.0476 
 363   0.0000       1.582379        43.0587 
 364   0.0000       1.585587        43.1460 
 365   0.0000       1.586583        43.1731 
 366   0.0000       1.588779        43.2329 
 367   0.0000       1.592060        43.3222 
 368   0.0000       1.596031        43.4302 
 369   0.0000       1.601299        43.5736 
 370   0.0000       1.601630        43.5826 
 371   0.0000       1.602134        43.5963 
 372   0.0000       1.607269        43.7360 
 373   0.0000       1.608563        43.7712 
 374   0.0000       1.610195        43.8156 
 375   0.0000       1.612097        43.8674 
 376   0.0000       1.613100        43.8947 
 377   0.0000       1.617397        44.0116 
 378   0.0000       1.618259        44.0351 
 379   0.0000       1.619939        44.0808 
 380   0.0000       1.625086        44.2208 
 381   0.0000       1.628612        44.3168 
 382   0.0000       1.630778        44.3757 
 383   0.0000       1.632518        44.4231 
 384   0.0000       1.634343        44.4727 
 385   0.0000       1.634666        44.4815 
 386   0.0000       1.637501        44.5587 
 387   0.0000       1.638744        44.5925 
 388   0.0000       1.645268        44.7700 
 389   0.0000       1.647928        44.8424 
 390   0.0000       1.654076        45.0097 
 391   0.0000       1.656790        45.0835 
 392   0.0000       1.658043        45.1176 
 393   0.0000       1.664184        45.2848 
 394   0.0000       1.666163        45.3386 
 395   0.0000       1.668196        45.3939 
 396   0.0000       1.671676        45.4886 
 397   0.0000       1.673669        45.5428 
 398   0.0000       1.677566        45.6489 
 399   0.0000       1.681909        45.7671 
 400   0.0000       1.683581        45.8126 
 401   0.0000       1.690776        46.0083 
 402   0.0000       1.691294        46.0224 
 403   0.0000       1.697730        46.1976 
 404   0.0000       1.700273        46.2668 
 405   0.0000       1.704412        46.3794 
 406   0.0000       1.708840        46.4999 
 407   0.0000       1.716258        46.7018 
 408   0.0000       1.729638        47.0658 
 409   0.0000       1.732123        47.1335 
 410   0.0000       1.735940        47.2373 
 411   0.0000       1.740389        47.3584 
 412   0.0000       1.754973        47.7552 
 413   0.0000       1.789085        48.6835 
 414   0.0000       1.796722        48.8913 
 415   0.0000       1.797953        48.9248 
 416   0.0000       1.808714        49.2176 
 417   0.0000       1.813741        49.3544 
 418   0.0000       1.819402        49.5084 
 419   0.0000       1.834058        49.9073 
 420   0.0000       1.835155        49.9371 
 421   0.0000       1.839755        50.0623 
 422   0.0000       1.840665        50.0871 
 423   0.0000       1.848311        50.2951 
 424   0.0000       1.859712        50.6053 
 425   0.0000       1.865517        50.7633 
 426   0.0000       1.866361        50.7863 
 427   0.0000       1.876976        51.0751 
 428   0.0000       1.882567        51.2273 
 429   0.0000       1.895421        51.5770 
 430   0.0000       1.911342        52.0103 
 431   0.0000       1.916533        52.1515 
 432   0.0000       1.957485        53.2659 
 433   0.0000       1.976085        53.7720 
 434   0.0000       1.989395        54.1342 
 435   0.0000       2.073314        56.4177 
 436   0.0000       2.162109        58.8340 
 437   0.0000       2.184836        59.4524 
 438   0.0000       2.293718        62.4153 
 439   0.0000       2.350589        63.9628 
 440   0.0000       2.360528        64.2332 
 441   0.0000       2.444487        66.5179 
 442   0.0000       2.469948        67.2107 
 443   0.0000       2.508207        68.2518 
 444   0.0000       2.522249        68.6339 
 445   0.0000       2.532936        68.9247 
 446   0.0000       2.542804        69.1932 
 447   0.0000       2.560876        69.6850 
 448   0.0000       2.564680        69.7885 
 449   0.0000       2.585676        70.3598 
 450   0.0000       2.602412        70.8152 
 451   0.0000       2.611500        71.0625 
 452   0.0000       3.113163        84.7135 
 453   0.0000       3.318823        90.3098 
 454   0.0000       3.320876        90.3656 
 455   0.0000       3.328000        90.5595 
 456   0.0000       3.331203        90.6466 
 457   0.0000       3.332190        90.6735 
 458   0.0000       3.333781        90.7168 
 459   0.0000       3.350429        91.1698 
 460   0.0000       3.423786        93.1659 
 461   0.0000       3.495387        95.1143 
 462   0.0000       3.505422        95.3874 
 463   0.0000       3.539327        96.3100 
 464   0.0000       3.593512        97.7844 
 465   0.0000      23.979970       652.5282 
 466   0.0000      24.219847       659.0555 
 467   0.0000      24.304769       661.3664 
 468   0.0000      24.408900       664.1999 
 469   0.0000      24.542217       667.8277 
 470   0.0000      24.662637       671.1045 
 471   0.0000      25.017952       680.7731 
 472   0.0000      25.147808       684.3066 
 473   0.0000      25.642212       697.7601 
 474   0.0000      25.665502       698.3938 
 475   0.0000      25.700324       699.3414 
 476   0.0000      25.748681       700.6572 
 477   0.0000      25.872803       704.0348 
 478   0.0000      25.990949       707.2497 
 479   0.0000      26.017192       707.9638 
 480   0.0000      26.043392       708.6767 
 481   0.0000      26.201210       712.9712 
 482   0.0000      26.421440       718.9639 
 483   0.0000      26.441148       719.5002 
 484   0.0000      26.609916       724.0926 
 485   0.0000      26.776357       728.6217 
 486   0.0000      26.786579       728.8999 
 487   0.0000      26.836232       730.2510 
 488   0.0000      26.873570       731.2670 
 489   0.0000      27.289578       742.5872 
 490   0.0000      27.530885       749.1535 
 491   0.0000      27.553934       749.7807 
 492   0.0000      27.709008       754.0004 
 493   0.0000      27.816096       756.9144 
 494   0.0000      28.063932       763.6584 
 495   0.0000      28.232527       768.2461 
 496   0.0000      28.423324       773.4380 
 497   0.0000      28.504670       775.6515 
 498   0.0000      29.353073       798.7377 
 499   0.0000      30.773535       837.3905 
 500   0.0000      31.163443       848.0004 
 501   0.0000      44.354356      1206.9434 
 502   0.0000      44.490279      1210.6420 
 503   0.0000      44.521623      1211.4949 
 504   0.0000      44.582004      1213.1380 
 505   0.0000      44.591091      1213.3853 
 506   0.0000      44.607350      1213.8277 
 507   0.0000      44.624294      1214.2888 
 508   0.0000      44.625929      1214.3333 
 509   0.0000      44.634530      1214.5673 
 510   0.0000      44.643015      1214.7982 
 511   0.0000      44.651026      1215.0162 
 512   0.0000      44.671513      1215.5737 
 513   0.0000     205.238019      5584.8104 
 514   0.0000     205.295450      5586.3732 
 515   0.0000     205.304653      5586.6236 
 516   0.0000     205.324618      5587.1669 
 517   0.0000     205.338965      5587.5573 
 518   0.0000     205.340280      5587.5931 
 519   0.0000     205.349005      5587.8305 
 520   0.0000     205.351679      5587.9033 
 521   0.0000     205.352106      5587.9149 
 522   0.0000     205.355797      5588.0153 
 523   0.0000     205.358080      5588.0775 
 524   0.0000     205.368863      5588.3709 

                 SPIN DOWN ORBITALS
  NO   OCC          E(Eh)            E(eV) 
   0   1.0000    -235.044019     -6395.8729 
   1   1.0000     -27.134275      -738.3611 
   2   1.0000     -23.202790      -631.3800 
   3   1.0000     -23.201349      -631.3408 
   4   1.0000     -23.200572      -631.3197 
   5   1.0000      -4.130202      -112.3885 
   6   1.0000      -4.128877      -112.3524 
   7   1.0000      -4.122632      -112.1825 
   8   1.0000      -4.121273      -112.1455 
   9   1.0000      -4.119296      -112.0917 
  10   1.0000      -4.118914      -112.0813 
  11   1.0000      -4.116898      -112.0265 
  12   1.0000      -4.115102      -111.9776 
  13   1.0000      -4.115036      -111.9758 
  14   1.0000      -4.114863      -111.9711 
  15   1.0000      -4.114593      -111.9638 
  16   1.0000      -4.107692      -111.7760 
  17   1.0000      -3.035269       -82.5939 
  18   1.0000      -2.318938       -63.1015 
  19   1.0000      -2.316800       -63.0433 
  20   1.0000      -2.316534       -63.0361 
  21   1.0000      -2.315069       -62.9962 
  22   1.0000      -2.314333       -62.9762 
  23   1.0000      -2.311725       -62.9052 
  24   1.0000      -2.309575       -62.8467 
  25   1.0000      -2.309320       -62.8398 
  26   1.0000      -2.308484       -62.8170 
  27   1.0000      -2.308077       -62.8060 
  28   1.0000      -2.307819       -62.7989 
  29   1.0000      -2.307036       -62.7776 
  30   1.0000      -2.306686       -62.7681 
  31   1.0000      -2.306190       -62.7546 
  32   1.0000      -2.305617       -62.7390 
  33   1.0000      -2.305126       -62.7257 
  34   1.0000      -2.304449       -62.7072 
  35   1.0000      -2.303548       -62.6827 
  36   1.0000      -2.303209       -62.6735 
  37   1.0000      -2.302147       -62.6446 
  38   1.0000      -2.301927       -62.6386 
  39   1.0000      -2.301401       -62.6243 
  40   1.0000      -2.301191       -62.6186 
  41   1.0000      -2.300772       -62.6072 
  42   1.0000      -2.300444       -62.5983 
  43   1.0000      -2.300170       -62.5908 
  44   1.0000      -2.300021       -62.5867 
  45   1.0000      -2.299680       -62.5775 
  46   1.0000      -2.299367       -62.5690 
  47   1.0000      -2.299268       -62.5663 
  48   1.0000      -2.298328       -62.5407 
  49   1.0000      -2.296859       -62.5007 
  50   1.0000      -2.296366       -62.4873 
  51   1.0000      -2.295624       -62.4671 
  52   1.0000      -2.291883       -62.3653 
  53   1.0000      -2.290772       -62.3351 
  54   1.0000      -1.895519       -51.5797 
  55   1.0000      -1.893108       -51.5141 
  56   1.0000      -1.891519       -51.4709 
  57   1.0000      -0.435177       -11.8418 
  58   1.0000      -0.392093       -10.6694 
  59   1.0000      -0.391479       -10.6527 
  60   1.0000      -0.385148       -10.4804 
  61   1.0000      -0.377024       -10.2593 
  62   1.0000      -0.375278       -10.2118 
  63   1.0000      -0.373145       -10.1538 
  64   1.0000      -0.372697       -10.1416 
  65   1.0000      -0.366140        -9.9632 
  66   1.0000      -0.361140        -9.8271 
  67   1.0000      -0.360450        -9.8083 
  68   1.0000      -0.356953        -9.7132 
  69   1.0000      -0.356687        -9.7060 
  70   1.0000      -0.356554        -9.7023 
  71   1.0000      -0.353994        -9.6327 
  72   1.0000      -0.349299        -9.5049 
  73   1.0000      -0.344396        -9.3715 
  74   1.0000      -0.342320        -9.3150 
  75   1.0000      -0.340213        -9.2577 
  76   1.0000      -0.337771        -9.1912 
  77   1.0000      -0.336296        -9.1511 
  78   1.0000      -0.334016        -9.0890 
  79   1.0000      -0.333384        -9.0718 
  80   1.0000      -0.328289        -8.9332 
  81   1.0000      -0.325220        -8.8497 
  82   1.0000      -0.321234        -8.7412 
  83   1.0000      -0.319742        -8.7006 
  84   1.0000      -0.315385        -8.5821 
  85   1.0000      -0.314562        -8.5597 
  86   1.0000      -0.309640        -8.4257 
  87   1.0000      -0.309236        -8.4147 
  88   1.0000      -0.302053        -8.2193 
  89   1.0000      -0.301592        -8.2067 
  90   1.0000      -0.301393        -8.2013 
  91   1.0000      -0.292888        -7.9699 
  92   1.0000      -0.292515        -7.9597 
  93   1.0000      -0.288846        -7.8599 
  94   1.0000      -0.288483        -7.8500 
  95   1.0000      -0.288010        -7.8371 
  96   1.0000      -0.285238        -7.7617 
  97   1.0000      -0.284420        -7.7395 
  98   1.0000      -0.281036        -7.6474 
  99   1.0000      -0.280589        -7.6352 
 100   1.0000      -0.279209        -7.5977 
 101   1.0000      -0.277446        -7.5497 
 102   1.0000      -0.276955        -7.5363 
 103   1.0000      -0.275970        -7.5095 
 104   1.0000      -0.275345        -7.4925 
 105   1.0000      -0.270370        -7.3572 
 106   1.0000      -0.269844        -7.3428 
 107   1.0000      -0.266834        -7.2609 
 108   1.0000      -0.266086        -7.2406 
 109   1.0000      -0.264391        -7.1944 
 110   1.0000      -0.264128        -7.1873 
 111   1.0000      -0.261833        -7.1248 
 112   1.0000      -0.260632        -7.0921 
 113   1.0000      -0.259967        -7.0741 
 114   1.0000      -0.257071        -6.9953 
 115   1.0000      -0.253372        -6.8946 
 116   1.0000      -0.252539        -6.8719 
 117   1.0000      -0.250147        -6.8069 
 118   1.0000      -0.249016        -6.7761 
 119   1.0000      -0.247112        -6.7243 
 120   1.0000      -0.242918        -6.6101 
 121   1.0000      -0.218246        -5.9388 
 122   1.0000      -0.199962        -5.4412 
 123   1.0000      -0.196080        -5.3356 
 124   0.0000      -0.189920        -5.1680 
 125   0.0000      -0.154525        -4.2048 
 126   0.0000      -0.134280        -3.6540 
 127   0.0000      -0.115584        -3.1452 
 128   0.0000      -0.110922        -3.0183 
 129   0.0000      -0.108555        -2.9539 
 130   0.0000      -0.107721        -2.9312 
 131   0.0000      -0.105883        -2.8812 
 132   0.0000      -0.104058        -2.8316 
 133   0.0000      -0.102744        -2.7958 
 134   0.0000      -0.099833        -2.7166 
 135   0.0000      -0.057224        -1.5571 
 136   0.0000      -0.054309        -1.4778 
 137   0.0000      -0.050951        -1.3864 
 138   0.0000      -0.050320        -1.3693 
 139   0.0000      -0.038462        -1.0466 
 140   0.0000      -0.037278        -1.0144 
 141   0.0000      -0.020348        -0.5537 
 142   0.0000      -0.015201        -0.4136 
 143   0.0000       0.000224         0.0061 
 144   0.0000       0.008702         0.2368 
 145   0.0000       0.020772         0.5652 
 146   0.0000       0.022174         0.6034 
 147   0.0000       0.046450         1.2640 
 148   0.0000       0.050789         1.3820 
 149   0.0000       0.056955         1.5498 
 150   0.0000       0.057862         1.5745 
 151   0.0000       0.061665         1.6780 
 152   0.0000       0.069552         1.8926 
 153   0.0000       0.070266         1.9120 
 154   0.0000       0.072218         1.9651 
 155   0.0000       0.074236         2.0201 
 156   0.0000       0.074904         2.0382 
 157   0.0000       0.078662         2.1405 
 158   0.0000       0.085874         2.3368 
 159   0.0000       0.087511         2.3813 
 160   0.0000       0.101329         2.7573 
 161   0.0000       0.107191         2.9168 
 162   0.0000       0.109344         2.9754 
 163   0.0000       0.110523         3.0075 
 164   0.0000       0.122475         3.3327 
 165   0.0000       0.135163         3.6780 
 166   0.0000       0.136292         3.7087 
 167   0.0000       0.144585         3.9344 
 168   0.0000       0.148148         4.0313 
 169   0.0000       0.157131         4.2757 
 170   0.0000       0.161021         4.3816 
 171   0.0000       0.169999         4.6259 
 172   0.0000       0.175050         4.7633 
 173   0.0000       0.185814         5.0562 
 174   0.0000       0.190338         5.1794 
 175   0.0000       0.193165         5.2563 
 176   0.0000       0.193427         5.2634 
 177   0.0000       0.196343         5.3428 
 178   0.0000       0.198528         5.4022 
 179   0.0000       0.219544         5.9741 
 180   0.0000       0.222385         6.0514 
 181   0.0000       0.226387         6.1603 
 182   0.0000       0.234055         6.3690 
 183   0.0000       0.237827         6.4716 
 184   0.0000       0.245038         6.6678 
 185   0.0000       0.246059         6.6956 
 186   0.0000       0.248256         6.7554 
 187   0.0000       0.252331         6.8663 
 188   0.0000       0.252592         6.8734 
 189   0.0000       0.256373         6.9763 
 190   0.0000       0.259512         7.0617 
 191   0.0000       0.267940         7.2910 
 192   0.0000       0.269286         7.3276 
 193   0.0000       0.275969         7.5095 
 194   0.0000       0.285327         7.7641 
 195   0.0000       0.286348         7.7919 
 196   0.0000       0.298242         8.1156 
 197   0.0000       0.309563         8.4236 
 198   0.0000       0.310689         8.4543 
 199   0.0000       0.313200         8.5226 
 200   0.0000       0.319893         8.7047 
 201   0.0000       0.325947         8.8695 
 202   0.0000       0.327305         8.9064 
 203   0.0000       0.331037         9.0080 
 204   0.0000       0.337838         9.1930 
 205   0.0000       0.341437         9.2910 
 206   0.0000       0.343326         9.3424 
 207   0.0000       0.351717         9.5707 
 208   0.0000       0.358951         9.7676 
 209   0.0000       0.360522         9.8103 
 210   0.0000       0.366123         9.9627 
 211   0.0000       0.366847         9.9824 
 212   0.0000       0.373238        10.1563 
 213   0.0000       0.385435        10.4882 
 214   0.0000       0.389623        10.6022 
 215   0.0000       0.398116        10.8333 
 216   0.0000       0.406632        11.0650 
 217   0.0000       0.408194        11.1075 
 218   0.0000       0.411748        11.2042 
 219   0.0000       0.416798        11.3417 
 220   0.0000       0.417914        11.3720 
 221   0.0000       0.430603        11.7173 
 222   0.0000       0.437915        11.9163 
 223   0.0000       0.441947        12.0260 
 224   0.0000       0.452112        12.3026 
 225   0.0000       0.459608        12.5066 
 226   0.0000       0.461883        12.5685 
 227   0.0000       0.470649        12.8070 
 228   0.0000       0.484207        13.1759 
 229   0.0000       0.487133        13.2556 
 230   0.0000       0.495559        13.4849 
 231   0.0000       0.498019        13.5518 
 232   0.0000       0.499308        13.5869 
 233   0.0000       0.502205        13.6657 
 234   0.0000       0.506294        13.7770 
 235   0.0000       0.510926        13.9030 
 236   0.0000       0.512047        13.9335 
 237   0.0000       0.516164        14.0455 
 238   0.0000       0.520549        14.1649 
 239   0.0000       0.526942        14.3388 
 240   0.0000       0.528304        14.3759 
 241   0.0000       0.532487        14.4897 
 242   0.0000       0.533921        14.5287 
 243   0.0000       0.535769        14.5790 
 244   0.0000       0.539410        14.6781 
 245   0.0000       0.556392        15.1402 
 246   0.0000       0.560192        15.2436 
 247   0.0000       0.562633        15.3100 
 248   0.0000       0.577934        15.7264 
 249   0.0000       0.586203        15.9514 
 250   0.0000       0.588094        16.0028 
 251   0.0000       0.590511        16.0686 
 252   0.0000       0.672053        18.2875 
 253   0.0000       0.678048        18.4506 
 254   0.0000       0.685727        18.6596 
 255   0.0000       0.707592        19.2546 
 256   0.0000       0.709316        19.3015 
 257   0.0000       0.713435        19.4136 
 258   0.0000       0.719619        19.5818 
 259   0.0000       0.722763        19.6674 
 260   0.0000       0.725131        19.7318 
 261   0.0000       0.731917        19.9165 
 262   0.0000       0.740023        20.1370 
 263   0.0000       0.741654        20.1814 
 264   0.0000       0.746539        20.3144 
 265   0.0000       0.773032        21.0353 
 266   0.0000       0.793310        21.5871 
 267   0.0000       0.806164        21.9368 
 268   0.0000       0.814911        22.1749 
 269   0.0000       0.817852        22.2549 
 270   0.0000       0.831214        22.6185 
 271   0.0000       0.836015        22.7491 
 272   0.0000       0.854960        23.2646 
 273   0.0000       0.858066        23.3492 
 274   0.0000       0.866766        23.5859 
 275   0.0000       0.873471        23.7684 
 276   0.0000       0.919362        25.0171 
 277   0.0000       0.920783        25.0558 
 278   0.0000       0.934056        25.4170 
 279   0.0000       0.945652        25.7325 
 280   0.0000       0.948994        25.8234 
 281   0.0000       0.958395        26.0793 
 282   0.0000       0.975939        26.5567 
 283   0.0000       0.981474        26.7073 
 284   0.0000       0.996311        27.1110 
 285   0.0000       1.003552        27.3080 
 286   0.0000       1.007304        27.4101 
 287   0.0000       1.038188        28.2505 
 288   0.0000       1.111602        30.2482 
 289   0.0000       1.116670        30.3861 
 290   0.0000       1.198632        32.6164 
 291   0.0000       1.251008        34.0417 
 292   0.0000       1.270360        34.5682 
 293   0.0000       1.270665        34.5765 
 294   0.0000       1.272790        34.6344 
 295   0.0000       1.296230        35.2722 
 296   0.0000       1.301649        35.4197 
 297   0.0000       1.329790        36.1854 
 298   0.0000       1.334257        36.3070 
 299   0.0000       1.335788        36.3486 
 300   0.0000       1.339178        36.4409 
 301   0.0000       1.355230        36.8777 
 302   0.0000       1.355591        36.8875 
 303   0.0000       1.367789        37.2194 
 304   0.0000       1.369904        37.2770 
 305   0.0000       1.374188        37.3936 
 306   0.0000       1.386465        37.7276 
[...]
      px      :     2.102421
      py      :     2.083009
      dz2     :     1.989181  d :     9.884321
      dxz     :     1.986363
      dyz     :     1.955727
      dx2y2   :     1.970476
      dxy     :     1.982574
      f0      :     0.000880  f :     0.004557
      f+1     :     0.000517
      f-1     :     0.000974
      f+2     :     0.000728
      f-2     :     0.000498
      f+3     :     0.000417
      f-3     :     0.000544
  1 Aus       :     2.600651  s :     2.600651
      pz      :     2.241297  p :     6.447259
      px      :     2.094753
      py      :     2.111209
      dz2     :     1.970538  d :     9.867845
      dxz     :     1.978284
      dyz     :     1.978973
      dx2y2   :     1.961999
      dxy     :     1.978053
      f0      :     0.000638  f :     0.004893
      f+1     :     0.000933
      f-1     :     0.000756
      f+2     :     0.000731
      f-2     :     0.000727
      f+3     :     0.000627
      f-3     :     0.000482
  2 Aus       :     2.651147  s :     2.651147
      pz      :     2.129248  p :     6.472162
      px      :     2.237064
      py      :     2.105850
      dz2     :     1.958799  d :     9.860416
      dxz     :     1.962006
      dyz     :     1.973424
      dx2y2   :     1.979168
      dxy     :     1.987020
      f0      :     0.000777  f :     0.005320
      f+1     :     0.000947
      f-1     :     0.000514
      f+2     :     0.001106
      f-2     :     0.000617
      f+3     :     0.000597
      f-3     :     0.000763
  3 Aus       :     2.512909  s :     2.512909
      pz      :     2.205473  p :     6.519231
      px      :     2.179546
      py      :     2.134213
      dz2     :     1.989127  d :     9.909504
      dxz     :     1.976902
      dyz     :     1.974011
      dx2y2   :     1.978790
      dxy     :     1.990675
      f0      :     0.000799  f :     0.005700
      f+1     :     0.000994
      f-1     :     0.000798
      f+2     :     0.000917
      f-2     :     0.000680
      f+3     :     0.000705
      f-3     :     0.000807
  4 Aus       :     2.593118  s :     2.593118
      pz      :     2.134329  p :     6.451564
      px      :     2.161641
      py      :     2.155594
      dz2     :     1.979465  d :     9.878507
      dxz     :     1.952013
      dyz     :     1.983706
      dx2y2   :     1.993316
      dxy     :     1.970006
      f0      :     0.000656  f :     0.004913
      f+1     :     0.000615
      f-1     :     0.000776
      f+2     :     0.000593
      f-2     :     0.000619
      f+3     :     0.000616
      f-3     :     0.001038
  5 Aus       :     2.653198  s :     2.653198
      pz      :     2.279339  p :     6.470998
      px      :     2.074036
      py      :     2.117623
      dz2     :     1.959690  d :     9.859142
      dxz     :     1.972649
      dyz     :     1.979084
      dx2y2   :     1.984000
      dxy     :     1.963719
      f0      :     0.001056  f :     0.005315
      f+1     :     0.000920
      f-1     :     0.001271
      f+2     :     0.000790
      f-2     :     0.000575
      f+3     :     0.000287
      f-3     :     0.000417
  6 Aus       :     2.600506  s :     2.600506
      pz      :     2.151254  p :     6.448313
      px      :     2.183422
      py      :     2.113638
      dz2     :     1.977003  d :     9.867355
      dxz     :     1.970960
      dyz     :     1.961304
      dx2y2   :     1.970084
      dxy     :     1.988004
      f0      :     0.000651  f :     0.004897
      f+1     :     0.000757
      f-1     :     0.000652
      f+2     :     0.000683
      f-2     :     0.000574
      f+3     :     0.000688
      f-3     :     0.000891
  7 Aus       :     2.586258  s :     2.586258
      pz      :     2.101512  p :     6.497614
      px      :     2.201476
      py      :     2.194626
      dz2     :     1.955871  d :     9.898341
      dxz     :     1.999928
      dyz     :     1.998756
      dx2y2   :     1.969566
      dxy     :     1.974220
      f0      :     0.000665  f :     0.004942
      f+1     :     0.000624
      f-1     :     0.000608
      f+2     :     0.000993
      f-2     :     0.000931
      f+3     :     0.000466
      f-3     :     0.000655
  8 Aus       :     2.586403  s :     2.586403
      pz      :     2.180079  p :     6.496969
      px      :     2.154750
      py      :     2.162140
      dz2     :     1.985330  d :     9.898802
      dxz     :     1.976499
      dyz     :     1.973532
      dx2y2   :     1.992473
      dxy     :     1.970968
      f0      :     0.000707  f :     0.004938
      f+1     :     0.000745
      f-1     :     0.000784
      f+2     :     0.000603
      f-2     :     0.000632
      f+3     :     0.000673
      f-3     :     0.000794
  9 Aus       :     2.494835  s :     2.494835
      pz      :     2.199062  p :     6.511956
      px      :     2.194053
      py      :     2.118841
      dz2     :     1.980198  d :     9.908752
      dxz     :     1.975554
      dyz     :     1.985173
      dx2y2   :     1.991479
      dxy     :     1.976347
      f0      :     0.000645  f :     0.005759
      f+1     :     0.000914
      f-1     :     0.000905
      f+2     :     0.000890
      f-2     :     0.000739
      f+3     :     0.000972
      f-3     :     0.000694
 10 Aus       :     2.513530  s :     2.513530
      pz      :     2.192056  p :     6.517221
      px      :     2.108063
      py      :     2.217102
      dz2     :     1.981070  d :     9.909154
      dxz     :     1.980336
      dyz     :     1.984495
      dx2y2   :     1.964338
      dxy     :     1.998914
      f0      :     0.000683  f :     0.005670
      f+1     :     0.000757
      f-1     :     0.000948
      f+2     :     0.000814
      f-2     :     0.000767
      f+3     :     0.000988
      f-3     :     0.000712
 11 Aus       :     2.499176  s :     2.499176
      pz      :     2.234345  p :     6.591735
      px      :     2.148586
      py      :     2.208805
      dz2     :     1.987982  d :     9.909047
      dxz     :     1.967943
      dyz     :     1.980144
      dx2y2   :     2.000359
      dxy     :     1.972619
      f0      :     0.000825  f :     0.005992
      f+1     :     0.000746
      f-1     :     0.001293
      f+2     :     0.001063
      f-2     :     0.000770
      f+3     :     0.000459
      f-3     :     0.000837
 12 Mns       :     6.266322  s :     6.266322
      pz      :     4.186384  p :    12.584752
      px      :     4.210188
      py      :     4.188180
      dz2     :     1.367392  d :     6.673924
      dxz     :     1.378171
      dyz     :     1.299419
      dx2y2   :     1.316102
      dxy     :     1.312841
      f0      :     0.000172  f :     0.000975
      f+1     :     0.000116
      f-1     :     0.000083
      f+2     :     0.000166
      f-2     :     0.000164
      f+3     :     0.000154
      f-3     :     0.000121

SPIN
  0 Aus       :     0.024215  s :     0.024215
      pz      :     0.004400  p :     0.001179
      px      :     0.004163
      py      :    -0.007385
      dz2     :    -0.000022  d :    -0.014892
      dxz     :    -0.001207
      dyz     :    -0.007338
      dx2y2   :    -0.004633
      dxy     :    -0.001693
      f0      :    -0.000008  f :    -0.000073
      f+1     :    -0.000010
      f-1     :    -0.000015
      f+2     :    -0.000023
      f-2     :    -0.000000
      f+3     :    -0.000013
      f-3     :    -0.000004
  1 Aus       :    -0.088109  s :    -0.088109
      pz      :    -0.017828  p :    -0.046477
      px      :    -0.005997
      py      :    -0.022653
      dz2     :     0.001217  d :     0.007390
      dxz     :     0.005140
      dyz     :    -0.010366
      dx2y2   :     0.008206
      dxy     :     0.003193
      f0      :     0.000029  f :     0.000312
      f+1     :     0.000081
      f-1     :    -0.000007
      f+2     :     0.000080
      f-2     :    -0.000014
      f+3     :     0.000078
      f-3     :     0.000064
  2 Aus       :    -0.013760  s :    -0.013760
      pz      :     0.009313  p :    -0.015942
      px      :    -0.015522
      py      :    -0.009732
      dz2     :     0.010047  d :    -0.002634
      dxz     :     0.001385
      dyz     :     0.003277
      dx2y2   :    -0.007090
      dxy     :    -0.010253
      f0      :     0.000091  f :     0.000150
      f+1     :     0.000051
      f-1     :     0.000034
      f+2     :    -0.000023
      f-2     :    -0.000007
      f+3     :    -0.000001
      f-3     :     0.000005
  3 Aus       :    -0.077105  s :    -0.077105
      pz      :     0.001745  p :    -0.047628
      px      :    -0.030580
      py      :    -0.018792
      dz2     :    -0.011862  d :    -0.011277
      dxz     :     0.002913
      dyz     :     0.004244
      dx2y2   :    -0.004584
      dxy     :    -0.001988
      f0      :     0.000012  f :     0.000131
      f+1     :     0.000000
      f-1     :     0.000012
      f+2     :     0.000066
      f-2     :     0.000014
      f+3     :     0.000019
      f-3     :     0.000007
  4 Aus       :    -0.109108  s :    -0.109108
      pz      :    -0.006426  p :    -0.058745
      px      :    -0.024862
      py      :    -0.027457
      dz2     :    -0.005176  d :     0.005853
      dxz     :     0.008048
      dyz     :     0.001870
      dx2y2   :     0.001462
      dxy     :    -0.000351
      f0      :     0.000012  f :     0.000238
      f+1     :     0.000066
      f-1     :     0.000005
      f+2     :     0.000049
      f-2     :     0.000085
      f+3     :    -0.000001
      f-3     :     0.000023
  5 Aus       :    -0.012730  s :    -0.012730
      pz      :     0.001605  p :    -0.015494
      px      :     0.001408
      py      :    -0.018507
      dz2     :    -0.001499  d :    -0.001864
      dxz     :    -0.005052
      dyz     :    -0.004483
      dx2y2   :     0.000385
      dxy     :     0.008785
      f0      :     0.000021  f :     0.000155
      f+1     :     0.000002
      f-1     :     0.000019
      f+2     :    -0.000015
      f-2     :     0.000046
      f+3     :     0.000039
      f-3     :     0.000043
  6 Aus       :    -0.087811  s :    -0.087811
      pz      :     0.002872  p :    -0.045557
      px      :    -0.035443
      py      :    -0.012985
      dz2     :    -0.001174  d :     0.007438
      dxz     :     0.004489
      dyz     :     0.007245
      dx2y2   :     0.001054
      dxy     :    -0.004176
      f0      :     0.000032  f :     0.000315
      f+1     :     0.000027
      f-1     :     0.000054
      f+2     :     0.000095
      f-2     :     0.000060
      f+3     :     0.000023
      f-3     :     0.000025
  7 Aus       :    -0.017794  s :    -0.017794
      pz      :     0.005031  p :    -0.032920
      px      :    -0.016515
      py      :    -0.021436
      dz2     :     0.011841  d :    -0.022015
      dxz     :    -0.003374
      dyz     :    -0.001257
      dx2y2   :    -0.015585
      dxy     :    -0.013639
      f0      :     0.000102  f :     0.000026
      f+1     :     0.000004
      f-1     :     0.000010
      f+2     :    -0.000052
      f-2     :    -0.000036
      f+3     :    -0.000003
      f-3     :     0.000000
  8 Aus       :    -0.016365  s :    -0.016365
      pz      :    -0.001195  p :    -0.032740
      px      :    -0.004272
      py      :    -0.027273
      dz2     :    -0.003143  d :    -0.022613
      dxz     :    -0.009900
      dyz     :    -0.007681
      dx2y2   :    -0.006892
      dxy     :     0.005004
      f0      :     0.000009  f :     0.000023
      f+1     :    -0.000013
      f-1     :    -0.000010
      f+2     :    -0.000023
      f-2     :     0.000065
      f+3     :     0.000005
      f-3     :    -0.000011
  9 Aus       :     0.002336  s :     0.002336
      pz      :    -0.053297  p :    -0.116974
      px      :    -0.049669
      py      :    -0.014008
      dz2     :    -0.002561  d :     0.002862
      dxz     :    -0.000646
      dyz     :    -0.002600
      dx2y2   :     0.003100
      dxy     :     0.005569
      f0      :     0.000025  f :     0.000170
      f+1     :    -0.000014
      f-1     :     0.000019
      f+2     :     0.000023
      f-2     :     0.000032
      f+3     :     0.000095
      f-3     :    -0.000009
 10 Aus       :    -0.078001  s :    -0.078001
      pz      :    -0.015332  p :    -0.048285
      px      :    -0.007125
      py      :    -0.025827
      dz2     :     0.000573  d :    -0.010588
      dxz     :     0.000694
      dyz     :    -0.016658
      dx2y2   :     0.007732
      dxy     :    -0.002930
      f0      :     0.000024  f :     0.000136
      f+1     :     0.000023
      f-1     :    -0.000020
      f+2     :     0.000076
      f-2     :    -0.000029
      f+3     :     0.000074
      f-3     :    -0.000010
 11 Aus       :    -0.088877  s :    -0.088877
      pz      :    -0.002594  p :    -0.040033
      px      :    -0.013558
      py      :    -0.023881
      dz2     :    -0.002460  d :     0.019993
      dxz     :     0.005038
      dyz     :     0.010164
      dx2y2   :     0.004329
      dxy     :     0.002921
      f0      :     0.000026  f :     0.000290
      f+1     :     0.000040
      f-1     :     0.000023
      f+2     :     0.000055
      f-2     :     0.000100
      f+3     :     0.000021
      f-3     :     0.000025
 12 Mns       :     0.023110  s :     0.023110
      pz      :     0.010310  p :     0.032986
      px      :     0.010473
      py      :     0.012203
      dz2     :     0.859594  d :     4.047049
      dxz     :     0.807049
      dyz     :     0.822670
      dx2y2   :     0.758861
      dxy     :     0.798875
      f0      :     0.000010  f :     0.000054
      f+1     :     0.000008
      f-1     :     0.000005
      f+2     :     0.000009
      f-2     :     0.000008
      f+3     :     0.000007
      f-3     :     0.000007


                      *****************************
                      * MAYER POPULATION ANALYSIS *
                      *****************************

  NA   - Mulliken gross atomic population
  ZA   - Total nuclear charge
  QA   - Mulliken gross atomic charge
  VA   - Mayer's total valence
  BVA  - Mayer's bonded valence
  FA   - Mayer's free valence

  ATOM       NA         ZA         QA         VA         BVA        FA
  0 Au    18.7176    19.0000     0.2824     1.4446     1.4413     0.0033
  1 Au    18.7155    19.0000     0.2845     1.4816     1.4485     0.0330
  2 Au    18.9682    19.0000     0.0318     1.6090     1.6047     0.0043
  3 Au    18.7526    19.0000     0.2474     1.6047     1.5731     0.0316
  4 Au    18.7167    19.0000     0.2833     1.5029     1.4497     0.0532
  5 Au    18.9696    19.0000     0.0304     1.6070     1.6027     0.0043
  6 Au    18.7136    19.0000     0.2864     1.4823     1.4496     0.0327
  7 Au    18.8673    19.0000     0.1327     1.5721     1.5649     0.0073
  8 Au    18.8686    19.0000     0.1314     1.5728     1.5658     0.0071
  9 Au    18.7324    19.0000     0.2676     1.6932     1.6903     0.0029
 10 Au    18.7505    19.0000     0.2495     1.6002     1.5680     0.0322
 11 Au    18.9404    19.0000     0.0596     1.8836     1.8353     0.0483
 12 Mn    27.2870    25.0000    -2.2870     8.9644     5.2017     3.7627

  Mayer bond orders larger than 0.100000
B(  0-Au,  2-Au) :   0.3351 B(  0-Au,  5-Au) :   0.3364 B(  0-Au, 11-Au) :   0.3812 
B(  0-Au, 12-Mn) :   0.1088 B(  1-Au,  2-Au) :   0.2056 B(  1-Au,  3-Au) :   0.1251 
B(  1-Au,  4-Au) :   0.1727 B(  1-Au,  8-Au) :   0.1494 B(  1-Au, 12-Mn) :   0.5495 
B(  2-Au,  3-Au) :   0.2173 B(  2-Au, 11-Au) :   0.1294 B(  2-Au, 12-Mn) :   0.4409 
B(  3-Au,  8-Au) :   0.1789 B(  3-Au,  9-Au) :   0.2399 B(  3-Au, 11-Au) :   0.1300 
B(  3-Au, 12-Mn) :   0.4962 B(  4-Au,  6-Au) :   0.1717 B(  4-Au,  7-Au) :   0.1873 
B(  4-Au,  8-Au) :   0.1882 B(  4-Au, 12-Mn) :   0.4953 B(  5-Au,  6-Au) :   0.2071 
B(  5-Au, 10-Au) :   0.2139 B(  5-Au, 11-Au) :   0.1244 B(  5-Au, 12-Mn) :   0.4446 
B(  6-Au,  7-Au) :   0.1527 B(  6-Au, 10-Au) :   0.1215 B(  6-Au, 12-Mn) :   0.5500 
B(  7-Au,  8-Au) :   0.1607 B(  7-Au,  9-Au) :   0.2141 B(  7-Au, 10-Au) :   0.1771 
B(  7-Au, 12-Mn) :   0.4265 B(  8-Au,  9-Au) :   0.2175 B(  8-Au, 12-Mn) :   0.4248 
B(  9-Au, 10-Au) :   0.2401 B(  9-Au, 11-Au) :   0.2792 B(  9-Au, 12-Mn) :   0.2544 
B( 10-Au, 11-Au) :   0.1295 B( 10-Au, 12-Mn) :   0.4994 B( 11-Au, 12-Mn) :   0.5113 


-------
TIMINGS
-------

Total SCF time: 0 days 0 hours 2 min 27 sec 

Total time                  ....     147.781 sec
Sum of individual times     ....     145.253 sec  ( 98.3%)

Fock matrix formation       ....     136.508 sec  ( 92.4%)
  Split-RI-J                ....      24.559 sec  ( 18.0% of F)
  XC integration            ....     111.223 sec  ( 81.5% of F)
    Basis function eval.    ....       6.532 sec  (  5.9% of XC)
    Density eval.           ....      59.929 sec  ( 53.9% of XC)
    XC-Functional eval.     ....       3.689 sec  (  3.3% of XC)
    XC-Potential eval.      ....      38.520 sec  ( 34.6% of XC)
Diagonalization             ....       5.334 sec  (  3.6%)
Density matrix formation    ....       0.239 sec  (  0.2%)
Population analysis         ....       0.331 sec  (  0.2%)
Initial guess               ....       0.471 sec  (  0.3%)
Orbital Transformation      ....       0.000 sec  (  0.0%)
Orbital Orthonormalization  ....       0.422 sec  (  0.3%)
DIIS solution               ....       0.000 sec  (  0.0%)
Grid generation             ....       2.371 sec  (  1.6%)

Maximum memory used throughout the entire SCF-calculation: 82.0 MB

-------------------------   --------------------
FINAL SINGLE POINT ENERGY     -2781.142791833402
-------------------------   --------------------


                            ***************************************
                            *     ORCA property calculations      *
                            ***************************************

                                    ---------------------
                                    Active property flags
                                    ---------------------
   (+) Dipole Moment


------------------------------------------------------------------------------
                       ORCA ELECTRIC PROPERTIES CALCULATION
------------------------------------------------------------------------------

Dipole Moment Calculation                       ... on
Quadrupole Moment Calculation                   ... off
Polarizability Calculation                      ... off
GBWName                                         ... scan_job2.gbw
Electron density                                ... scan_job2.scfp
The origin for moment calculation is the CENTER OF MASS  = (17.034475, 16.323069 13.356955)

-------------
DIPOLE MOMENT
-------------
                                X             Y             Z
Electronic contribution:     -8.85258      -9.18084       3.28471
Nuclear contribution   :      8.76809       9.04227      -3.30805
                        -----------------------------------------
Total Dipole Moment    :     -0.08449      -0.13857      -0.02335
                        -----------------------------------------
Magnitude (a.u.)       :      0.16397
Magnitude (Debye)      :      0.41677



--------------------
Rotational spectrum 
--------------------
 
Rotational constants in cm-1:     0.001580     0.001289     0.001105 
Rotational constants in MHz :    47.367865    38.636460    33.113797 

 Dipole components along the rotational axes: 
x,y,z [a.u.] :    -0.005399    -0.001234     0.163875 
x,y,z [Debye]:    -0.013722    -0.003137     0.416537 

 

Timings for individual modules:

Sum of individual times         ...      164.096 sec (=   2.735 min)
GTO integral calculation        ...       16.068 sec (=   0.268 min)   9.8 %
SCF iterations                  ...      148.028 sec (=   2.467 min)  90.2 %



                             ****ORCA TERMINATED NORMALLY****
TOTAL RUN TIME: 0 days 0 hours 10 minutes 51 seconds 413 msec
