
                                 *****************
                                 * O   R   C   A *
                                 *****************

                                            #,                                       
                                            ###                                      
                                            ####                                     
                                            #####                                    
                                            ######                                   
                                           ########,                                 
                                     ,,################,,,,,                         
                               ,,#################################,,                 
                          ,,##########################################,,             
                       ,#########################################, ''#####,          
                    ,#############################################,,   '####,        
                  ,##################################################,,,,####,       
                ,###########''''           ''''###############################       
              ,#####''   ,,,,##########,,,,          '''####'''          '####       
            ,##' ,,,,###########################,,,                        '##       
           ' ,,###''''                  '''############,,,                           
         ,,##''                                '''############,,,,        ,,,,,,###''
      ,#''                                            '''#######################'''  
     '                                                          ''''####''''         
             ,#######,   #######,   ,#######,      ##                                
            ,#'     '#,  ##    ##  ,#'     '#,    #''#        ######   ,####,        
            ##       ##  ##   ,#'  ##            #'  '#       #        #'  '#        
            ##       ##  #######   ##           ,######,      #####,   #    #        
            '#,     ,#'  ##    ##  '#,     ,#' ,#      #,         ##   #,  ,#        
             '#######'   ##     ##  '#######'  #'      '#     #####' # '####'        



                  #######################################################
                  #                        -***-                        #
                  #          Department of theory and spectroscopy      #
                  #    Directorship and core code : Frank Neese         #
                  #        Max Planck Institute fuer Kohlenforschung    #
                  #                Kaiser Wilhelm Platz 1               #
                  #                 D-45470 Muelheim/Ruhr               #
                  #                      Germany                        #
                  #                                                     #
                  #                  All rights reserved                #
                  #                        -***-                        #
                  #######################################################


                         Program Version 5.0.3 -  RELEASE  -


 With contributions from (in alphabetic order):
   Daniel Aravena         : Magnetic Suceptibility
   Michael Atanasov       : Ab Initio Ligand Field Theory (pilot matlab implementation)
   Alexander A. Auer      : GIAO ZORA, VPT2 properties, NMR spectrum
   Ute Becker             : Parallelization
   Giovanni Bistoni       : ED, misc. LED, open-shell LED, HFLD
   Martin Brehm           : Molecular dynamics
   Dmytro Bykov           : SCF Hessian
   Vijay G. Chilkuri      : MRCI spin determinant printing, contributions to CSF-ICE
   Dipayan Datta          : RHF DLPNO-CCSD density
   Achintya Kumar Dutta   : EOM-CC, STEOM-CC
   Dmitry Ganyushin       : Spin-Orbit,Spin-Spin,Magnetic field MRCI
   Miquel Garcia          : C-PCM and meta-GGA Hessian, CC/C-PCM, Gaussian charge scheme
   Yang Guo               : DLPNO-NEVPT2, F12-NEVPT2, CIM, IAO-localization
   Andreas Hansen         : Spin unrestricted coupled pair/coupled cluster methods
   Benjamin Helmich-Paris : MC-RPA, TRAH-SCF, COSX integrals
   Lee Huntington         : MR-EOM, pCC
   Robert Izsak           : Overlap fitted RIJCOSX, COSX-SCS-MP3, EOM
   Marcus Kettner         : VPT2
   Christian Kollmar      : KDIIS, OOCD, Brueckner-CCSD(T), CCSD density, CASPT2, CASPT2-K
   Simone Kossmann        : Meta GGA functionals, TD-DFT gradient, OOMP2, MP2 Hessian
   Martin Krupicka        : Initial AUTO-CI
   Lucas Lang             : DCDCAS
   Marvin Lechner         : AUTO-CI (C++ implementation), FIC-MRCC
   Dagmar Lenk            : GEPOL surface, SMD
   Dimitrios Liakos       : Extrapolation schemes; Compound Job, initial MDCI parallelization
   Dimitrios Manganas     : Further ROCIS development; embedding schemes
   Dimitrios Pantazis     : SARC Basis sets
   Anastasios Papadopoulos: AUTO-CI, single reference methods and gradients
   Taras Petrenko         : DFT Hessian,TD-DFT gradient, ASA, ECA, R-Raman, ABS, FL, XAS/XES, NRVS
   Peter Pinski           : DLPNO-MP2, DLPNO-MP2 Gradient
   Christoph Reimann      : Effective Core Potentials
   Marius Retegan         : Local ZFS, SOC
   Christoph Riplinger    : Optimizer, TS searches, QM/MM, DLPNO-CCSD(T), (RO)-DLPNO pert. Triples
   Tobias Risthaus        : Range-separated hybrids, TD-DFT gradient, RPA, STAB
   Michael Roemelt        : Original ROCIS implementation
   Masaaki Saitow         : Open-shell DLPNO-CCSD energy and density
   Barbara Sandhoefer     : DKH picture change effects
   Avijit Sen             : IP-ROCIS
   Kantharuban Sivalingam : CASSCF convergence, NEVPT2, FIC-MRCI
   Bernardo de Souza      : ESD, SOC TD-DFT
   Georgi Stoychev        : AutoAux, RI-MP2 NMR, DLPNO-MP2 response
   Willem Van den Heuvel  : Paramagnetic NMR
   Boris Wezisla          : Elementary symmetry handling
   Frank Wennmohs         : Technical directorship


 We gratefully acknowledge several colleagues who have allowed us to
 interface, adapt or use parts of their codes:
   Stefan Grimme, W. Hujo, H. Kruse, P. Pracht,  : VdW corrections, initial TS optimization,
                  C. Bannwarth, S. Ehlert          DFT functionals, gCP, sTDA/sTD-DF
   Ed Valeev, F. Pavosevic, A. Kumar             : LibInt (2-el integral package), F12 methods
   Garnet Chan, S. Sharma, J. Yang, R. Olivares  : DMRG
   Ulf Ekstrom                                   : XCFun DFT Library
   Mihaly Kallay                                 : mrcc  (arbitrary order and MRCC methods)
   Jiri Pittner, Ondrej Demel                    : Mk-CCSD
   Frank Weinhold                                : gennbo (NPA and NBO analysis)
   Christopher J. Cramer and Donald G. Truhlar   : smd solvation model
   Lars Goerigk                                  : TD-DFT with DH, B97 family of functionals
   V. Asgeirsson, H. Jonsson                     : NEB implementation
   FAccTs GmbH                                   : IRC, NEB, NEB-TS, DLPNO-Multilevel, CI-OPT
                                                   MM, QMMM, 2- and 3-layer-ONIOM, Crystal-QMMM,
                                                   LR-CPCM, SF, NACMEs, symmetry and pop. for TD-DFT,
                                                   nearIR, NL-DFT gradient (VV10), updates on ESD,
                                                   ML-optimized integration grids
   S Lehtola, MJT Oliveira, MAL Marques          : LibXC Library
   Liviu Ungur et al                             : ANISO software


 Your calculation uses the libint2 library for the computation of 2-el integrals
 For citations please refer to: http://libint.valeyev.net

 Your ORCA version has been built with support for libXC version: 5.1.0
 For citations please refer to: https://tddft.org/programs/libxc/

 This ORCA versions uses:
   CBLAS   interface :  Fast vector & matrix operations
   LAPACKE interface :  Fast linear algebra routines
   SCALAPACK package :  Parallel linear algebra routines
   Shared memory     :  Shared parallel matrices
   BLAS/LAPACK       :  OpenBLAS 0.3.15  USE64BITINT DYNAMIC_ARCH NO_AFFINITY Sandybridge SINGLE_THREADED
        Core in use  :  Sandybridge
   Copyright (c) 2011-2014, The OpenBLAS Project




***************************************
The coordinates will be read from file: pbe.xyz
***************************************


================================================================================

cite the ECPs for Au [Def2-ECP] as follows:
Ce-Yb(ecp-28): M. Dolg, H. Stoll, H.Preuss, J. Chem. Phys., 1989, 90, 1730-1734.
Y-Cd(ecp-28), Hf-Hg(ecp-46): D. Andrae,U. Haeussermann, M. Dolg, H. Stoll, H. Preuss, Theor. Chim. Acta, 1990, 77, 123-141.
In-Sb(ecp-28), Tl-Bi(ecp-46): B. Metz, H. Stoll, M. Dolg, J. Chem. Phys., 2000, 113, 2563-2569.
Te-Xe(ecp-28), Po-Rn(ecp-46): K. A. Peterson, D. Figgen, E. Goll, H. Stoll, M. Dolg, J. Chem. Phys., 2003, 119, 11113-11123.
Rb(ecp-28), Cs(ecp-46): T. Leininger, A. Nicklass, W. Kuechle, H. Stoll, M. Dolg, A. Bergner, Chem. Phys. Lett., 1996, 255, 274-280.
Sr(ecp-28), Ba(ecp-46): M. Kaupp, P. V. Schleyer, H. Stoll and H. Preuss, J. Chem. Phys., 1991, 94, 1360-1366.
La(ecp-46): M. Dolg, H. Stoll, A. Savin, H. Preuss, Theor. Chim. Acta, 1989, 75, 173-194.
Lu(ecp-28): X. Cao, M. Dolg, J. Chem. Phys., 2001, 115, 7348-7355.

ECP parameters for Au [Def2-ECP] have been obtained from:
TURBOMOLE (7.0.2)

----- Orbital basis set information -----
Your calculation utilizes the basis: def2-TZVP
   F. Weigend and R. Ahlrichs, Phys. Chem. Chem. Phys. 7, 3297 (2005).

----- AuxJ basis set information -----
Your calculation utilizes the auxiliary basis: def2/J
   F. Weigend, Phys. Chem. Chem. Phys. 8, 1057 (2006).

----- AuxC basis set information -----
Your calculation utilizes the auxiliary basis: def2-TZVP/C
  H-La, Hf-Rn : A. Hellweg, C. Hattig, S. Hofener and W. Klopper, Theor. Chem. Acc. 117, 587 (2007).
        Ce-Lu : J. Chmela and M. E. Harding, Mol. Phys. (2018).

================================================================================
                                        WARNINGS
                       Please study these warnings very carefully!
================================================================================


INFO   : the flag for use of the SHARK integral package has been found!

================================================================================
                                       INPUT FILE
================================================================================
NAME = casscf.inp
|  1> !CASSCF def2-TZVP def2-TZVP/C
|  2> !MOREAD RIJCOSX
|  3> %maxcore 6000
|  4> %moinp "pbe.qro"
|  5> %pal nprocs 2 end 
|  6> 
|  7> %casscf
|  8>  mult 5,3
|  9>  bweight 1,1
| 10>  nroots 5,45
| 11>  nel 6
| 12>  norb 5
| 13> end
| 14> 
| 15> 
| 16> *xyzfile 0 5 pbe.xyz
| 17> 
| 18> 
| 19>                          ****END OF INPUT****
================================================================================

                       ****************************
                       * Single Point Calculation *
                       ****************************

---------------------------------
CARTESIAN COORDINATES (ANGSTROEM)
---------------------------------
  Au     6.150954    8.555086    3.699781
  Au     8.308475    6.823990    4.181247
  Au     7.679844    5.064980    6.214995
  Au     4.959129    5.614793    6.643313
  Au     4.658505   10.598754    4.690319
  Au     4.186232    8.086282    5.720622
  Au     8.360832    9.459042    5.146245
  Au     6.908534   11.518748    6.161064
  Au     5.160505    7.812519    8.384781
  Au     7.766653    6.748886    8.461985
  Au     7.455332    9.412028    7.856110
  Au     4.703644   10.369304    7.501397
  Fe     6.738845    7.522184    6.140912

----------------------------
CARTESIAN COORDINATES (A.U.)
----------------------------
  NO LB      ZA    FRAG     MASS         X           Y           Z
   0 Au   19.0000*   0   196.966   11.623618   16.166770    6.991572
   1 Au   19.0000*   0   196.966   15.700742   12.895472    7.901411
   2 Au   19.0000*   0   196.966   14.512802    9.571425   11.744638
   3 Au   19.0000*   0   196.966    9.371395   10.610421   12.554042
   4 Au   19.0000*   0   196.966    8.803299   20.028741    8.863419
   5 Au   19.0000*   0   196.966    7.910831   15.280859   10.810409
   6 Au   19.0000*   0   196.966   15.799682   17.874999    9.724993
   7 Au   19.0000*   0   196.966   13.055237   21.767279   11.642724
   8 Au   19.0000*   0   196.966    9.751941   14.763521   15.844939
   9 Au   19.0000*   0   196.966   14.676847   12.753546   15.990834
  10 Au   19.0000*   0   196.966   14.088536   17.786156   14.845896
  11 Au   19.0000*   0   196.966    8.888599   19.595146   14.175585
  12 Fe   26.0000    0    55.850   12.734572   14.214868   11.604642
* core charge reduced due to ECP

--------------------------------
INTERNAL COORDINATES (ANGSTROEM)
--------------------------------
 Au     0   0   0     0.000000000000     0.00000000     0.00000000
 Au     1   0   0     2.807739511795     0.00000000     0.00000000
 Au     2   1   0     2.761417220221   110.12676016     0.00000000
 Au     3   2   1     2.808565535399   102.01364836     7.48149003
 Au     1   2   3     2.717562620283   145.40214754    68.23595987
 Au     4   3   2     2.748997723358   113.40168734   339.09536143
 Au     1   2   3     2.791586324839    60.16510976   102.48336907
 Au     7   1   2     2.716876350695    90.90946386   198.60760881
 Au     4   3   2     2.811274228619   100.26013567   275.67252000
 Au     3   2   1     2.809277315566   101.54990163   287.56084751
 Au    10   3   2     2.748878726908   113.63579229    21.70127003
 Au     9   4   3     2.743399712893   121.14331744   103.91575023
 Fe     2   1   3     2.606051223850    60.06252545   328.26350044

---------------------------
INTERNAL COORDINATES (A.U.)
---------------------------
 Au     0   0   0     0.000000000000     0.00000000     0.00000000
 Au     1   0   0     5.305858732683     0.00000000     0.00000000
 Au     2   1   0     5.218322287713   110.12676016     0.00000000
 Au     3   2   1     5.307419691073   102.01364836     7.48149003
 Au     1   2   3     5.135449104116   145.40214754    68.23595987
 Au     4   3   2     5.194852839919   113.40168734   339.09536143
 Au     1   2   3     5.275333633145    60.16510976   102.48336907
 Au     7   1   2     5.134152242541    90.90946386   198.60760881
 Au     4   3   2     5.312538379441   100.26013567   275.67252000
 Au     3   2   1     5.308764760657   101.54990163   287.56084751
 Au    10   3   2     5.194627969218   113.63579229    21.70127003
 Au     9   4   3     5.184274133247   121.14331744   103.91575023
 Fe     2   1   3     4.924723104047    60.06252545   328.26350044

---------------------
BASIS SET INFORMATION
---------------------
There are 2 groups of distinct atoms

 Group   1 Type Au  : 8s7p6d1f contracted to 6s4p3d1f pattern {311111/4111/411/1}
 Group   2 Type Fe  : 17s11p7d1f contracted to 6s4p4d1f pattern {842111/6311/4111/1}

Atom   0Au   basis set group =>   1
Atom   1Au   basis set group =>   1
Atom   2Au   basis set group =>   1
Atom   3Au   basis set group =>   1
Atom   4Au   basis set group =>   1
Atom   5Au   basis set group =>   1
Atom   6Au   basis set group =>   1
Atom   7Au   basis set group =>   1
Atom   8Au   basis set group =>   1
Atom   9Au   basis set group =>   1
Atom  10Au   basis set group =>   1
Atom  11Au   basis set group =>   1
Atom  12Fe   basis set group =>   2
---------------------------------
AUXILIARY/J BASIS SET INFORMATION
---------------------------------
There are 2 groups of distinct atoms

 Group   1 Type Au  : 11s5p5d3f3g contracted to 8s5p5d2f3g pattern {41111111/11111/11111/21/111}
 Group   2 Type Fe  : 19s5p5d3f3g contracted to 8s5p5d2f3g pattern {121111111/11111/11111/21/111}

Atom   0Au   basis set group =>   1
Atom   1Au   basis set group =>   1
Atom   2Au   basis set group =>   1
Atom   3Au   basis set group =>   1
Atom   4Au   basis set group =>   1
Atom   5Au   basis set group =>   1
Atom   6Au   basis set group =>   1
Atom   7Au   basis set group =>   1
Atom   8Au   basis set group =>   1
Atom   9Au   basis set group =>   1
Atom  10Au   basis set group =>   1
Atom  11Au   basis set group =>   1
Atom  12Fe   basis set group =>   2
---------------------------------
AUXILIARY/C BASIS SET INFORMATION
---------------------------------
There are 2 groups of distinct atoms

 Group   1 Type Au  : 8s8p7d5f3g2h contracted to 8s8p7d5f3g2h pattern {11111111/11111111/1111111/11111/111/11}
 Group   2 Type Fe  : 11s9p8d6f5g2h contracted to 9s8p8d6f5g2h pattern {311111111/21111111/11111111/111111/11111/11}

Atom   0Au   basis set group =>   1
Atom   1Au   basis set group =>   1
Atom   2Au   basis set group =>   1
Atom   3Au   basis set group =>   1
Atom   4Au   basis set group =>   1
Atom   5Au   basis set group =>   1
Atom   6Au   basis set group =>   1
Atom   7Au   basis set group =>   1
Atom   8Au   basis set group =>   1
Atom   9Au   basis set group =>   1
Atom  10Au   basis set group =>   1
Atom  11Au   basis set group =>   1
Atom  12Fe   basis set group =>   2
-------------------------
ECP PARAMETER INFORMATION
-------------------------

 Group 1, Type Au ECP Def2-ECP (replacing 60 core electrons, lmax=3)

Atom   0Au   ECP group =>   1
Atom   1Au   ECP group =>   1
Atom   2Au   ECP group =>   1
Atom   3Au   ECP group =>   1
Atom   4Au   ECP group =>   1
Atom   5Au   ECP group =>   1
Atom   6Au   ECP group =>   1
Atom   7Au   ECP group =>   1
Atom   8Au   ECP group =>   1
Atom   9Au   ECP group =>   1
Atom  10Au   ECP group =>   1
Atom  11Au   ECP group =>   1



           ************************************************************
           *        Program running with 2 parallel MPI-processes     *
           *              working on a common directory               *
           ************************************************************
------------------------------------------------------------------------------
                           ORCA GTO INTEGRAL CALCULATION
                           -- RI-GTO INTEGRALS CHOSEN --
------------------------------------------------------------------------------
------------------------------------------------------------------------------
                   ___                                                        
                  /   \      - P O W E R E D   B Y -                         
                 /     \                                                     
                 |  |  |   _    _      __       _____    __    __             
                 |  |  |  | |  | |    /  \     |  _  \  |  |  /  |          
                  \  \/   | |  | |   /    \    | | | |  |  | /  /          
                 / \  \   | |__| |  /  /\  \   | |_| |  |  |/  /          
                |  |  |   |  __  | /  /__\  \  |    /   |      \           
                |  |  |   | |  | | |   __   |  |    \   |  |\   \          
                \     /   | |  | | |  |  |  |  | |\  \  |  | \   \       
                 \___/    |_|  |_| |__|  |__|  |_| \__\ |__|  \__/        
                                                                              
                      - O R C A' S   B I G   F R I E N D -                    
                                      &                                       
                       - I N T E G R A L  F E E D E R -                       
                                                                              
 v1 FN, 2020, v2 2021                                                         
------------------------------------------------------------------------------


Reading SHARK input file casscf.SHARKINP.tmp ... ok
----------------------
SHARK INTEGRAL PACKAGE
----------------------

Number of atoms                             ...     13
Number of basis functions                   ...    525
Number of shells                            ...    183
Maximum angular momentum                    ...      3
Integral batch strategy                     ... SHARK/LIBINT Hybrid
RI-J (if used) integral strategy            ... SPLIT-RIJ (Revised 2003 algorithm where possible)
Printlevel                                  ...      1
Contraction scheme used                     ... SEGMENTED contraction
Coulomb Range Separation                    ... NOT USED
Exchange Range Separation                   ... NOT USED
Finite Nucleus Model                        ... NOT USED
Auxiliary Coulomb fitting basis             ... AVAILABLE
   # of basis functions in Aux-J            ...   1157
   # of shells in Aux-J                     ...    299
   Maximum angular momentum in Aux-J        ...      4
Auxiliary J/K fitting basis                 ... NOT available
Auxiliary Correlation fitting basis         ... AVAILABLE
   # of basis functions in Aux-C            ...   1994
   # of shells in Aux-C                     ...    434
   Maximum angular momentum in Aux-C        ...      5
Auxiliary 'external' fitting basis          ... NOT available
Integral threshold                          ...     1.000000e-10
Primitive cut-off                           ...     1.000000e-11
Primitive pair pre-selection threshold      ...     1.000000e-11

Calculating pre-screening integrals         ... done (  2.2 sec) Dimension = 183
Organizing shell pair data                  ... done (  1.4 sec)
Shell pair information
Total number of shell pairs                 ...     16836
Shell pairs after pre-screening             ...     13659
Total number of primitive shell pairs       ...     45389
Primitive shell pairs kept                  ...     26735
          la=0 lb=0:   2133 shell pairs
          la=1 lb=0:   3109 shell pairs
          la=1 lb=1:   1171 shell pairs
          la=2 lb=0:   2719 shell pairs
          la=2 lb=1:   1907 shell pairs
          la=2 lb=2:    786 shell pairs
          la=3 lb=0:    714 shell pairs
          la=3 lb=1:    552 shell pairs
          la=3 lb=2:    490 shell pairs
          la=3 lb=3:     78 shell pairs

Calculating one electron integrals          ... done (  0.4 sec)
Calculating ECP integrals                   ... done ( 54.2 sec)
Calculating RI/J V-Matrix + Cholesky decomp.... done (  1.0 sec)
Calculating RI/C V-Matrix + Cholesky decomp.... done (  4.9 sec)
Calculating Nuclear repulsion               ... done (  0.0 sec) ENN=   4397.210807815461 Eh

SHARK setup successfully completed in  67.7 seconds

Maximum memory used throughout the entire GTOINT-calculation: 69.4 MB


           ************************************************************
           *        Program running with 2 parallel MPI-processes     *
           *              working on a common directory               *
           ************************************************************
-------------------------------------------------------------------------------
                                 ORCA SCF
-------------------------------------------------------------------------------

------------
SCF SETTINGS
------------
Hamiltonian:
 Ab initio Hamiltonian  Method          .... Hartree-Fock(GTOs)
 RI-approximation to the Coulomb term is turned on
   Number of AuxJ basis functions       .... 1157
   RIJ-COSX (HFX calculated with COS-X)).... on


General Settings:
 Integral files         IntName         .... casscf
 Hartree-Fock type      HFTyp           .... CASSCF
 Total Charge           Charge          ....    0
 Multiplicity           Mult            ....    5
 Number of Electrons    NEL             ....  254
 Basis Dimension        Dim             ....  525
 Nuclear Repulsion      ENuc            ....   4397.2108078155 Eh


Diagonalization of the overlap matrix:
Smallest eigenvalue                        ... 5.663e-04
Time for diagonalization                   ...    0.461 sec
Threshold for overlap eigenvalues          ... 1.000e-08
Number of eigenvalues below threshold      ... 0
Time for construction of square roots      ...    0.577 sec
Total time needed                          ...    1.040 sec

---------------------
INITIAL GUESS: MOREAD
---------------------
Guess MOs are being read from file: pbe.qro
Input Geometry matches current geometry (good)
Input basis set matches current basis set (good)
MOs were renormalized
Gram-Schmidt orthogonalization of all MOs with pivot on actives
                      ------------------
                      INITIAL GUESS DONE (  16.1 sec)
                      ------------------
--------------------
COSX GRID GENERATION
--------------------

GRIDX 1
-------
General Integration Accuracy     IntAcc      ... 3.816
Radial Grid Type                 RadialGrid  ... OptM3 with GC (2021)
Angular Grid (max. ang.)         AngularGrid ... 1 (Lebedev-50)
Angular grid pruning method      GridPruning ... 4 (adaptive)
Weight generation scheme         WeightScheme... Becke
Basis function cutoff            BFCut       ... 1.0000e-10
Integration weight cutoff        WCut        ... 1.0000e-14
Angular grids for H and He will be reduced by one unit
Partially contracted basis set               ... on
Rotationally invariant grid construction     ... off

Total number of grid points                  ...    15221
Total number of batches                      ...      245
Average number of points per batch           ...       62
Average number of grid points per atom       ...     1171
UseSFitting                                  ... on

GRIDX 2
-------
General Integration Accuracy     IntAcc      ... 4.020
Radial Grid Type                 RadialGrid  ... OptM3 with GC (2021)
Angular Grid (max. ang.)         AngularGrid ... 2 (Lebedev-110)
Angular grid pruning method      GridPruning ... 4 (adaptive)
Weight generation scheme         WeightScheme... Becke
Basis function cutoff            BFCut       ... 1.0000e-10
Integration weight cutoff        WCut        ... 1.0000e-14
Angular grids for H and He will be reduced by one unit
Partially contracted basis set               ... on
Rotationally invariant grid construction     ... off

Total number of grid points                  ...    45998
Total number of batches                      ...      725
Average number of points per batch           ...       63
Average number of grid points per atom       ...     3538
UseSFitting                                  ... on

GRIDX 3
-------
General Integration Accuracy     IntAcc      ... 4.338
Radial Grid Type                 RadialGrid  ... OptM3 with GC (2021)
Angular Grid (max. ang.)         AngularGrid ... 3 (Lebedev-194)
Angular grid pruning method      GridPruning ... 4 (adaptive)
Weight generation scheme         WeightScheme... Becke
Basis function cutoff            BFCut       ... 1.0000e-10
Integration weight cutoff        WCut        ... 1.0000e-14
Angular grids for H and He will be reduced by one unit
Partially contracted basis set               ... on
Rotationally invariant grid construction     ... off

Total number of grid points                  ...    84141
Total number of batches                      ...     1321
Average number of points per batch           ...       63
Average number of grid points per atom       ...     6472
UseSFitting                                  ... on

Time for X-Grid setup             =   20.138 sec



 ... the calculation is a CASSCF calculation -I'm leaving here GOOD LUCK!!!



           ************************************************************
           *        Program running with 2 parallel MPI-processes     *
           *              working on a common directory               *
           ************************************************************
-------------------------------------------------------------------------------
                              ORCA-CASSCF
-------------------------------------------------------------------------------

Setting up the integral package       ... done
Setting up the integral package (RI)  ... done
Building the CAS space                ... done (5 configurations for Mult=5)
Building the CAS space                ... done (35 configurations for Mult=3)

SYSTEM-SPECIFIC SETTINGS:
Number of active electrons          ...    6
Number of active orbitals           ...    5
Total number of electrons           ...  254
Total number of orbitals            ...  525
Total number aux. functions         ... 1994

Determined orbital ranges:
   Internal       0 -  123 ( 124 orbitals)
   Active       124 -  128 (   5 orbitals)
   External     129 -  524 ( 396 orbitals)
Number of rotation parameters      ...  51704

CI-STEP:
CI strategy                         ... General CI
Number of multiplicity blocks       ...    2
BLOCK  1 WEIGHT=   0.5000
  Multiplicity                      ...    5
  #(Configurations)                 ...    5
  #(CSFs)                           ...    5
  #(Roots)                          ...    5
    ROOT=0 WEIGHT=    0.100000
    ROOT=1 WEIGHT=    0.100000
    ROOT=2 WEIGHT=    0.100000
    ROOT=3 WEIGHT=    0.100000
    ROOT=4 WEIGHT=    0.100000

BLOCK  2 WEIGHT=   0.5000
  Multiplicity                      ...    3
  #(Configurations)                 ...   35
  #(CSFs)                           ...   45
  #(Roots)                          ...   45
    ROOT=0 WEIGHT=    0.011111
    ROOT=1 WEIGHT=    0.011111
    ROOT=2 WEIGHT=    0.011111
    ROOT=3 WEIGHT=    0.011111
    ROOT=4 WEIGHT=    0.011111
    ROOT=5 WEIGHT=    0.011111
    ROOT=6 WEIGHT=    0.011111
    ROOT=7 WEIGHT=    0.011111
    ROOT=8 WEIGHT=    0.011111
    ROOT=9 WEIGHT=    0.011111
    ROOT=10 WEIGHT=    0.011111
    ROOT=11 WEIGHT=    0.011111
    ROOT=12 WEIGHT=    0.011111
    ROOT=13 WEIGHT=    0.011111
    ROOT=14 WEIGHT=    0.011111
    ROOT=15 WEIGHT=    0.011111
    ROOT=16 WEIGHT=    0.011111
    ROOT=17 WEIGHT=    0.011111
    ROOT=18 WEIGHT=    0.011111
    ROOT=19 WEIGHT=    0.011111
    ROOT=20 WEIGHT=    0.011111
    ROOT=21 WEIGHT=    0.011111
    ROOT=22 WEIGHT=    0.011111
    ROOT=23 WEIGHT=    0.011111
    ROOT=24 WEIGHT=    0.011111
    ROOT=25 WEIGHT=    0.011111
    ROOT=26 WEIGHT=    0.011111
    ROOT=27 WEIGHT=    0.011111
    ROOT=28 WEIGHT=    0.011111
    ROOT=29 WEIGHT=    0.011111
    ROOT=30 WEIGHT=    0.011111
    ROOT=31 WEIGHT=    0.011111
    ROOT=32 WEIGHT=    0.011111
    ROOT=33 WEIGHT=    0.011111
    ROOT=34 WEIGHT=    0.011111
    ROOT=35 WEIGHT=    0.011111
    ROOT=36 WEIGHT=    0.011111
    ROOT=37 WEIGHT=    0.011111
    ROOT=38 WEIGHT=    0.011111
    ROOT=39 WEIGHT=    0.011111
    ROOT=40 WEIGHT=    0.011111
    ROOT=41 WEIGHT=    0.011111
    ROOT=42 WEIGHT=    0.011111
    ROOT=43 WEIGHT=    0.011111
    ROOT=44 WEIGHT=    0.011111

  PrintLevel                        ...    1
  N(GuessMat)                       ...       512
  MaxDim(CI)                        ...        10
  MaxIter(CI)                       ...        64
  Energy Tolerance CI               ...  1.00e-08
  Residual Tolerance CI             ...  1.00e-08
  Shift(CI)                         ...  1.00e-04

INTEGRAL-TRANSFORMATION-STEP:
  Algorithm                         ... RI-MO

ORBITAL-IMPROVEMENT-STEP:
  Algorithm                         ... SuperCI(PT)
  Default Parametrization           ... CAYLEY
  Act-Act rotations                 ... depends on algorithm used

  Note: SuperCI(PT) will ignore FreezeIE, FreezeAct and FreezeGrad. In general Default settings are encouraged.
        In conjunction with ShiftUp, ShiftDn or GradScaling the performance of SuperCI(PT) is less optimal.  

  MaxRot                            ... 2.00e-01 
  Max. no of vectors (DIIS)         ... 15
  DThresh (cut-off) metric          ... 1.00e-06
  Switch step at gradient           ...  3.00e-02 
  Switch step at iteration          ...        50   
  Switch step to                    ... SuperCI(PT)    

SCF-SETTINGS:
  Incremental                       ... off
  RIJCOSX approximation             ... on
  UseFinalGrid                      ... on
  RI-JK approximation               ... off
  AO integral handling              ... DIRECT
  Integral Neglect Thresh           ...  1.00e-10
  Primitive cutoff TCut             ...  1.00e-11
  Energy convergence tolerance      ...  1.00e-07
  Orbital gradient convergence      ...  1.00e-03
  Max. number of iterations         ...        75  


FINAL ORBITALS:
  Active   Orbitals                 ... natural 
  Internal Orbitals                 ... canonical 
  External Orbitals                 ... canonical 

------------------
CAS-SCF ITERATIONS
------------------


MACRO-ITERATION   1: 
   --- Inactive Energy E0 = -2868.85316139 Eh
CI-ITERATION   0: 
 -2879.673462773   0.000000000000 (    0.39)
 -2879.661040311   0.000000000000
 -2879.658370714   0.000000000000
 -2879.642971348   0.000000000000
 -2879.630843618   0.000000000000
   CI-PROBLEM SOLVED
   DENSITIES MADE
CI-ITERATION   0: 
 -2879.611122240   0.000000000000 (    0.05)
 -2879.609236549   0.000000000000
 -2879.605358553   0.000000000000
 -2879.604920844   0.000000000000
 -2879.602339373   0.000000000000
 -2879.600420257   0.000000000000
 -2879.598589015   0.000000000000
 -2879.596807823   0.000000000000
 -2879.596747588   0.000000000000
 -2879.593654436   0.000000000000
 -2879.592140448   0.000000000000
 -2879.591999008   0.000000000000
 -2879.589280783   0.000000000000
 -2879.587668459   0.000000000000
 -2879.586987701   0.000000000000
 -2879.585299358   0.000000000000
 -2879.583598197   0.000000000000
 -2879.580591954   0.000000000000
 -2879.580566740   0.000000000000
 -2879.578061666   0.000000000000
 -2879.576234361   0.000000000000
 -2879.574770831   0.000000000000
 -2879.572966453   0.000000000000
 -2879.571008390   0.000000000000
 -2879.569282147   0.000000000000
 -2879.567807057   0.000000000000
 -2879.566651338   0.000000000000
 -2879.562992416   0.000000000000
 -2879.560337177   0.000000000000
 -2879.556819366   0.000000000000
 -2879.556189517   0.000000000000
 -2879.550161255   0.000000000000
 -2879.549444876   0.000000000000
 -2879.543545283   0.000000000000
 -2879.543146394   0.000000000000
 -2879.505401333   0.000000000000
 -2879.499334594   0.000000000000
 -2879.494483723   0.000000000000
 -2879.493402618   0.000000000000
 -2879.488449876   0.000000000000
 -2879.487706147   0.000000000000
 -2879.483221623   0.000000000000
 -2879.479247618   0.000000000000
 -2879.474557487   0.000000000000
 -2879.473216234   0.000000000000
   CI-PROBLEM SOLVED
   DENSITIES MADE

                 <<<<<<<<<<<<<<<<<<INITIAL CI STATE CHECK>>>>>>>>>>>>>>>>>>

BLOCK  1 MULT= 5 NROOTS= 5 
ROOT   0:  E=   -2879.6734627733 Eh
      0.76043 [     1]: 11121
      0.17076 [     2]: 11211
      0.06868 [     4]: 21111
ROOT   1:  E=   -2879.6610403112 Eh  0.338 eV   2726.4 cm**-1
      0.78488 [     4]: 21111
      0.21264 [     2]: 11211
ROOT   2:  E=   -2879.6583707141 Eh  0.411 eV   3312.3 cm**-1
      0.97621 [     0]: 11112
      0.02343 [     3]: 12111
ROOT   3:  E=   -2879.6429713482 Eh  0.830 eV   6692.1 cm**-1
      0.61652 [     2]: 11211
      0.23708 [     1]: 11121
      0.14627 [     4]: 21111
ROOT   4:  E=   -2879.6308436182 Eh  1.160 eV   9353.8 cm**-1
      0.97650 [     3]: 12111
      0.02341 [     0]: 11112

BLOCK  2 MULT= 3 NROOTS=45 
ROOT   0:  E=   -2879.6111222398 Eh
      0.63750 [     0]: 01122
      0.13140 [     1]: 01212
      0.07713 [    29]: 21120
      0.03164 [    31]: 21210
      0.02900 [    10]: 11112
      0.02789 [     8]: 10221
      0.02202 [    24]: 20211
      0.01279 [    27]: 21102
      0.00822 [    12]: 11202
      0.00672 [     9]: 11022
      0.00537 [     4]: 02121
      0.00264 [    16]: 12021
      0.00259 [    33]: 22101
ROOT   1:  E=   -2879.6092365489 Eh  0.051 eV    413.9 cm**-1
      0.63571 [    11]: 11121
      0.25446 [    13]: 11211
      0.03583 [     6]: 10122
      0.03383 [    26]: 21021
      0.01927 [    28]: 21111
      0.00481 [    30]: 21201
      0.00357 [    15]: 12012
      0.00328 [     2]: 01221
      0.00253 [    17]: 12102
ROOT   2:  E=   -2879.6053585532 Eh  0.157 eV   1265.0 cm**-1
      0.17652 [    28]: 21111
      0.15449 [     6]: 10122
      0.15148 [     2]: 01221
      0.13155 [     7]: 10212
      0.12608 [    26]: 21021
      0.11676 [    11]: 11121
      0.06600 [    13]: 11211
      0.04901 [    19]: 12120
      0.01062 [    21]: 12210
      0.00686 [    15]: 12012
      0.00582 [    30]: 21201
ROOT   3:  E=   -2879.6049208442 Eh  0.169 eV   1361.0 cm**-1
      0.41341 [    10]: 11112
      0.23760 [     9]: 11022
      0.10582 [    14]: 11220
      0.05961 [    23]: 20121
      0.04318 [    24]: 20211
      0.03121 [     4]: 02121
      0.02930 [    12]: 11202
      0.01672 [    31]: 21210
      0.01487 [    18]: 12111
      0.01450 [     1]: 01212
      0.00882 [    32]: 22011
      0.00669 [     5]: 02211
      0.00550 [    25]: 21012
      0.00327 [    16]: 12021
      0.00327 [    29]: 21120
ROOT   4:  E=   -2879.6023393730 Eh  0.239 eV   1927.6 cm**-1
      0.36080 [    28]: 21111
      0.24539 [    30]: 21201
      0.15055 [    11]: 11121
      0.13720 [    13]: 11211
      0.05160 [     6]: 10122
      0.01890 [    22]: 20112
      0.00969 [    26]: 21021
      0.00603 [    15]: 12012
      0.00590 [    34]: 22110
      0.00530 [    17]: 12102
      0.00429 [    21]: 12210
ROOT   5:  E=   -2879.6004202570 Eh  0.291 eV   2348.8 cm**-1
      0.23763 [    10]: 11112
      0.16058 [     9]: 11022
      0.13173 [     8]: 10221
      0.09588 [    16]: 12021
      0.07146 [    29]: 21120
      0.04933 [     0]: 01122
      0.04762 [    31]: 21210
      0.03935 [    24]: 20211
      0.03387 [     1]: 01212
      0.03203 [    12]: 11202
      0.03188 [    27]: 21102
      0.03076 [    25]: 21012
      0.01826 [    23]: 20121
      0.00639 [    32]: 22011
      0.00551 [    18]: 12111
      0.00427 [    14]: 11220
ROOT   6:  E=   -2879.5985890154 Eh  0.341 eV   2750.7 cm**-1
      0.31650 [    10]: 11112
      0.18433 [     1]: 01212
      0.15212 [    12]: 11202
      0.08396 [    29]: 21120
      0.07205 [    18]: 12111
      0.05163 [    27]: 21102
      0.04239 [     4]: 02121
      0.02821 [    23]: 20121
      0.02477 [     0]: 01122
      0.01424 [    24]: 20211
      0.00578 [     8]: 10221
      0.00519 [    33]: 22101
      0.00498 [     9]: 11022
      0.00416 [    16]: 12021
      0.00384 [     5]: 02211
ROOT   7:  E=   -2879.5968078233 Eh  0.390 eV   3141.7 cm**-1
      0.31575 [    29]: 21120
      0.17751 [    31]: 21210
      0.14496 [    10]: 11112
      0.13552 [     8]: 10221
      0.04365 [    25]: 21012
      0.04078 [     0]: 01122
      0.02777 [    23]: 20121
      0.01915 [    24]: 20211
      0.01808 [    32]: 22011
      0.01591 [    27]: 21102
      0.01499 [     9]: 11022
      0.00860 [    18]: 12111
      0.00646 [     6]: 10122
      0.00494 [     4]: 02121
      0.00418 [    33]: 22101
      0.00396 [    26]: 21021
      0.00379 [     7]: 10212
      0.00334 [    14]: 11220
ROOT   8:  E=   -2879.5967475884 Eh  0.391 eV   3154.9 cm**-1
      0.28507 [     6]: 10122
      0.16798 [    26]: 21021
      0.13799 [    28]: 21111
      0.12014 [     7]: 10212
      0.10720 [    11]: 11121
      0.06447 [    13]: 11211
      0.04596 [    22]: 20112
      0.02891 [    30]: 21201
      0.00832 [    21]: 12210
      0.00794 [    17]: 12102
      0.00623 [    29]: 21120
      0.00444 [    31]: 21210
      0.00354 [     8]: 10221
      0.00300 [    10]: 11112
ROOT   9:  E=   -2879.5936544355 Eh  0.475 eV   3833.7 cm**-1
      0.57319 [    11]: 11121
      0.20965 [    13]: 11211
      0.07656 [    30]: 21201
      0.03756 [    28]: 21111
      0.03387 [    15]: 12012
      0.02761 [     2]: 01221
      0.01951 [    26]: 21021
      0.00431 [     3]: 02112
      0.00375 [     7]: 10212
      0.00323 [    34]: 22110
      0.00282 [    19]: 12120
ROOT  10:  E=   -2879.5921404482 Eh  0.517 eV   4166.0 cm**-1
      0.41966 [    28]: 21111
      0.24653 [    13]: 11211
      0.18700 [    11]: 11121
      0.06527 [    34]: 22110
      0.01908 [     3]: 02112
      0.01847 [    17]: 12102
      0.01649 [    19]: 12120
      0.00669 [    30]: 21201
      0.00560 [     7]: 10212
      0.00489 [    22]: 20112
      0.00391 [    21]: 12210
      0.00252 [     6]: 10122
ROOT  11:  E=   -2879.5919990075 Eh  0.520 eV   4197.1 cm**-1
      0.23818 [    23]: 20121
      0.22618 [    24]: 20211
      0.15158 [    10]: 11112
      0.10952 [     1]: 01212
      0.06263 [    25]: 21012
      0.05259 [    27]: 21102
      0.03850 [     0]: 01122
      0.03423 [    14]: 11220
      0.02852 [    18]: 12111
      0.02131 [    29]: 21120
      0.01101 [    33]: 22101
      0.00936 [     9]: 11022
      0.00745 [     5]: 02211
      0.00556 [    32]: 22011
ROOT  12:  E=   -2879.5892807833 Eh  0.594 eV   4793.6 cm**-1
      0.26059 [     8]: 10221
      0.24751 [     9]: 11022
      0.16955 [    23]: 20121
      0.10119 [    12]: 11202
      0.04596 [    24]: 20211
      0.03975 [    32]: 22011
      0.02882 [     1]: 01212
      0.02804 [    10]: 11112
      0.01836 [     4]: 02121
      0.01312 [    18]: 12111
      0.01141 [     0]: 01122
      0.01134 [    16]: 12021
      0.00955 [    27]: 21102
      0.00720 [    33]: 22101
      0.00395 [     5]: 02211
      0.00276 [    20]: 12201
ROOT  13:  E=   -2879.5876684594 Eh  0.638 eV   5147.5 cm**-1
      0.49011 [    11]: 11121
      0.21896 [     7]: 10212
      0.13003 [    28]: 21111
      0.10625 [    13]: 11211
      0.01823 [     2]: 01221
      0.01364 [    22]: 20112
      0.00889 [    30]: 21201
      0.00474 [    19]: 12120
      0.00387 [     3]: 02112
ROOT  14:  E=   -2879.5869877010 Eh  0.657 eV   5296.9 cm**-1
      0.22421 [    31]: 21210
      0.15565 [    29]: 21120
      0.12658 [    14]: 11220
      0.07807 [    24]: 20211
      0.07691 [    18]: 12111
      0.07384 [    25]: 21012
      0.05164 [    12]: 11202
      0.04101 [    23]: 20121
      0.03318 [    32]: 22011
      0.02782 [     1]: 01212
      0.02612 [    33]: 22101
      0.02346 [     4]: 02121
      0.01599 [     5]: 02211
      0.01013 [    10]: 11112
      0.00961 [    27]: 21102
      0.00868 [    16]: 12021
      0.00533 [    20]: 12201
      0.00526 [     0]: 01122
      0.00430 [     8]: 10221
ROOT  15:  E=   -2879.5852993582 Eh  0.703 eV   5667.5 cm**-1
      0.37806 [    13]: 11211
      0.30571 [    28]: 21111
      0.08337 [    11]: 11121
      0.05370 [     6]: 10122
      0.04643 [    26]: 21021
      0.03738 [    19]: 12120
      0.03211 [    34]: 22110
      0.01750 [     3]: 02112
      0.01364 [     2]: 01221
      0.01194 [    17]: 12102
      0.01012 [    22]: 20112
      0.00628 [    15]: 12012
ROOT  16:  E=   -2879.5835981969 Eh  0.749 eV   6040.8 cm**-1
      0.51420 [    10]: 11112
      0.12387 [    18]: 12111
      0.10051 [    24]: 20211
      0.09451 [    16]: 12021
      0.03271 [     0]: 01122
      0.02644 [     8]: 10221
      0.02446 [    29]: 21120
      0.02248 [    12]: 11202
      0.02176 [    27]: 21102
      0.01487 [     4]: 02121
      0.00776 [     1]: 01212
      0.00591 [    32]: 22011
      0.00480 [    20]: 12201
      0.00303 [    23]: 20121
ROOT  17:  E=   -2879.5805919544 Eh  0.831 eV   6700.6 cm**-1
      0.27274 [    31]: 21210
      0.13307 [    32]: 22011
      0.12286 [    10]: 11112
      0.10296 [     1]: 01212
      0.09097 [    18]: 12111
      0.04845 [     9]: 11022
      0.03189 [    20]: 12201
      0.02610 [     0]: 01122
      0.02281 [    24]: 20211
      0.02171 [    29]: 21120
      0.02165 [    25]: 21012
      0.01961 [    16]: 12021
      0.01454 [     5]: 02211
      0.01052 [    14]: 11220
      0.00866 [    33]: 22101
      0.00839 [    23]: 20121
      0.00818 [     2]: 01221
      0.00606 [     3]: 02112
      0.00397 [    28]: 21111
      0.00381 [    12]: 11202
      0.00336 [    13]: 11211
      0.00314 [    27]: 21102
      0.00263 [    22]: 20112
ROOT  18:  E=   -2879.5805667400 Eh  0.831 eV   6706.2 cm**-1
      0.24391 [     2]: 01221
      0.16539 [     3]: 02112
      0.09886 [    28]: 21111
      0.09026 [    13]: 11211
      0.07914 [    22]: 20112
      0.06194 [     6]: 10122
      0.05942 [    34]: 22110
      0.05158 [    26]: 21021
      0.04117 [    30]: 21201
      0.03131 [    11]: 11121
      0.02302 [    19]: 12120
      0.01048 [    21]: 12210
      0.00995 [    31]: 21210
      0.00755 [    15]: 12012
      0.00474 [    32]: 22011
      0.00444 [    10]: 11112
      0.00314 [    18]: 12111
      0.00287 [     1]: 01212
ROOT  19:  E=   -2879.5780616658 Eh  0.900 eV   7256.0 cm**-1
      0.28691 [    13]: 11211
      0.18488 [    15]: 12012
      0.16237 [    28]: 21111
      0.12397 [    26]: 21021
      0.05620 [     7]: 10212
      0.04266 [    30]: 21201
      0.04091 [    11]: 11121
      0.04056 [     6]: 10122
      0.02009 [    22]: 20112
      0.01746 [    17]: 12102
      0.01219 [    21]: 12210
      0.01096 [    34]: 22110
ROOT  20:  E=   -2879.5762343610 Eh  0.949 eV   7657.0 cm**-1
      0.32110 [    13]: 11211
      0.13152 [    28]: 21111
      0.11586 [    26]: 21021
      0.11430 [     3]: 02112
      0.09967 [    34]: 22110
      0.04895 [    30]: 21201
      0.03197 [    11]: 11121
      0.02857 [    22]: 20112
      0.02677 [    21]: 12210
      0.02110 [    15]: 12012
      0.01982 [    17]: 12102
      0.01388 [    19]: 12120
      0.01370 [     6]: 10122
      0.01218 [     7]: 10212
ROOT  21:  E=   -2879.5747708314 Eh  0.989 eV   7978.2 cm**-1
      0.23537 [    10]: 11112
      0.22783 [    18]: 12111
      0.14348 [    12]: 11202
      0.09496 [    16]: 12021
      0.07373 [    27]: 21102
      0.04155 [    33]: 22101
      0.03884 [     5]: 02211
      0.03805 [     1]: 01212
      0.02259 [     9]: 11022
      0.02042 [    14]: 11220
      0.01849 [     4]: 02121
      0.01246 [    29]: 21120
      0.01137 [    31]: 21210
      0.01034 [    24]: 20211
      0.00500 [    25]: 21012
ROOT  22:  E=   -2879.5729664526 Eh  1.038 eV   8374.2 cm**-1
      0.32674 [    18]: 12111
      0.14375 [    32]: 22011
      0.08490 [    10]: 11112
      0.07005 [     1]: 01212
      0.06521 [    12]: 11202
      0.05734 [    33]: 22101
      0.05519 [     5]: 02211
      0.04698 [    16]: 12021
      0.03036 [     0]: 01122
      0.02947 [     8]: 10221
      0.02734 [     9]: 11022
      0.02604 [    24]: 20211
      0.01096 [    14]: 11220
      0.00840 [    20]: 12201
      0.00726 [    29]: 21120
      0.00481 [    23]: 20121
      0.00284 [    31]: 21210
ROOT  23:  E=   -2879.5710083903 Eh  1.092 eV   8804.0 cm**-1
      0.52558 [    18]: 12111
      0.14179 [    10]: 11112
      0.06957 [    16]: 12021
      0.06788 [    14]: 11220
      0.05421 [    23]: 20121
      0.04460 [    32]: 22011
      0.02065 [     9]: 11022
      0.02059 [    12]: 11202
      0.01584 [     8]: 10221
      0.00856 [    25]: 21012
      0.00748 [     5]: 02211
      0.00741 [    29]: 21120
      0.00631 [    33]: 22101
      0.00561 [    20]: 12201
ROOT  24:  E=   -2879.5692821467 Eh  1.139 eV   9182.8 cm**-1
      0.35286 [    34]: 22110
      0.32653 [     3]: 02112
      0.12552 [    13]: 11211
      0.06065 [    28]: 21111
      0.04445 [    30]: 21201
      0.02665 [    19]: 12120
      0.01805 [    17]: 12102
      0.01310 [    11]: 11121
      0.01063 [     2]: 01221
      0.00668 [    22]: 20112
      0.00640 [     7]: 10212
      0.00337 [    21]: 12210
      0.00275 [    26]: 21021
ROOT  25:  E=   -2879.5678070570 Eh  1.179 eV   9506.6 cm**-1
      0.26906 [    28]: 21111
      0.13720 [    15]: 12012
      0.11930 [    30]: 21201
      0.11172 [    11]: 11121
      0.09480 [    13]: 11211
      0.05881 [     2]: 01221
      0.04974 [    21]: 12210
      0.04887 [     7]: 10212
      0.02816 [    17]: 12102
      0.02697 [    22]: 20112
      0.01873 [     6]: 10122
      0.01616 [    19]: 12120
      0.01193 [     3]: 02112
      0.00433 [    26]: 21021
      0.00324 [    34]: 22110
ROOT  26:  E=   -2879.5666513380 Eh  1.210 eV   9760.2 cm**-1
      0.33855 [    33]: 22101
      0.25476 [    20]: 12201
      0.11813 [    16]: 12021
      0.08252 [    32]: 22011
      0.04340 [    14]: 11220
      0.04197 [    18]: 12111
      0.03664 [     4]: 02121
      0.02605 [    10]: 11112
      0.01111 [     1]: 01212
      0.01045 [    12]: 11202
      0.00833 [    25]: 21012
      0.00653 [     0]: 01122
      0.00502 [    23]: 20121
      0.00485 [     9]: 11022
      0.00367 [     5]: 02211
      0.00278 [    31]: 21210
ROOT  27:  E=   -2879.5629924155 Eh  1.310 eV  10563.3 cm**-1
      0.24435 [    28]: 21111
      0.15822 [    34]: 22110
      0.12172 [    11]: 11121
      0.10662 [    13]: 11211
      0.06829 [    22]: 20112
      0.06823 [    17]: 12102
      0.06819 [    30]: 21201
      0.05677 [     2]: 01221
      0.04450 [     3]: 02112
      0.03075 [    15]: 12012
      0.00950 [    19]: 12120
      0.00911 [     6]: 10122
      0.00821 [    26]: 21021
      0.00328 [    21]: 12210
ROOT  28:  E=   -2879.5603371768 Eh  1.382 eV  11146.0 cm**-1
      0.49399 [    18]: 12111
      0.12337 [    10]: 11112
      0.08687 [     1]: 01212
      0.06858 [     4]: 02121
      0.06216 [    16]: 12021
      0.04009 [    33]: 22101
      0.03503 [    23]: 20121
      0.02776 [    24]: 20211
      0.01344 [     0]: 01122
      0.01127 [    14]: 11220
      0.00932 [    31]: 21210
      0.00696 [    29]: 21120
      0.00673 [     5]: 02211
      0.00556 [    25]: 21012
      0.00296 [     9]: 11022
ROOT  29:  E=   -2879.5568193659 Eh  1.478 eV  11918.1 cm**-1
      0.23663 [    28]: 21111
      0.19335 [    13]: 11211
      0.18258 [     7]: 10212
      0.07468 [    26]: 21021
      0.06431 [     6]: 10122
      0.04313 [    15]: 12012
      0.04086 [    11]: 11121
      0.03996 [    19]: 12120
      0.03909 [    22]: 20112
      0.03025 [    34]: 22110
      0.01828 [     3]: 02112
      0.01468 [    21]: 12210
      0.01202 [    17]: 12102
      0.00550 [     2]: 01221
      0.00433 [    30]: 21201
ROOT  30:  E=   -2879.5561895166 Eh  1.495 eV  12056.3 cm**-1
      0.18126 [    18]: 12111
      0.14635 [    14]: 11220
      0.11703 [    25]: 21012
      0.10679 [    10]: 11112
      0.07408 [     5]: 02211
      0.07217 [    16]: 12021
      0.03964 [    24]: 20211
      0.03855 [    31]: 21210
      0.03721 [    12]: 11202
      0.03668 [    20]: 12201
      0.03160 [     8]: 10221
      0.02718 [    27]: 21102
      0.01854 [    29]: 21120
      0.01787 [    33]: 22101
      0.01765 [    23]: 20121
      0.01734 [    32]: 22011
      0.01160 [     9]: 11022
      0.00473 [     1]: 01212
      0.00253 [     0]: 01122
ROOT  31:  E=   -2879.5501612553 Eh  1.659 eV  13379.4 cm**-1
      0.42884 [    17]: 12102
      0.28696 [    19]: 12120
      0.09225 [    22]: 20112
      0.04821 [     2]: 01221
      0.03111 [    13]: 11211
      0.02592 [    28]: 21111
      0.02349 [     6]: 10122
      0.02091 [    11]: 11121
      0.01139 [    30]: 21201
      0.01060 [    21]: 12210
      0.00819 [    26]: 21021
      0.00429 [    15]: 12012
      0.00425 [     7]: 10212
      0.00262 [     3]: 02112
ROOT  32:  E=   -2879.5494448757 Eh  1.678 eV  13536.6 cm**-1
      0.31856 [     4]: 02121
      0.12238 [     5]: 02211
      0.09753 [    33]: 22101
      0.08881 [    18]: 12111
      0.07772 [    10]: 11112
      0.07196 [    24]: 20211
      0.06611 [    32]: 22011
      0.04430 [     8]: 10221
      0.02827 [    20]: 12201
      0.02285 [    23]: 20121
      0.01840 [    14]: 11220
      0.01118 [    31]: 21210
      0.00628 [    27]: 21102
      0.00614 [    29]: 21120
      0.00479 [    25]: 21012
      0.00466 [    16]: 12021
      0.00362 [     9]: 11022
      0.00347 [    12]: 11202
      0.00252 [     0]: 01122
ROOT  33:  E=   -2879.5435452834 Eh  1.839 eV  14831.4 cm**-1
      0.33924 [    21]: 12210
      0.26063 [    15]: 12012
      0.06021 [    19]: 12120
      0.05567 [    28]: 21111
      0.05416 [    11]: 11121
      0.05035 [    22]: 20112
      0.04716 [     7]: 10212
      0.04681 [     3]: 02112
      0.02481 [     2]: 01221
      0.02223 [     6]: 10122
      0.01565 [    13]: 11211
      0.00765 [    17]: 12102
      0.00585 [    26]: 21021
      0.00264 [    34]: 22110
ROOT  34:  E=   -2879.5431463940 Eh  1.850 eV  14919.0 cm**-1
      0.28065 [    18]: 12111
      0.17852 [    20]: 12201
      0.11897 [    32]: 22011
      0.08367 [    27]: 21102
      0.08233 [     5]: 02211
      0.06008 [     4]: 02121
      0.04189 [    12]: 11202
      0.03706 [    10]: 11112
      0.03344 [    33]: 22101
      0.02142 [    23]: 20121
      0.01513 [     8]: 10221
      0.01477 [    16]: 12021
      0.01212 [    25]: 21012
      0.00594 [     9]: 11022
      0.00301 [     1]: 01212
      0.00287 [    14]: 11220
ROOT  35:  E=   -2879.5054013333 Eh  2.877 eV  23203.1 cm**-1
      0.26568 [    27]: 21102
      0.15657 [    25]: 21012
      0.12255 [    14]: 11220
      0.11682 [    18]: 12111
      0.10846 [    29]: 21120
      0.04643 [     1]: 01212
      0.04077 [     8]: 10221
      0.02621 [    23]: 20121
      0.02451 [     4]: 02121
      0.02436 [    12]: 11202
      0.02139 [     5]: 02211
      0.01539 [     0]: 01122
      0.01132 [     9]: 11022
      0.00759 [    10]: 11112
      0.00747 [    20]: 12201
ROOT  36:  E=   -2879.4993345943 Eh  3.042 eV  24534.6 cm**-1
      0.30019 [     2]: 01221
      0.19907 [    30]: 21201
      0.17758 [    26]: 21021
      0.07259 [    13]: 11211
      0.06272 [    11]: 11121
      0.05121 [    19]: 12120
      0.02985 [    28]: 21111
      0.02929 [     3]: 02112
      0.02493 [    34]: 22110
      0.02250 [     6]: 10122
      0.01968 [    21]: 12210
      0.00464 [    15]: 12012
ROOT  37:  E=   -2879.4944837227 Eh  3.174 eV  25599.2 cm**-1
      0.27158 [     4]: 02121
      0.18785 [    33]: 22101
      0.14934 [    23]: 20121
      0.09597 [     5]: 02211
      0.08314 [    18]: 12111
      0.05180 [    27]: 21102
      0.03376 [    32]: 22011
      0.02834 [     8]: 10221
      0.02726 [    10]: 11112
      0.02104 [    25]: 21012
      0.01195 [    16]: 12021
      0.00927 [     1]: 01212
      0.00913 [     0]: 01122
      0.00839 [    14]: 11220
      0.00357 [    20]: 12201
      0.00351 [    24]: 20211
ROOT  38:  E=   -2879.4934026176 Eh  3.203 eV  25836.5 cm**-1
      0.17553 [    16]: 12021
      0.14572 [    27]: 21102
      0.13728 [    25]: 21012
      0.11049 [    12]: 11202
      0.10412 [     9]: 11022
      0.06147 [    32]: 22011
      0.04973 [    14]: 11220
      0.04417 [     8]: 10221
      0.04380 [     0]: 01122
      0.03582 [     1]: 01212
      0.02727 [    29]: 21120
      0.02028 [    10]: 11112
      0.01245 [     4]: 02121
      0.01184 [    18]: 12111
      0.00859 [    31]: 21210
      0.00364 [     5]: 02211
      0.00324 [    33]: 22101
ROOT  39:  E=   -2879.4884498756 Eh  3.338 eV  26923.5 cm**-1
      0.23466 [    22]: 20112
      0.21380 [    19]: 12120
      0.11013 [    17]: 12102
      0.09800 [    34]: 22110
      0.09286 [    13]: 11211
      0.08734 [     3]: 02112
      0.06863 [    11]: 11121
      0.02726 [    28]: 21111
      0.02341 [     2]: 01221
      0.01993 [     6]: 10122
      0.01803 [    21]: 12210
      0.00269 [    30]: 21201
ROOT  40:  E=   -2879.4877061475 Eh  3.358 eV  27086.7 cm**-1
      0.27746 [    25]: 21012
      0.21046 [    14]: 11220
      0.15124 [    18]: 12111
      0.10962 [    31]: 21210
      0.07061 [    12]: 11202
      0.04744 [     9]: 11022
      0.02864 [     1]: 01212
      0.02721 [    10]: 11112
      0.02103 [    32]: 22011
      0.01892 [    29]: 21120
      0.01344 [    27]: 21102
      0.00766 [    24]: 20211
      0.00525 [     8]: 10221
      0.00342 [    23]: 20121
ROOT  41:  E=   -2879.4832216234 Eh  3.480 eV  28070.9 cm**-1
      0.21643 [    22]: 20112
      0.17698 [    17]: 12102
      0.10605 [    19]: 12120
      0.09709 [     3]: 02112
      0.08929 [    21]: 12210
      0.08521 [    15]: 12012
      0.05012 [    13]: 11211
      0.04963 [     6]: 10122
      0.03780 [    34]: 22110
      0.02682 [    11]: 11121
      0.02620 [    30]: 21201
      0.01677 [    28]: 21111
      0.01369 [    26]: 21021
      0.00684 [     7]: 10212
ROOT  42:  E=   -2879.4792476176 Eh  3.588 eV  28943.1 cm**-1
      0.34992 [    20]: 12201
      0.13882 [     8]: 10221
      0.10305 [    27]: 21102
      0.08747 [    24]: 20211
      0.06827 [    16]: 12021
      0.05605 [    10]: 11112
      0.05283 [    12]: 11202
      0.04733 [    33]: 22101
      0.04465 [     5]: 02211
      0.01422 [    32]: 22011
      0.01342 [    31]: 21210
      0.01077 [    23]: 20121
      0.00533 [     1]: 01212
      0.00405 [     4]: 02121
ROOT  43:  E=   -2879.4745574871 Eh  3.716 eV  29972.5 cm**-1
      0.38536 [     5]: 02211
      0.13270 [    32]: 22011
      0.10945 [    24]: 20211
      0.06716 [    20]: 12201
      0.06060 [    33]: 22101
      0.05040 [    10]: 11112
      0.04985 [    23]: 20121
      0.03823 [     4]: 02121
      0.02739 [    18]: 12111
      0.01766 [    16]: 12021
      0.01536 [    27]: 21102
      0.01531 [    12]: 11202
      0.01524 [     1]: 01212
      0.00627 [     0]: 01122
      0.00547 [     8]: 10221
ROOT  44:  E=   -2879.4732162342 Eh  3.753 eV  30266.9 cm**-1
      0.36861 [    21]: 12210
      0.15796 [    15]: 12012
      0.14588 [     7]: 10212
      0.05769 [    17]: 12102
      0.05701 [     6]: 10122
      0.04986 [    13]: 11211
      0.04524 [    28]: 21111
      0.03778 [    19]: 12120
      0.03286 [    22]: 20112
      0.02542 [    11]: 11121
      0.01014 [    34]: 22110
      0.00968 [    30]: 21201

                 <<<<<<<<<<<<<<<<<<INITIAL CI STATE CHECK>>>>>>>>>>>>>>>>>>

   E(CAS)= -2879.606399644 Eh DE=    0.000000e+00
   --- Energy gap subspaces: Ext-Act = 0.143   Act-Int = 0.110
   N(occ)=  1.20000 1.20000 1.20000 1.20000 1.20000
   ||g|| =     2.480229e+00 Max(G)=   -5.134757e-01 Rot=452,1
   --- Orbital Update [SuperCI(PT)]
   --- Canonicalize Internal Space
   --- Canonicalize External Space
   --- SX_PT (Skipped TA=0 IT=0): ||X|| =      0.586412826 Max(X)(127,121) =      0.156307205 
   --- SFit(Active Orbitals)

MACRO-ITERATION   2: 
   --- Inactive Energy E0 = -2865.43638660 Eh
CI-ITERATION   0: 
 -2880.047307367   0.000000000000 (    0.04)
 -2880.045328917   0.000000000000
 -2880.041317374   0.000000000000
 -2880.038297501   0.000000000000
 -2880.031489215   0.000000000000
   CI-PROBLEM SOLVED
   DENSITIES MADE
CI-ITERATION   0: 
 -2879.978335268   0.000000000000 (    1.49)
 -2879.976429749   0.000000000000
 -2879.974674002   0.000000000000
 -2879.971404350   0.000000000000
 -2879.970883833   0.000000000000
 -2879.969004152   0.000000000000
 -2879.967140303   0.000000000000
 -2879.966347818   0.000000000000
 -2879.964956608   0.000000000000
 -2879.962377722   0.000000000000
 -2879.961760596   0.000000000000
 -2879.961080679   0.000000000000
 -2879.957308652   0.000000000000
 -2879.953880621   0.000000000000
 -2879.953687196   0.000000000000
 -2879.951819154   0.000000000000
 -2879.951252846   0.000000000000
 -2879.950265232   0.000000000000
 -2879.947600368   0.000000000000
 -2879.946315121   0.000000000000
 -2879.944755139   0.000000000000
 -2879.942987008   0.000000000000
 -2879.942907536   0.000000000000
 -2879.941443650   0.000000000000
 -2879.938617353   0.000000000000
 -2879.935314009   0.000000000000
 -2879.933456819   0.000000000000
 -2879.932955153   0.000000000000
 -2879.932327588   0.000000000000
 -2879.929331796   0.000000000000
 -2879.920570223   0.000000000000
 -2879.914922987   0.000000000000
 -2879.911542971   0.000000000000
 -2879.909802891   0.000000000000
 -2879.906772587   0.000000000000
 -2879.844369059   0.000000000000
 -2879.836574552   0.000000000000
 -2879.833284653   0.000000000000
 -2879.832683540   0.000000000000
 -2879.830598612   0.000000000000
 -2879.827028373   0.000000000000
 -2879.822151231   0.000000000000
 -2879.816062096   0.000000000000
 -2879.814133475   0.000000000000
 -2879.813864837   0.000000000000
   CI-PROBLEM SOLVED
   DENSITIES MADE
   E(CAS)= -2879.980873842 Eh DE=   -3.744742e-01
   --- Energy gap subspaces: Ext-Act = 0.368   Act-Int = -0.162
   N(occ)=  1.20000 1.20000 1.20000 1.20000 1.20000
   ||g|| =     1.275711e+00 Max(G)=   -2.462980e-01 Rot=129,124
   --- Orbital Update [SuperCI(PT)]
   --- Canonicalize Internal Space
   --- Canonicalize External Space
   --- SX_PT (Skipped TA=0 IT=0): ||X|| =      0.334194835 Max(X)(129,124) =      0.153830716 
   --- SFit(Active Orbitals)

MACRO-ITERATION   3: 
   --- Inactive Energy E0 = -2866.43778852 Eh
CI-ITERATION   0: 
 -2880.123600214   0.000000000000 (    0.00)
 -2880.115231381   0.000000000000
 -2880.111184900   0.000000000000
 -2880.105118793   0.000000000000
 -2880.099499193   0.000000000000
   CI-PROBLEM SOLVED
   DENSITIES MADE
CI-ITERATION   0: 
 -2880.034571840   0.000000000000 (    0.00)
 -2880.033958833   0.000000000000
 -2880.033498669   0.000000000000
 -2880.032988125   0.000000000000
 -2880.029201537   0.000000000000
 -2880.027650679   0.000000000000
 -2880.026852655   0.000000000000
 -2880.025055306   0.000000000000
 -2880.023277430   0.000000000000
 -2880.021090787   0.000000000000
 -2880.021038657   0.000000000000
 -2880.020447488   0.000000000000
 -2880.019698742   0.000000000000
 -2880.017348868   0.000000000000
 -2880.013692900   0.000000000000
 -2880.012239518   0.000000000000
 -2880.009422917   0.000000000000
 -2880.008748242   0.000000000000
 -2880.007620402   0.000000000000
 -2880.007481036   0.000000000000
 -2880.005762563   0.000000000000
 -2880.005352222   0.000000000000
 -2880.005270766   0.000000000000
 -2880.003577439   0.000000000000
 -2880.002568532   0.000000000000
 -2879.998755501   0.000000000000
 -2879.998648616   0.000000000000
 -2879.998300286   0.000000000000
 -2879.996060660   0.000000000000
 -2879.994946177   0.000000000000
 -2879.973046563   0.000000000000
 -2879.970427346   0.000000000000
 -2879.970211383   0.000000000000
 -2879.968647263   0.000000000000
 -2879.967542688   0.000000000000
 -2879.887204571   0.000000000000
 -2879.883574365   0.000000000000
 -2879.882717333   0.000000000000
 -2879.878150184   0.000000000000
 -2879.877469932   0.000000000000
 -2879.876611230   0.000000000000
 -2879.875762450   0.000000000000
 -2879.874020169   0.000000000000
 -2879.871703021   0.000000000000
 -2879.868627687   0.000000000000
   CI-PROBLEM SOLVED
   DENSITIES MADE
   E(CAS)= -2880.045028377 Eh DE=   -6.415453e-02
   --- Energy gap subspaces: Ext-Act = 0.093   Act-Int = 0.145
   N(occ)=  1.20000 1.20000 1.20000 1.20000 1.20000
   ||g|| =     9.202498e-01 Max(G)=   -2.138236e-01 Rot=452,17
   --- Orbital Update [SuperCI(PT)]
   --- Canonicalize Internal Space
   --- Canonicalize External Space
   --- SX_PT (Skipped TA=0 IT=0): ||X|| =      0.307050238 Max(X)(127,123) =      0.144049979 
   --- SFit(Active Orbitals)

MACRO-ITERATION   4: 
   --- Inactive Energy E0 = -2864.79747213 Eh
CI-ITERATION   0: 
 -2880.169067042   0.000000000000 (    0.00)
 -2880.165812586   0.000000000000
 -2880.165142631   0.000000000000
 -2880.162895127   0.000000000000
 -2880.162686363   0.000000000000
   CI-PROBLEM SOLVED
   DENSITIES MADE
CI-ITERATION   0: 
 -2880.078710501   0.000000000000 (    0.03)
 -2880.078633660   0.000000000000
 -2880.077838237   0.000000000000
 -2880.077750432   0.000000000000
 -2880.075708126   0.000000000000
 -2880.075048294   0.000000000000
 -2880.073734245   0.000000000000
 -2880.073666009   0.000000000000
 -2880.073198916   0.000000000000
 -2880.071415098   0.000000000000
 -2880.071328487   0.000000000000
 -2880.065042665   0.000000000000
 -2880.064464276   0.000000000000
 -2880.063876044   0.000000000000
 -2880.061941747   0.000000000000
 -2880.061921074   0.000000000000
 -2880.059504875   0.000000000000
 -2880.059434683   0.000000000000
 -2880.058098906   0.000000000000
 -2880.057267694   0.000000000000
 -2880.056209294   0.000000000000
 -2880.052600836   0.000000000000
 -2880.051968561   0.000000000000
 -2880.051753255   0.000000000000
 -2880.050656860   0.000000000000
 -2880.047857422   0.000000000000
 -2880.047124672   0.000000000000
 -2880.045764063   0.000000000000
 -2880.045621650   0.000000000000
 -2880.045078453   0.000000000000
 -2880.018600151   0.000000000000
 -2880.017154795   0.000000000000
 -2880.015938377   0.000000000000
 -2880.014081675   0.000000000000
 -2880.012803689   0.000000000000
 -2879.922119863   0.000000000000
 -2879.920425712   0.000000000000
 -2879.920261463   0.000000000000
 -2879.918361053   0.000000000000
 -2879.916480663   0.000000000000
 -2879.916429247   0.000000000000
 -2879.915904526   0.000000000000
 -2879.912194200   0.000000000000
 -2879.910760737   0.000000000000
 -2879.909407971   0.000000000000
   CI-PROBLEM SOLVED
   DENSITIES MADE
   E(CAS)= -2880.094939743 Eh DE=   -4.991137e-02
   --- Energy gap subspaces: Ext-Act = 0.233   Act-Int = -0.008
   N(occ)=  1.20000 1.20000 1.20000 1.20000 1.20000
   ||g|| =     3.341548e-01 Max(G)=    2.983514e-02 Rot=127,123
   --- Orbital Update [SuperCI(PT)]
   --- Canonicalize Internal Space
   --- Canonicalize External Space
   --- SX_PT (Skipped TA=0 IT=0): ||X|| =      0.101401439 Max(X)(127,123) =      0.046378850 
   --- SFit(Active Orbitals)

MACRO-ITERATION   5: 
   --- Inactive Energy E0 = -2864.73478841 Eh
CI-ITERATION   0: 
 -2880.176348177   0.000000000000 (    0.00)
 -2880.174469601   0.000000000000
 -2880.172588179   0.000000000000
 -2880.170342973   0.000000000000
 -2880.170272400   0.000000000000
   CI-PROBLEM SOLVED
   DENSITIES MADE
CI-ITERATION   0: 
 -2880.084084024   0.000000000000 (    0.24)
 -2880.083828689   0.000000000000
 -2880.083038657   0.000000000000
 -2880.082878399   0.000000000000
 -2880.081302939   0.000000000000
 -2880.080255100   0.000000000000
 -2880.079041439   0.000000000000
 -2880.078905739   0.000000000000
 -2880.078539857   0.000000000000
 -2880.076803348   0.000000000000
 -2880.076783978   0.000000000000
 -2880.070218821   0.000000000000
 -2880.069552072   0.000000000000
 -2880.069159473   0.000000000000
 -2880.066910671   0.000000000000
 -2880.066783518   0.000000000000
 -2880.064718039   0.000000000000
 -2880.064576578   0.000000000000
 -2880.063112877   0.000000000000
 -2880.062371115   0.000000000000
 -2880.061561817   0.000000000000
 -2880.057535839   0.000000000000
 -2880.056770491   0.000000000000
 -2880.056749554   0.000000000000
 -2880.055499491   0.000000000000
 -2880.052845004   0.000000000000
 -2880.052268682   0.000000000000
 -2880.050812581   0.000000000000
 -2880.050688768   0.000000000000
 -2880.050214095   0.000000000000
 -2880.022403235   0.000000000000
 -2880.020942750   0.000000000000
 -2880.019851943   0.000000000000
 -2880.018152912   0.000000000000
 -2880.016912726   0.000000000000
 -2879.922315232   0.000000000000
 -2879.921631224   0.000000000000
 -2879.920895875   0.000000000000
 -2879.919657461   0.000000000000
 -2879.918539581   0.000000000000
 -2879.918358510   0.000000000000
 -2879.917334606   0.000000000000
 -2879.914149883   0.000000000000
 -2879.912930109   0.000000000000
 -2879.911207931   0.000000000000
   CI-PROBLEM SOLVED
   DENSITIES MADE
   E(CAS)= -2880.100880973 Eh DE=   -5.941230e-03
   --- Energy gap subspaces: Ext-Act = 0.211   Act-Int = 0.012
   N(occ)=  1.20000 1.20000 1.20000 1.20000 1.20000
   ||g|| =     2.135525e-01 Max(G)=    2.343811e-02 Rot=127,123
   --- Orbital Update [SuperCI(PT)]
   --- Canonicalize Internal Space
   --- Canonicalize External Space
   --- SX_PT (Skipped TA=0 IT=0): ||X|| =      0.074584369 Max(X)(127,123) =     -0.034947181 
   --- SFit(Active Orbitals)

MACRO-ITERATION   6: 
   --- Inactive Energy E0 = -2864.42066954 Eh
CI-ITERATION   0: 
 -2880.180568099   0.000000000000 (    0.00)
 -2880.179124195   0.000000000000
 -2880.176509017   0.000000000000
 -2880.173787541   0.000000000000
 -2880.173605117   0.000000000000
   CI-PROBLEM SOLVED
   DENSITIES MADE
CI-ITERATION   0: 
 -2880.087164764   0.000000000000 (    0.02)
 -2880.086738298   0.000000000000
 -2880.085840923   0.000000000000
 -2880.085537767   0.000000000000
 -2880.084165994   0.000000000000
 -2880.082689870   0.000000000000
 -2880.081392768   0.000000000000
 -2880.081256264   0.000000000000
 -2880.080881280   0.000000000000
 -2880.079107432   0.000000000000
 -2880.079085398   0.000000000000
 -2880.072764825   0.000000000000
 -2880.071985889   0.000000000000
 -2880.071645628   0.000000000000
 -2880.069035782   0.000000000000
 -2880.068934491   0.000000000000
 -2880.066998286   0.000000000000
 -2880.066702683   0.000000000000
 -2880.064931655   0.000000000000
 -2880.064373281   0.000000000000
 -2880.063594123   0.000000000000
 -2880.059865193   0.000000000000
 -2880.059070016   0.000000000000
 -2880.058960364   0.000000000000
 -2880.057567492   0.000000000000
 -2880.054874064   0.000000000000
 -2880.054277155   0.000000000000
 -2880.052634423   0.000000000000
 -2880.052625571   0.000000000000
 -2880.052138579   0.000000000000
 -2880.023962156   0.000000000000
 -2880.022437637   0.000000000000
 -2880.021366156   0.000000000000
 -2880.019611550   0.000000000000
 -2880.018352456   0.000000000000
 -2879.921798224   0.000000000000
 -2879.921311310   0.000000000000
 -2879.920368413   0.000000000000
 -2879.919440766   0.000000000000
 -2879.918717118   0.000000000000
 -2879.918401870   0.000000000000
 -2879.917297549   0.000000000000
 -2879.914161356   0.000000000000
 -2879.913219379   0.000000000000
 -2879.911308483   0.000000000000
   CI-PROBLEM SOLVED
   DENSITIES MADE
   E(CAS)= -2880.103677115 Eh DE=   -2.796142e-03
   --- Energy gap subspaces: Ext-Act = 0.228   Act-Int = -0.008
   N(occ)=  1.20000 1.20000 1.20000 1.20000 1.20000
   ||g|| =     1.186589e-01 Max(G)=   -2.960304e-02 Rot=452,17
   --- Orbital Update [SuperCI(PT)]
   --- Canonicalize Internal Space
   --- Canonicalize External Space
   --- SX_PT (Skipped TA=0 IT=0): ||X|| =      0.033477781 Max(X)(127,123) =     -0.016350471 
   --- SFit(Active Orbitals)

MACRO-ITERATION   7: 
   --- Inactive Energy E0 = -2864.34638182 Eh
CI-ITERATION   0: 
 -2880.181542813   0.000000000000 (    0.00)
 -2880.180096322   0.000000000000
 -2880.177221323   0.000000000000
 -2880.174472449   0.000000000000
 -2880.174310490   0.000000000000
   CI-PROBLEM SOLVED
   DENSITIES MADE
CI-ITERATION   0: 
 -2880.087937444   0.000000000000 (    0.03)
 -2880.087471898   0.000000000000
 -2880.086572175   0.000000000000
 -2880.086242539   0.000000000000
 -2880.084918508   0.000000000000
 -2880.083371456   0.000000000000
 -2880.082046729   0.000000000000
 -2880.082001544   0.000000000000
 -2880.081560729   0.000000000000
 -2880.079796066   0.000000000000
 -2880.079747951   0.000000000000
 -2880.073555034   0.000000000000
 -2880.072789574   0.000000000000
 -2880.072473817   0.000000000000
 -2880.069731280   0.000000000000
 -2880.069605807   0.000000000000
 -2880.067687685   0.000000000000
 -2880.067410403   0.000000000000
 -2880.065585981   0.000000000000
 -2880.065115904   0.000000000000
 -2880.064323148   0.000000000000
 -2880.060585518   0.000000000000
 -2880.059826980   0.000000000000
 -2880.059656099   0.000000000000
 -2880.058283350   0.000000000000
 -2880.055603454   0.000000000000
 -2880.055078837   0.000000000000
 -2880.053435481   0.000000000000
 -2880.053421289   0.000000000000
 -2880.052942460   0.000000000000
 -2880.024564495   0.000000000000
 -2880.023025544   0.000000000000
 -2880.021986164   0.000000000000
 -2880.020336563   0.000000000000
 -2880.019091818   0.000000000000
 -2879.922195619   0.000000000000
 -2879.921595894   0.000000000000
 -2879.920856285   0.000000000000
 -2879.919877323   0.000000000000
 -2879.919283564   0.000000000000
 -2879.918926655   0.000000000000
 -2879.918013737   0.000000000000
 -2879.914927228   0.000000000000
 -2879.913978719   0.000000000000
 -2879.912065024   0.000000000000
   CI-PROBLEM SOLVED
   DENSITIES MADE
   E(CAS)= -2880.104425493 Eh DE=   -7.483772e-04
   --- Energy gap subspaces: Ext-Act = 0.239   Act-Int = -0.019
   N(occ)=  1.20000 1.20000 1.20000 1.20000 1.20000
   ||g|| =     4.249099e-02 Max(G)=    4.095898e-03 Rot=127,123
   --- Orbital Update [SuperCI(PT)]
   --- Canonicalize Internal Space
   --- Canonicalize External Space
   --- SX_PT (Skipped TA=0 IT=0): ||X|| =      0.013211575 Max(X)(127,123) =     -0.006069721 
   --- SFit(Active Orbitals)

MACRO-ITERATION   8: 
   --- Inactive Energy E0 = -2864.31456601 Eh
CI-ITERATION   0: 
 -2880.181773215   0.000000000000 (    0.00)
 -2880.180367446   0.000000000000
 -2880.177453067   0.000000000000
 -2880.174688894   0.000000000000
 -2880.174465552   0.000000000000
   CI-PROBLEM SOLVED
   DENSITIES MADE
CI-ITERATION   0: 
 -2880.088042024   0.000000000000 (    0.00)
 -2880.087558555   0.000000000000
 -2880.086650480   0.000000000000
 -2880.086323606   0.000000000000
 -2880.085030942   0.000000000000
 -2880.083461651   0.000000000000
 -2880.082136027   0.000000000000
 -2880.082132544   0.000000000000
 -2880.081650027   0.000000000000
 -2880.079870278   0.000000000000
 -2880.079814005   0.000000000000
 -2880.073658197   0.000000000000
 -2880.072912449   0.000000000000
 -2880.072594960   0.000000000000
 -2880.069821282   0.000000000000
 -2880.069692385   0.000000000000
 -2880.067745132   0.000000000000
 -2880.067486051   0.000000000000
 -2880.065663285   0.000000000000
 -2880.065228359   0.000000000000
 -2880.064391763   0.000000000000
 -2880.060657628   0.000000000000
 -2880.059920187   0.000000000000
 -2880.059728869   0.000000000000
 -2880.058371104   0.000000000000
 -2880.055692378   0.000000000000
 -2880.055195618   0.000000000000
 -2880.053565749   0.000000000000
 -2880.053535409   0.000000000000
 -2880.053064551   0.000000000000
 -2880.024585418   0.000000000000
 -2880.023010790   0.000000000000
 -2880.021990045   0.000000000000
 -2880.020398495   0.000000000000
 -2880.019157311   0.000000000000
 -2879.922000016   0.000000000000
 -2879.921448494   0.000000000000
 -2879.920748532   0.000000000000
 -2879.919718967   0.000000000000
 -2879.919189060   0.000000000000
 -2879.918772277   0.000000000000
 -2879.917936849   0.000000000000
 -2879.914914710   0.000000000000
 -2879.913969841   0.000000000000
 -2879.912069823   0.000000000000
   CI-PROBLEM SOLVED
   DENSITIES MADE
   E(CAS)= -2880.104558219 Eh DE=   -1.327259e-04
   --- Energy gap subspaces: Ext-Act = 0.242   Act-Int = -0.022
   N(occ)=  1.20000 1.20000 1.20000 1.20000 1.20000
   ||g|| =     1.414808e-02 Max(G)=    2.380099e-03 Rot=134,123
   --- Orbital Update [SuperCI(PT)]
   --- Canonicalize Internal Space
   --- Canonicalize External Space
   --- SX_PT (Skipped TA=0 IT=0): ||X|| =      0.006762986 Max(X)(129,123) =      0.003152929 
   --- SFit(Active Orbitals)

MACRO-ITERATION   9: 
   --- Inactive Energy E0 = -2864.30240637 Eh
CI-ITERATION   0: 
 -2880.181865157   0.000000000000 (    0.00)
 -2880.180436097   0.000000000000
 -2880.177502140   0.000000000000
 -2880.174743939   0.000000000000
 -2880.174526795   0.000000000000
   CI-PROBLEM SOLVED
   DENSITIES MADE
CI-ITERATION   0: 
 -2880.088053402   0.000000000000 (    0.03)
 -2880.087570576   0.000000000000
 -2880.086659744   0.000000000000
 -2880.086334590   0.000000000000
 -2880.085043869   0.000000000000
 -2880.083465932   0.000000000000
 -2880.082172511   0.000000000000
 -2880.082144596   0.000000000000
 -2880.081661573   0.000000000000
 -2880.079885248   0.000000000000
 -2880.079822984   0.000000000000
 -2880.073686700   0.000000000000
 -2880.072939960   0.000000000000
 -2880.072628476   0.000000000000
 -2880.069852699   0.000000000000
 -2880.069704378   0.000000000000
 -2880.067751882   0.000000000000
 -2880.067502749   0.000000000000
 -2880.065671155   0.000000000000
 -2880.065251227   0.000000000000
 -2880.064393540   0.000000000000
 -2880.060665205   0.000000000000
 -2880.059933377   0.000000000000
 -2880.059731621   0.000000000000
 -2880.058387723   0.000000000000
 -2880.055714414   0.000000000000
 -2880.055238609   0.000000000000
 -2880.053603911   0.000000000000
 -2880.053567411   0.000000000000
 -2880.053099238   0.000000000000
 -2880.024569379   0.000000000000
 -2880.022989134   0.000000000000
 -2880.021963931   0.000000000000
 -2880.020412791   0.000000000000
 -2880.019172144   0.000000000000
 -2879.921931810   0.000000000000
 -2879.921335503   0.000000000000
 -2879.920690872   0.000000000000
 -2879.919649756   0.000000000000
 -2879.919135264   0.000000000000
 -2879.918682044   0.000000000000
 -2879.917914439   0.000000000000
 -2879.914882617   0.000000000000
 -2879.913957774   0.000000000000
 -2879.912069062   0.000000000000
   CI-PROBLEM SOLVED
   DENSITIES MADE
   E(CAS)= -2880.104590699 Eh DE=   -3.248084e-05
   --- Energy gap subspaces: Ext-Act = 0.243   Act-Int = -0.024
   N(occ)=  1.20000 1.20000 1.20000 1.20000 1.20000
   ||g|| =     9.201640e-03 Max(G)=   -1.623236e-03 Rot=131,121
   --- Orbital Update [SuperCI(PT)]
   --- Canonicalize Internal Space
   --- Canonicalize External Space
   --- SX_PT (Skipped TA=0 IT=0): ||X|| =      0.004030157 Max(X)(132,121) =      0.002132666 
   --- SFit(Active Orbitals)

MACRO-ITERATION  10: 
   --- Inactive Energy E0 = -2864.29761653 Eh
CI-ITERATION   0: 
 -2880.181888674   0.000000000000 (    0.00)
 -2880.180429504   0.000000000000
 -2880.177495375   0.000000000000
 -2880.174756183   0.000000000000
 -2880.174521912   0.000000000000
   CI-PROBLEM SOLVED
   DENSITIES MADE
CI-ITERATION   0: 
 -2880.088067836   0.000000000000 (    0.03)
 -2880.087584524   0.000000000000
 -2880.086665247   0.000000000000
 -2880.086346205   0.000000000000
 -2880.085057113   0.000000000000
 -2880.083472021   0.000000000000
 -2880.082227728   0.000000000000
 -2880.082163729   0.000000000000
 -2880.081679309   0.000000000000
 -2880.079897622   0.000000000000
 -2880.079829020   0.000000000000
 -2880.073722168   0.000000000000
 -2880.072976307   0.000000000000
 -2880.072670820   0.000000000000
 -2880.069910481   0.000000000000
 -2880.069737087   0.000000000000
 -2880.067765809   0.000000000000
 -2880.067528490   0.000000000000
 -2880.065689255   0.000000000000
 -2880.065284143   0.000000000000
 -2880.064388378   0.000000000000
 -2880.060690834   0.000000000000
 -2880.059963107   0.000000000000
 -2880.059752262   0.000000000000
 -2880.058428653   0.000000000000
 -2880.055759847   0.000000000000
 -2880.055307421   0.000000000000
 -2880.053663520   0.000000000000
 -2880.053617888   0.000000000000
 -2880.053151637   0.000000000000
 -2880.024603999   0.000000000000
 -2880.023009713   0.000000000000
 -2880.021974504   0.000000000000
 -2880.020473610   0.000000000000
 -2880.019233638   0.000000000000
 -2879.921971762   0.000000000000
 -2879.921347469   0.000000000000
 -2879.920747971   0.000000000000
 -2879.919690793   0.000000000000
 -2879.919182527   0.000000000000
 -2879.918710586   0.000000000000
 -2879.917999146   0.000000000000
 -2879.914967066   0.000000000000
 -2879.914057922   0.000000000000
 -2879.912194824   0.000000000000
   CI-PROBLEM SOLVED
   DENSITIES MADE
   E(CAS)= -2880.104610987 Eh DE=   -2.028733e-05
   --- Energy gap subspaces: Ext-Act = 0.244   Act-Int = -0.025
   N(occ)=  1.20000 1.20000 1.20000 1.20000 1.20000
   ||g|| =     4.551894e-03 Max(G)=   -8.617733e-04 Rot=129,123
   --- Orbital Update [SuperCI(PT)]
   --- Canonicalize Internal Space
   --- Canonicalize External Space
   --- SX_PT (Skipped TA=0 IT=0): ||X|| =      0.002552353 Max(X)(129,123) =      0.001284112 
   --- SFit(Active Orbitals)

MACRO-ITERATION  11: 
   --- Inactive Energy E0 = -2864.30128255 Eh
CI-ITERATION   0: 
 -2880.181873458   0.000000000000 (    0.26)
 -2880.180406455   0.000000000000
 -2880.177474233   0.000000000000
 -2880.174745332   0.000000000000
 -2880.174514289   0.000000000000
   CI-PROBLEM SOLVED
   DENSITIES MADE
CI-ITERATION   0: 
 -2880.088082359   0.000000000000 (    0.00)
 -2880.087599270   0.000000000000
 -2880.086675718   0.000000000000
[...]
      pz      :     2.148863  p :     6.503007
      px      :     2.082402
      py      :     2.271742
      dz2     :     1.998519  d :     9.982024
      dxz     :     2.000575
      dyz     :     1.989882
      dx2y2   :     2.001553
      dxy     :     1.991496
      f0      :     0.000684  f :     0.004559
      f+1     :     0.000533
      f-1     :     0.000515
      f+2     :     0.000635
      f-2     :     0.000701
      f+3     :     0.000678
      f-3     :     0.000812
  7 Aus       :     2.582385  s :     2.582385
      pz      :     2.100399  p :     6.401263
      px      :     2.217696
      py      :     2.083168
      dz2     :     1.988471  d :     9.999327
      dxz     :     1.996996
      dyz     :     1.999247
      dx2y2   :     2.002097
      dxy     :     2.012516
      f0      :     0.000469  f :     0.003875
      f+1     :     0.000306
      f-1     :     0.000406
      f+2     :     0.000678
      f-2     :     0.000798
      f+3     :     0.000596
      f-3     :     0.000621
  8 Aus       :     2.412430  s :     2.412430
      pz      :     2.121434  p :     6.595562
      px      :     2.226000
      py      :     2.248129
      dz2     :     1.999977  d :    10.000564
      dxz     :     1.981819
      dyz     :     2.010686
      dx2y2   :     2.012472
      dxy     :     1.995610
      f0      :     0.000721  f :     0.004850
      f+1     :     0.000635
      f-1     :     0.000637
      f+2     :     0.000794
      f-2     :     0.000500
      f+3     :     0.000591
      f-3     :     0.000972
  9 Aus       :     2.594390  s :     2.594390
      pz      :     2.105097  p :     6.368792
      px      :     2.077369
      py      :     2.186326
      dz2     :     1.986190  d :     9.957504
      dxz     :     1.988227
      dyz     :     1.997686
      dx2y2   :     1.984910
      dxy     :     2.000492
      f0      :     0.000462  f :     0.003429
      f+1     :     0.000401
      f-1     :     0.000653
      f+2     :     0.000527
      f-2     :     0.000295
      f+3     :     0.000466
      f-3     :     0.000624
 10 Aus       :     2.405131  s :     2.405131
      pz      :     2.167486  p :     6.636670
      px      :     2.173467
      py      :     2.295716
      dz2     :     2.010824  d :     9.987090
      dxz     :     1.991512
      dyz     :     1.978938
      dx2y2   :     2.009495
      dxy     :     1.996320
      f0      :     0.000710  f :     0.004955
      f+1     :     0.000529
      f-1     :     0.000804
      f+2     :     0.000751
      f-2     :     0.000531
      f+3     :     0.000607
      f-3     :     0.001022
 11 Aus       :     2.599866  s :     2.599866
      pz      :     2.160572  p :     6.425555
      px      :     2.109426
      py      :     2.155557
      dz2     :     2.016304  d :    10.018383
      dxz     :     1.999696
      dyz     :     1.992855
      dx2y2   :     2.006224
      dxy     :     2.003305
      f0      :     0.000836  f :     0.003788
      f+1     :     0.000358
      f-1     :     0.000506
      f+2     :     0.000568
      f-2     :     0.000374
      f+3     :     0.000485
      f-3     :     0.000661
 12 Fes       :     6.299837  s :     6.299837
      pz      :     4.253017  p :    12.711083
      px      :     4.235268
      py      :     4.222798
      dz2     :     1.454837  d :     7.150004
      dxz     :     1.459692
      dyz     :     1.381945
      dx2y2   :     1.380243
      dxy     :     1.473287
      f0      :     0.000063  f :     0.000514
      f+1     :     0.000096
      f-1     :     0.000080
      f+2     :     0.000061
      f-2     :     0.000072
      f+3     :     0.000079
      f-3     :     0.000063

SPIN
  0 Aus       :     0.000830  s :     0.000830
      pz      :     0.000527  p :     0.002471
      px      :     0.000921
      py      :     0.001023
      dz2     :     0.002713  d :     0.006547
      dxz     :     0.001068
      dyz     :     0.001820
      dx2y2   :     0.000565
      dxy     :     0.000381
      f0      :     0.000033  f :     0.000108
      f+1     :     0.000016
      f-1     :     0.000037
      f+2     :     0.000011
      f-2     :     0.000008
      f+3     :     0.000001
      f-3     :     0.000000
  1 Aus       :     0.001729  s :     0.001729
      pz      :     0.000781  p :     0.001804
      px      :     0.000553
      py      :     0.000469
      dz2     :     0.002199  d :     0.008518
      dxz     :     0.002724
      dyz     :     0.001374
      dx2y2   :     0.001487
      dxy     :     0.000735
      f0      :     0.000019  f :     0.000173
      f+1     :     0.000052
      f-1     :     0.000018
      f+2     :     0.000038
      f-2     :     0.000033
      f+3     :     0.000006
      f-3     :     0.000007
  2 Aus       :     0.001628  s :     0.001628
      pz      :     0.000684  p :     0.002208
      px      :     0.000704
      py      :     0.000819
      dz2     :     0.001188  d :     0.007922
      dxz     :     0.000286
      dyz     :     0.001400
      dx2y2   :     0.002658
      dxy     :     0.002389
      f0      :     0.000007  f :     0.000140
      f+1     :     0.000004
      f-1     :     0.000035
      f+2     :     0.000005
      f-2     :     0.000008
      f+3     :     0.000053
      f-3     :     0.000028
  3 Aus       :     0.002006  s :     0.002006
      pz      :     0.000365  p :     0.001767
      px      :     0.001009
      py      :     0.000392
      dz2     :     0.000753  d :     0.007137
      dxz     :     0.001030
      dyz     :     0.001404
      dx2y2   :     0.000932
      dxy     :     0.003018
      f0      :     0.000010  f :     0.000132
      f+1     :     0.000013
      f-1     :     0.000014
      f+2     :     0.000002
      f-2     :     0.000025
      f+3     :     0.000038
      f-3     :     0.000031
  4 Aus       :     0.002323  s :     0.002323
      pz      :     0.000947  p :     0.001839
      px      :     0.000301
      py      :     0.000591
      dz2     :     0.000116  d :     0.000489
      dxz     :     0.000071
      dyz     :     0.000100
      dx2y2   :     0.000078
      dxy     :     0.000123
      f0      :     0.000001  f :     0.000003
      f+1     :     0.000000
      f-1     :     0.000000
      f+2     :     0.000001
      f-2     :     0.000001
      f+3     :     0.000001
      f-3     :     0.000000
  5 Aus       :     0.000392  s :     0.000392
      pz      :     0.000747  p :     0.002504
      px      :     0.000571
      py      :     0.001186
      dz2     :     0.001029  d :     0.008404
      dxz     :     0.001636
      dyz     :     0.000486
      dx2y2   :     0.003613
      dxy     :     0.001641
      f0      :     0.000011  f :     0.000161
      f+1     :     0.000032
      f-1     :     0.000003
      f+2     :     0.000024
      f-2     :     0.000005
      f+3     :     0.000048
      f-3     :     0.000039
  6 Aus       :     0.000839  s :     0.000839
      pz      :     0.000192  p :     0.002465
      px      :     0.000257
      py      :     0.002015
      dz2     :     0.000749  d :     0.006566
      dxz     :     0.000731
      dyz     :     0.001831
      dx2y2   :     0.001372
      dxy     :     0.001883
      f0      :     0.000016  f :     0.000107
      f+1     :     0.000005
      f-1     :     0.000005
      f+2     :     0.000008
      f-2     :     0.000035
      f+3     :     0.000021
      f-3     :     0.000018
  7 Aus       :     0.002311  s :     0.002311
      pz      :     0.000408  p :     0.001829
      px      :     0.001172
      py      :     0.000249
      dz2     :     0.000029  d :     0.000485
      dxz     :     0.000145
      dyz     :     0.000060
      dx2y2   :     0.000198
      dxy     :     0.000052
      f0      :     0.000001  f :     0.000003
      f+1     :     0.000000
      f-1     :     0.000001
      f+2     :     0.000001
      f-2     :     0.000001
      f+3     :     0.000000
      f-3     :     0.000000
  8 Aus       :     0.000746  s :     0.000746
      pz      :     0.000539  p :     0.002520
      px      :     0.001047
      py      :     0.000934
      dz2     :     0.001351  d :     0.005000
      dxz     :     0.002031
      dyz     :     0.000540
      dx2y2   :     0.000379
      dxy     :     0.000699
      f0      :     0.000007  f :     0.000087
      f+1     :     0.000047
      f-1     :     0.000003
      f+2     :     0.000016
      f-2     :     0.000009
      f+3     :     0.000001
      f-3     :     0.000004
  9 Aus       :     0.002015  s :     0.002015
      pz      :     0.000888  p :     0.001772
      px      :     0.000425
      py      :     0.000459
      dz2     :     0.002623  d :     0.007201
      dxz     :     0.002068
      dyz     :     0.001396
      dx2y2   :     0.000858
      dxy     :     0.000255
      f0      :     0.000026  f :     0.000134
      f+1     :     0.000044
      f-1     :     0.000033
      f+2     :     0.000012
      f-2     :     0.000015
      f+3     :     0.000002
      f-3     :     0.000004
 10 Aus       :     0.000395  s :     0.000395
      pz      :     0.000508  p :     0.002491
      px      :     0.000532
      py      :     0.001452
      dz2     :     0.001197  d :     0.008341
      dxz     :     0.001117
      dyz     :     0.003396
      dx2y2   :     0.000987
      dxy     :     0.001644
      f0      :     0.000017  f :     0.000159
      f+1     :     0.000010
      f-1     :     0.000040
      f+2     :     0.000033
      f-2     :     0.000034
      f+3     :     0.000015
      f-3     :     0.000009
 11 Aus       :     0.002524  s :     0.002524
      pz      :     0.000679  p :     0.001779
      px      :     0.000322
      py      :     0.000778
      dz2     :     0.000104  d :     0.000565
      dxz     :     0.000049
      dyz     :     0.000168
      dx2y2   :     0.000046
      dxy     :     0.000198
      f0      :     0.000001  f :     0.000003
      f+1     :     0.000000
      f-1     :     0.000000
      f+2     :     0.000000
      f-2     :     0.000000
      f+3     :     0.000001
      f-3     :     0.000000
 12 Fes       :     0.000301  s :     0.000301
      pz      :     0.000776  p :     0.003156
      px      :     0.001179
      py      :     0.001201
      dz2     :     0.574069  d :     2.884968
      dxz     :     0.574282
      dyz     :     0.580663
      dx2y2   :     0.580948
      dxy     :     0.575005
      f0      :     0.000000  f :     0.000002
      f+1     :     0.000000
      f-1     :     0.000000
      f+2     :     0.000000
      f-2     :     0.000000
      f+3     :     0.000001
      f-3     :     0.000000


                      *****************************
                      * MAYER POPULATION ANALYSIS *
                      *****************************

  NA   - Mulliken gross atomic population
  ZA   - Total nuclear charge
  QA   - Mulliken gross atomic charge
  VA   - Mayer's total valence
  BVA  - Mayer's bonded valence
  FA   - Mayer's free valence

  ATOM       NA         ZA         QA         VA         BVA        FA
  0 Au    18.8997    19.0000     0.1003     1.4789     1.4718     0.0070
  1 Au    18.7872    19.0000     0.2128     1.2223     1.2124     0.0099
  2 Au    18.8180    19.0000     0.1820     1.1853     1.1765     0.0088
  3 Au    18.7105    19.0000     0.2895     1.2052     1.1966     0.0086
  4 Au    18.8411    19.0000     0.1589     1.3382     1.3339     0.0043
  5 Au    18.9941    19.0000     0.0059     1.8697     1.8613     0.0084
  6 Au    18.9100    19.0000     0.0900     1.4889     1.4818     0.0071
  7 Au    18.8331    19.0000     0.1669     1.3304     1.3261     0.0043
  8 Au    18.8575    19.0000     0.1425     1.5901     1.5839     0.0062
  9 Au    18.7091    19.0000     0.2909     1.2053     1.1966     0.0087
 10 Au    18.9979    19.0000     0.0021     1.8723     1.8641     0.0083
 11 Au    19.1001    19.0000    -0.1001     1.4331     1.4282     0.0049
 12 Fe    27.5417    26.0000    -1.5417     8.8071     4.1948     4.6124

  Mayer bond orders larger than 0.100000
B(  0-Au,  1-Au) :   0.1742 B(  0-Au,  4-Au) :   0.4050 B(  0-Au,  5-Au) :   0.2674 
B(  0-Au,  6-Au) :   0.1193 B(  0-Au, 12-Fe) :   0.3964 B(  1-Au,  2-Au) :   0.1778 
B(  1-Au,  6-Au) :   0.1766 B(  1-Au, 12-Fe) :   0.4887 B(  2-Au,  3-Au) :   0.1620 
B(  2-Au,  9-Au) :   0.1630 B(  2-Au, 12-Fe) :   0.4801 B(  3-Au,  5-Au) :   0.3536 
B(  3-Au,  8-Au) :   0.1298 B(  3-Au, 12-Fe) :   0.4304 B(  4-Au,  5-Au) :   0.3620 
B(  4-Au,  7-Au) :   0.1407 B(  4-Au, 11-Au) :   0.1988 B(  5-Au,  8-Au) :   0.1945 
B(  5-Au, 11-Au) :   0.1815 B(  5-Au, 12-Fe) :   0.3926 B(  6-Au,  7-Au) :   0.4084 
B(  6-Au, 10-Au) :   0.2680 B(  6-Au, 12-Fe) :   0.3976 B(  7-Au, 10-Au) :   0.3596 
B(  7-Au, 11-Au) :   0.1966 B(  8-Au,  9-Au) :   0.1269 B(  8-Au, 10-Au) :   0.1959 
B(  8-Au, 11-Au) :   0.3773 B(  8-Au, 12-Fe) :   0.4320 B(  9-Au, 10-Au) :   0.3544 
B(  9-Au, 12-Fe) :   0.4317 B( 10-Au, 11-Au) :   0.1845 B( 10-Au, 12-Fe) :   0.3914 
B( 11-Au, 12-Fe) :   0.1590 


-------------------------------------------------------------
 Forming the transition density       ... done in 0.083979 sec
-------------------------------------------------------------



==========================================
CASSCF UV, CD spectra and dipole moments
==========================================
-------------------
ABSORPTION SPECTRUM
-------------------

Center of mass           = ( 12.0319, 15.7222, 11.7540)
Nuclear contribution to the dipole moment =    14.483896,  -31.070815,   -3.078829 au

Calculating the Dipole integrals                  ... done
Transforming integrals                            ... done
Calculating the Linear Momentum integrals         ... done
Transforming integrals                            ... done
Calculating the Angular Momentum integrals        ... done
Transforming integrals                            ... done

------------------------------------------------------------------------------------------
                                ABSORPTION SPECTRUM
------------------------------------------------------------------------------------------
  States           Energy   Wavelength   fosc          T2        TX         TY        TZ  
                   (cm-1)     (nm)                   (D**2)      (D)        (D)       (D) 
------------------------------------------------------------------------------------------
  0( 0)-> 1( 0) 5     318.1   31432.5   0.000000046   0.00031  -0.01366  -0.00597  -0.00912
  0( 0)-> 2( 0) 5     958.8   10430.2   0.000000506   0.00112  -0.01862   0.00622   0.02711
  0( 0)-> 3( 0) 5    1559.3   6413.1   0.000003219   0.00438  -0.01471  -0.02877   0.05779
  0( 0)-> 4( 0) 5    1609.5   6213.2   0.000001849   0.00244  -0.04181  -0.02182  -0.01467
------------------------------------------------------------------------------------------



------------------------------------------------------------------------------
                             CD SPECTRUM
------------------------------------------------------------------------------
      States        Energy   Wavelength   R*T        RX        RY        RZ   
                    (cm-1)      (nm)   (1e40*sgs)   (au)      (au)      (au)  
------------------------------------------------------------------------------
  0( 0)-> 1( 0) 5     318.1   31432.5    -0.00720   0.09955   0.27209  -0.32294
  0( 0)-> 2( 0) 5     958.8   10430.2     0.02527   0.28136   0.10922   0.17321
  0( 0)-> 3( 0) 5    1559.3   6413.1     0.13588   0.39532  -0.00136   0.11264
  0( 0)-> 4( 0) 5    1609.5   6213.2    -0.17859  -0.47587   0.64500   0.46223
------------------------------------------------------------------------------

------------------------------------------------------------------------------
                                 DIPOLE MOMENTS
------------------------------------------------------------------------------
  Root  Block           TX        TY        TZ           |T|
                      (Debye)   (Debye)   (Debye)      (Debye)
------------------------------------------------------------------------------
    0    0            0.63978  -0.90988  -0.42255      1.18985

--------------
CASSCF TIMINGS
--------------

Total time                       ...     7293.6 sec
Sum of individual times          ...     7211.5 sec ( 98.9%)

Calculation of AO operators
   F(Core) operator              ...     3654.0 sec ( 50.1%)
   G(Act) operator               ...     3242.4 sec ( 44.5%)
   J(AO) operators               ...        0.0 sec (  0.0%)
Calculation of MO transformed quantities
   J(MO) operators               ...      271.0 sec (  3.7%)
   (pq|rs) integrals             ...        0.0 sec (  0.0%)
   AO->MO one electron integrals ...        3.2 sec (  0.0%)
Configuration interaction steps
   CI-setup phase                ...        0.0 sec (  0.0%)
   CI-solution phase             ...       26.5 sec (  0.4%)
   Generation of densities       ...        2.0 sec (  0.0%)
Orbital improvement steps
   Orbital gradient              ...        0.7 sec (  0.0%)
   O(1) converger                ...       11.6 sec (  0.2%)
Properties                       ...        0.1 sec (  0.0%)
   SOC integral calculation      ...        0.0 sec (  0.0%)
   SSC RMEs (incl. integrals)    ...        0.0 sec (  0.0%)
   SOC RMEs                      ...        0.0 sec (  0.0%)

Maximum memory used throughout the entire CASSCF-calculation: 311.2 MB

-------------------------   --------------------
FINAL SINGLE POINT ENERGY     -2880.104621232268
-------------------------   --------------------


                            ***************************************
                            *     ORCA property calculations      *
                            ***************************************

                                    ---------------------
                                    Active property flags
                                    ---------------------
   (+) Dipole Moment


------------------------------------------------------------------------------
                       ORCA ELECTRIC PROPERTIES CALCULATION
------------------------------------------------------------------------------

Dipole Moment Calculation                       ... on
Quadrupole Moment Calculation                   ... off
Polarizability Calculation                      ... off
GBWName                                         ... casscf.gbw
Electron density                                ... casscf.scfp
The origin for moment calculation is the CENTER OF MASS  = (12.031898, 15.722243 11.754009)

-------------
DIPOLE MOMENT
-------------
                                X             Y             Z
Electronic contribution:    -14.22588      30.68116       2.92232
Nuclear contribution   :     14.48390     -31.07082      -3.07883
                        -----------------------------------------
Total Dipole Moment    :      0.25801      -0.38965      -0.15651
                        -----------------------------------------
Magnitude (a.u.)       :      0.49284
Magnitude (Debye)      :      1.25270



--------------------
Rotational spectrum 
--------------------
 
Rotational constants in cm-1:     0.001622     0.001213     0.001098 
Rotational constants in MHz :    48.629548    36.379718    32.918020 

 Dipole components along the rotational axes: 
x,y,z [a.u.] :     0.420473     0.257090    -0.000311 
x,y,z [Debye]:     1.068758     0.653471    -0.000790 

 

Timings for individual modules:

Sum of individual times         ...     7425.124 sec (= 123.752 min)
GTO integral calculation        ...       68.304 sec (=   1.138 min)   0.9 %
SCF iterations                  ...       41.762 sec (=   0.696 min)   0.6 %
CASSCF iterations               ...     7315.058 sec (= 121.918 min)  98.5 %
                             ****ORCA TERMINATED NORMALLY****
TOTAL RUN TIME: 0 days 2 hours 3 minutes 46 seconds 82 msec
