
                                 *****************
                                 * O   R   C   A *
                                 *****************

                                            #,                                       
                                            ###                                      
                                            ####                                     
                                            #####                                    
                                            ######                                   
                                           ########,                                 
                                     ,,################,,,,,                         
                               ,,#################################,,                 
                          ,,##########################################,,             
                       ,#########################################, ''#####,          
                    ,#############################################,,   '####,        
                  ,##################################################,,,,####,       
                ,###########''''           ''''###############################       
              ,#####''   ,,,,##########,,,,          '''####'''          '####       
            ,##' ,,,,###########################,,,                        '##       
           ' ,,###''''                  '''############,,,                           
         ,,##''                                '''############,,,,        ,,,,,,###''
      ,#''                                            '''#######################'''  
     '                                                          ''''####''''         
             ,#######,   #######,   ,#######,      ##                                
            ,#'     '#,  ##    ##  ,#'     '#,    #''#        ######   ,####,        
            ##       ##  ##   ,#'  ##            #'  '#       #        #'  '#        
            ##       ##  #######   ##           ,######,      #####,   #    #        
            '#,     ,#'  ##    ##  '#,     ,#' ,#      #,         ##   #,  ,#        
             '#######'   ##     ##  '#######'  #'      '#     #####' # '####'        



                  #######################################################
                  #                        -***-                        #
                  #          Department of theory and spectroscopy      #
                  #    Directorship and core code : Frank Neese         #
                  #        Max Planck Institute fuer Kohlenforschung    #
                  #                Kaiser Wilhelm Platz 1               #
                  #                 D-45470 Muelheim/Ruhr               #
                  #                      Germany                        #
                  #                                                     #
                  #                  All rights reserved                #
                  #                        -***-                        #
                  #######################################################


                         Program Version 5.0.3 -  RELEASE  -


 With contributions from (in alphabetic order):
   Daniel Aravena         : Magnetic Suceptibility
   Michael Atanasov       : Ab Initio Ligand Field Theory (pilot matlab implementation)
   Alexander A. Auer      : GIAO ZORA, VPT2 properties, NMR spectrum
   Ute Becker             : Parallelization
   Giovanni Bistoni       : ED, misc. LED, open-shell LED, HFLD
   Martin Brehm           : Molecular dynamics
   Dmytro Bykov           : SCF Hessian
   Vijay G. Chilkuri      : MRCI spin determinant printing, contributions to CSF-ICE
   Dipayan Datta          : RHF DLPNO-CCSD density
   Achintya Kumar Dutta   : EOM-CC, STEOM-CC
   Dmitry Ganyushin       : Spin-Orbit,Spin-Spin,Magnetic field MRCI
   Miquel Garcia          : C-PCM and meta-GGA Hessian, CC/C-PCM, Gaussian charge scheme
   Yang Guo               : DLPNO-NEVPT2, F12-NEVPT2, CIM, IAO-localization
   Andreas Hansen         : Spin unrestricted coupled pair/coupled cluster methods
   Benjamin Helmich-Paris : MC-RPA, TRAH-SCF, COSX integrals
   Lee Huntington         : MR-EOM, pCC
   Robert Izsak           : Overlap fitted RIJCOSX, COSX-SCS-MP3, EOM
   Marcus Kettner         : VPT2
   Christian Kollmar      : KDIIS, OOCD, Brueckner-CCSD(T), CCSD density, CASPT2, CASPT2-K
   Simone Kossmann        : Meta GGA functionals, TD-DFT gradient, OOMP2, MP2 Hessian
   Martin Krupicka        : Initial AUTO-CI
   Lucas Lang             : DCDCAS
   Marvin Lechner         : AUTO-CI (C++ implementation), FIC-MRCC
   Dagmar Lenk            : GEPOL surface, SMD
   Dimitrios Liakos       : Extrapolation schemes; Compound Job, initial MDCI parallelization
   Dimitrios Manganas     : Further ROCIS development; embedding schemes
   Dimitrios Pantazis     : SARC Basis sets
   Anastasios Papadopoulos: AUTO-CI, single reference methods and gradients
   Taras Petrenko         : DFT Hessian,TD-DFT gradient, ASA, ECA, R-Raman, ABS, FL, XAS/XES, NRVS
   Peter Pinski           : DLPNO-MP2, DLPNO-MP2 Gradient
   Christoph Reimann      : Effective Core Potentials
   Marius Retegan         : Local ZFS, SOC
   Christoph Riplinger    : Optimizer, TS searches, QM/MM, DLPNO-CCSD(T), (RO)-DLPNO pert. Triples
   Tobias Risthaus        : Range-separated hybrids, TD-DFT gradient, RPA, STAB
   Michael Roemelt        : Original ROCIS implementation
   Masaaki Saitow         : Open-shell DLPNO-CCSD energy and density
   Barbara Sandhoefer     : DKH picture change effects
   Avijit Sen             : IP-ROCIS
   Kantharuban Sivalingam : CASSCF convergence, NEVPT2, FIC-MRCI
   Bernardo de Souza      : ESD, SOC TD-DFT
   Georgi Stoychev        : AutoAux, RI-MP2 NMR, DLPNO-MP2 response
   Willem Van den Heuvel  : Paramagnetic NMR
   Boris Wezisla          : Elementary symmetry handling
   Frank Wennmohs         : Technical directorship


 We gratefully acknowledge several colleagues who have allowed us to
 interface, adapt or use parts of their codes:
   Stefan Grimme, W. Hujo, H. Kruse, P. Pracht,  : VdW corrections, initial TS optimization,
                  C. Bannwarth, S. Ehlert          DFT functionals, gCP, sTDA/sTD-DF
   Ed Valeev, F. Pavosevic, A. Kumar             : LibInt (2-el integral package), F12 methods
   Garnet Chan, S. Sharma, J. Yang, R. Olivares  : DMRG
   Ulf Ekstrom                                   : XCFun DFT Library
   Mihaly Kallay                                 : mrcc  (arbitrary order and MRCC methods)
   Jiri Pittner, Ondrej Demel                    : Mk-CCSD
   Frank Weinhold                                : gennbo (NPA and NBO analysis)
   Christopher J. Cramer and Donald G. Truhlar   : smd solvation model
   Lars Goerigk                                  : TD-DFT with DH, B97 family of functionals
   V. Asgeirsson, H. Jonsson                     : NEB implementation
   FAccTs GmbH                                   : IRC, NEB, NEB-TS, DLPNO-Multilevel, CI-OPT
                                                   MM, QMMM, 2- and 3-layer-ONIOM, Crystal-QMMM,
                                                   LR-CPCM, SF, NACMEs, symmetry and pop. for TD-DFT,
                                                   nearIR, NL-DFT gradient (VV10), updates on ESD,
                                                   ML-optimized integration grids
   S Lehtola, MJT Oliveira, MAL Marques          : LibXC Library
   Liviu Ungur et al                             : ANISO software


 Your calculation uses the libint2 library for the computation of 2-el integrals
 For citations please refer to: http://libint.valeyev.net

 Your ORCA version has been built with support for libXC version: 5.1.0
 For citations please refer to: https://tddft.org/programs/libxc/

 This ORCA versions uses:
   CBLAS   interface :  Fast vector & matrix operations
   LAPACKE interface :  Fast linear algebra routines
   SCALAPACK package :  Parallel linear algebra routines
   Shared memory     :  Shared parallel matrices
   BLAS/LAPACK       :  OpenBLAS 0.3.15  USE64BITINT DYNAMIC_ARCH NO_AFFINITY Sandybridge SINGLE_THREADED
        Core in use  :  Sandybridge
   Copyright (c) 2011-2014, The OpenBLAS Project




***************************************
The coordinates will be read from file: pbe.xyz
***************************************


================================================================================

cite the ECPs for Au [Def2-ECP] as follows:
Ce-Yb(ecp-28): M. Dolg, H. Stoll, H.Preuss, J. Chem. Phys., 1989, 90, 1730-1734.
Y-Cd(ecp-28), Hf-Hg(ecp-46): D. Andrae,U. Haeussermann, M. Dolg, H. Stoll, H. Preuss, Theor. Chim. Acta, 1990, 77, 123-141.
In-Sb(ecp-28), Tl-Bi(ecp-46): B. Metz, H. Stoll, M. Dolg, J. Chem. Phys., 2000, 113, 2563-2569.
Te-Xe(ecp-28), Po-Rn(ecp-46): K. A. Peterson, D. Figgen, E. Goll, H. Stoll, M. Dolg, J. Chem. Phys., 2003, 119, 11113-11123.
Rb(ecp-28), Cs(ecp-46): T. Leininger, A. Nicklass, W. Kuechle, H. Stoll, M. Dolg, A. Bergner, Chem. Phys. Lett., 1996, 255, 274-280.
Sr(ecp-28), Ba(ecp-46): M. Kaupp, P. V. Schleyer, H. Stoll and H. Preuss, J. Chem. Phys., 1991, 94, 1360-1366.
La(ecp-46): M. Dolg, H. Stoll, A. Savin, H. Preuss, Theor. Chim. Acta, 1989, 75, 173-194.
Lu(ecp-28): X. Cao, M. Dolg, J. Chem. Phys., 2001, 115, 7348-7355.

ECP parameters for Au [Def2-ECP] have been obtained from:
TURBOMOLE (7.0.2)

----- Orbital basis set information -----
Your calculation utilizes the basis: def2-TZVP
   F. Weigend and R. Ahlrichs, Phys. Chem. Chem. Phys. 7, 3297 (2005).

----- AuxJ basis set information -----
Your calculation utilizes the auxiliary basis: def2/J
   F. Weigend, Phys. Chem. Chem. Phys. 8, 1057 (2006).

----- AuxC basis set information -----
Your calculation utilizes the auxiliary basis: def2-TZVP/C
  H-La, Hf-Rn : A. Hellweg, C. Hattig, S. Hofener and W. Klopper, Theor. Chem. Acc. 117, 587 (2007).
        Ce-Lu : J. Chmela and M. E. Harding, Mol. Phys. (2018).

================================================================================
                                        WARNINGS
                       Please study these warnings very carefully!
================================================================================


IMPORTANT NOTE: CASSCF must signal convergence for a subsequent CASPT2/NEVPT2! 
                Set maxiter=1 to run CASPT2/NEVPT2 with arbitrary orbitals.


INFO   : the flag for use of the SHARK integral package has been found!

================================================================================
                                       INPUT FILE
================================================================================
NAME = nevpt2.inp
|  1> !SC-NEVPT2 def2-TZVP def2-TZVP/C
|  2> !MOREAD RIJCOSX def2/J
|  3> %maxcore 4000
|  4> %moinp "casscf.gbw"
|  5> %pal nprocs 6 end 
|  6> 
|  7> %casscf
|  8>  mult 5,3
|  9>  bweight 1,1
| 10>  nroots 5,45
| 11>  nel 6
| 12>  norb 5
| 13>  ptsettings
| 14>   d4tpre 1e-14 # default = 1e-10
| 15>   d3tpre 1e-14
| 16>  end
| 17>  rel           
| 18>    dosoc true   
| 19>    gtensor true 
| 20>  end           
| 21> end
| 22> 
| 23> 
| 24> *xyzfile 0 5 pbe.xyz
| 25> 
| 26> 
| 27>                          ****END OF INPUT****
================================================================================

                       ****************************
                       * Single Point Calculation *
                       ****************************

---------------------------------
CARTESIAN COORDINATES (ANGSTROEM)
---------------------------------
  Au     6.150954    8.555086    3.699781
  Au     8.308475    6.823990    4.181247
  Au     7.679844    5.064980    6.214995
  Au     4.959129    5.614793    6.643313
  Au     4.658505   10.598754    4.690319
  Au     4.186232    8.086282    5.720622
  Au     8.360832    9.459042    5.146245
  Au     6.908534   11.518748    6.161064
  Au     5.160505    7.812519    8.384781
  Au     7.766653    6.748886    8.461985
  Au     7.455332    9.412028    7.856110
  Au     4.703644   10.369304    7.501397
  Fe     6.738845    7.522184    6.140912

----------------------------
CARTESIAN COORDINATES (A.U.)
----------------------------
  NO LB      ZA    FRAG     MASS         X           Y           Z
   0 Au   19.0000*   0   196.966   11.623618   16.166770    6.991572
   1 Au   19.0000*   0   196.966   15.700742   12.895472    7.901411
   2 Au   19.0000*   0   196.966   14.512802    9.571425   11.744638
   3 Au   19.0000*   0   196.966    9.371395   10.610421   12.554042
   4 Au   19.0000*   0   196.966    8.803299   20.028741    8.863419
   5 Au   19.0000*   0   196.966    7.910831   15.280859   10.810409
   6 Au   19.0000*   0   196.966   15.799682   17.874999    9.724993
   7 Au   19.0000*   0   196.966   13.055237   21.767279   11.642724
   8 Au   19.0000*   0   196.966    9.751941   14.763521   15.844939
   9 Au   19.0000*   0   196.966   14.676847   12.753546   15.990834
  10 Au   19.0000*   0   196.966   14.088536   17.786156   14.845896
  11 Au   19.0000*   0   196.966    8.888599   19.595146   14.175585
  12 Fe   26.0000    0    55.850   12.734572   14.214868   11.604642
* core charge reduced due to ECP

--------------------------------
INTERNAL COORDINATES (ANGSTROEM)
--------------------------------
 Au     0   0   0     0.000000000000     0.00000000     0.00000000
 Au     1   0   0     2.807739511795     0.00000000     0.00000000
 Au     2   1   0     2.761417220221   110.12676016     0.00000000
 Au     3   2   1     2.808565535399   102.01364836     7.48149003
 Au     1   2   3     2.717562620283   145.40214754    68.23595987
 Au     4   3   2     2.748997723358   113.40168734   339.09536143
 Au     1   2   3     2.791586324839    60.16510976   102.48336907
 Au     7   1   2     2.716876350695    90.90946386   198.60760881
 Au     4   3   2     2.811274228619   100.26013567   275.67252000
 Au     3   2   1     2.809277315566   101.54990163   287.56084751
 Au    10   3   2     2.748878726908   113.63579229    21.70127003
 Au     9   4   3     2.743399712893   121.14331744   103.91575023
 Fe     2   1   3     2.606051223850    60.06252545   328.26350044

---------------------------
INTERNAL COORDINATES (A.U.)
---------------------------
 Au     0   0   0     0.000000000000     0.00000000     0.00000000
 Au     1   0   0     5.305858732683     0.00000000     0.00000000
 Au     2   1   0     5.218322287713   110.12676016     0.00000000
 Au     3   2   1     5.307419691073   102.01364836     7.48149003
 Au     1   2   3     5.135449104116   145.40214754    68.23595987
 Au     4   3   2     5.194852839919   113.40168734   339.09536143
 Au     1   2   3     5.275333633145    60.16510976   102.48336907
 Au     7   1   2     5.134152242541    90.90946386   198.60760881
 Au     4   3   2     5.312538379441   100.26013567   275.67252000
 Au     3   2   1     5.308764760657   101.54990163   287.56084751
 Au    10   3   2     5.194627969218   113.63579229    21.70127003
 Au     9   4   3     5.184274133247   121.14331744   103.91575023
 Fe     2   1   3     4.924723104047    60.06252545   328.26350044

---------------------
BASIS SET INFORMATION
---------------------
There are 2 groups of distinct atoms

 Group   1 Type Au  : 8s7p6d1f contracted to 6s4p3d1f pattern {311111/4111/411/1}
 Group   2 Type Fe  : 17s11p7d1f contracted to 6s4p4d1f pattern {842111/6311/4111/1}

Atom   0Au   basis set group =>   1
Atom   1Au   basis set group =>   1
Atom   2Au   basis set group =>   1
Atom   3Au   basis set group =>   1
Atom   4Au   basis set group =>   1
Atom   5Au   basis set group =>   1
Atom   6Au   basis set group =>   1
Atom   7Au   basis set group =>   1
Atom   8Au   basis set group =>   1
Atom   9Au   basis set group =>   1
Atom  10Au   basis set group =>   1
Atom  11Au   basis set group =>   1
Atom  12Fe   basis set group =>   2
---------------------------------
AUXILIARY/J BASIS SET INFORMATION
---------------------------------
There are 2 groups of distinct atoms

 Group   1 Type Au  : 11s5p5d3f3g contracted to 8s5p5d2f3g pattern {41111111/11111/11111/21/111}
 Group   2 Type Fe  : 19s5p5d3f3g contracted to 8s5p5d2f3g pattern {121111111/11111/11111/21/111}

Atom   0Au   basis set group =>   1
Atom   1Au   basis set group =>   1
Atom   2Au   basis set group =>   1
Atom   3Au   basis set group =>   1
Atom   4Au   basis set group =>   1
Atom   5Au   basis set group =>   1
Atom   6Au   basis set group =>   1
Atom   7Au   basis set group =>   1
Atom   8Au   basis set group =>   1
Atom   9Au   basis set group =>   1
Atom  10Au   basis set group =>   1
Atom  11Au   basis set group =>   1
Atom  12Fe   basis set group =>   2
---------------------------------
AUXILIARY/C BASIS SET INFORMATION
---------------------------------
There are 2 groups of distinct atoms

 Group   1 Type Au  : 8s8p7d5f3g2h contracted to 8s8p7d5f3g2h pattern {11111111/11111111/1111111/11111/111/11}
 Group   2 Type Fe  : 11s9p8d6f5g2h contracted to 9s8p8d6f5g2h pattern {311111111/21111111/11111111/111111/11111/11}

Atom   0Au   basis set group =>   1
Atom   1Au   basis set group =>   1
Atom   2Au   basis set group =>   1
Atom   3Au   basis set group =>   1
Atom   4Au   basis set group =>   1
Atom   5Au   basis set group =>   1
Atom   6Au   basis set group =>   1
Atom   7Au   basis set group =>   1
Atom   8Au   basis set group =>   1
Atom   9Au   basis set group =>   1
Atom  10Au   basis set group =>   1
Atom  11Au   basis set group =>   1
Atom  12Fe   basis set group =>   2
-------------------------
ECP PARAMETER INFORMATION
-------------------------

 Group 1, Type Au ECP Def2-ECP (replacing 60 core electrons, lmax=3)

Atom   0Au   ECP group =>   1
Atom   1Au   ECP group =>   1
Atom   2Au   ECP group =>   1
Atom   3Au   ECP group =>   1
Atom   4Au   ECP group =>   1
Atom   5Au   ECP group =>   1
Atom   6Au   ECP group =>   1
Atom   7Au   ECP group =>   1
Atom   8Au   ECP group =>   1
Atom   9Au   ECP group =>   1
Atom  10Au   ECP group =>   1
Atom  11Au   ECP group =>   1



           ************************************************************
           *        Program running with 6 parallel MPI-processes     *
           *              working on a common directory               *
           ************************************************************
------------------------------------------------------------------------------
                           ORCA GTO INTEGRAL CALCULATION
                           -- RI-GTO INTEGRALS CHOSEN --
------------------------------------------------------------------------------
------------------------------------------------------------------------------
                   ___                                                        
                  /   \      - P O W E R E D   B Y -                         
                 /     \                                                     
                 |  |  |   _    _      __       _____    __    __             
                 |  |  |  | |  | |    /  \     |  _  \  |  |  /  |          
                  \  \/   | |  | |   /    \    | | | |  |  | /  /          
                 / \  \   | |__| |  /  /\  \   | |_| |  |  |/  /          
                |  |  |   |  __  | /  /__\  \  |    /   |      \           
                |  |  |   | |  | | |   __   |  |    \   |  |\   \          
                \     /   | |  | | |  |  |  |  | |\  \  |  | \   \       
                 \___/    |_|  |_| |__|  |__|  |_| \__\ |__|  \__/        
                                                                              
                      - O R C A' S   B I G   F R I E N D -                    
                                      &                                       
                       - I N T E G R A L  F E E D E R -                       
                                                                              
 v1 FN, 2020, v2 2021                                                         
------------------------------------------------------------------------------


Reading SHARK input file nevpt2.SHARKINP.tmp ... ok
----------------------
SHARK INTEGRAL PACKAGE
----------------------

Number of atoms                             ...     13
Number of basis functions                   ...    525
Number of shells                            ...    183
Maximum angular momentum                    ...      3
Integral batch strategy                     ... SHARK/LIBINT Hybrid
RI-J (if used) integral strategy            ... SPLIT-RIJ (Revised 2003 algorithm where possible)
Printlevel                                  ...      1
Contraction scheme used                     ... SEGMENTED contraction
Coulomb Range Separation                    ... NOT USED
Exchange Range Separation                   ... NOT USED
Finite Nucleus Model                        ... NOT USED
Auxiliary Coulomb fitting basis             ... AVAILABLE
   # of basis functions in Aux-J            ...   1157
   # of shells in Aux-J                     ...    299
   Maximum angular momentum in Aux-J        ...      4
Auxiliary J/K fitting basis                 ... NOT available
Auxiliary Correlation fitting basis         ... AVAILABLE
   # of basis functions in Aux-C            ...   1994
   # of shells in Aux-C                     ...    434
   Maximum angular momentum in Aux-C        ...      5
Auxiliary 'external' fitting basis          ... NOT available
Integral threshold                          ...     1.000000e-10
Primitive cut-off                           ...     1.000000e-11
Primitive pair pre-selection threshold      ...     1.000000e-11

Calculating pre-screening integrals         ... done (  0.2 sec) Dimension = 183
Organizing shell pair data                  ... done (  0.6 sec)
Shell pair information
Total number of shell pairs                 ...     16836
Shell pairs after pre-screening             ...     13659
Total number of primitive shell pairs       ...     45389
Primitive shell pairs kept                  ...     26735
          la=0 lb=0:   2133 shell pairs
          la=1 lb=0:   3109 shell pairs
          la=1 lb=1:   1171 shell pairs
          la=2 lb=0:   2719 shell pairs
          la=2 lb=1:   1907 shell pairs
          la=2 lb=2:    786 shell pairs
          la=3 lb=0:    714 shell pairs
          la=3 lb=1:    552 shell pairs
          la=3 lb=2:    490 shell pairs
          la=3 lb=3:     78 shell pairs

Calculating one electron integrals          ... done (  0.1 sec)
Calculating ECP integrals                   ... done ( 15.7 sec)
Calculating RI/J V-Matrix + Cholesky decomp.... done (  0.1 sec)
Calculating RI/C V-Matrix + Cholesky decomp.... done (  0.4 sec)
Calculating Nuclear repulsion               ... done (  0.0 sec) ENN=   4397.210807815461 Eh

SHARK setup successfully completed in  17.6 seconds

Maximum memory used throughout the entire GTOINT-calculation: 39.1 MB


           ************************************************************
           *        Program running with 6 parallel MPI-processes     *
           *              working on a common directory               *
           ************************************************************
-------------------------------------------------------------------------------
                                 ORCA SCF
-------------------------------------------------------------------------------

------------
SCF SETTINGS
------------
Hamiltonian:
 Ab initio Hamiltonian  Method          .... Hartree-Fock(GTOs)
 RI-approximation to the Coulomb term is turned on
   Number of AuxJ basis functions       .... 1157
   RIJ-COSX (HFX calculated with COS-X)).... on


General Settings:
 Integral files         IntName         .... nevpt2
 Hartree-Fock type      HFTyp           .... CASSCF
 Total Charge           Charge          ....    0
 Multiplicity           Mult            ....    5
 Number of Electrons    NEL             ....  254
 Basis Dimension        Dim             ....  525
 Nuclear Repulsion      ENuc            ....   4397.2108078155 Eh


Diagonalization of the overlap matrix:
Smallest eigenvalue                        ... 5.663e-04
Time for diagonalization                   ...    0.111 sec
Threshold for overlap eigenvalues          ... 1.000e-08
Number of eigenvalues below threshold      ... 0
Time for construction of square roots      ...    0.081 sec
Total time needed                          ...    0.194 sec

---------------------
INITIAL GUESS: MOREAD
---------------------
Guess MOs are being read from file: casscf.gbw
Input Geometry matches current geometry (good)
Input basis set matches current basis set (good)
MOs were renormalized
Gram-Schmidt orthogonalization of all MOs with pivot on actives
                      ------------------
                      INITIAL GUESS DONE (  11.0 sec)
                      ------------------
--------------------
COSX GRID GENERATION
--------------------

GRIDX 1
-------
General Integration Accuracy     IntAcc      ... 3.816
Radial Grid Type                 RadialGrid  ... OptM3 with GC (2021)
Angular Grid (max. ang.)         AngularGrid ... 1 (Lebedev-50)
Angular grid pruning method      GridPruning ... 4 (adaptive)
Weight generation scheme         WeightScheme... Becke
Basis function cutoff            BFCut       ... 1.0000e-10
Integration weight cutoff        WCut        ... 1.0000e-14
Angular grids for H and He will be reduced by one unit
Partially contracted basis set               ... on
Rotationally invariant grid construction     ... off

Total number of grid points                  ...    15221
Total number of batches                      ...      245
Average number of points per batch           ...       62
Average number of grid points per atom       ...     1171
UseSFitting                                  ... on

GRIDX 2
-------
General Integration Accuracy     IntAcc      ... 4.020
Radial Grid Type                 RadialGrid  ... OptM3 with GC (2021)
Angular Grid (max. ang.)         AngularGrid ... 2 (Lebedev-110)
Angular grid pruning method      GridPruning ... 4 (adaptive)
Weight generation scheme         WeightScheme... Becke
Basis function cutoff            BFCut       ... 1.0000e-10
Integration weight cutoff        WCut        ... 1.0000e-14
Angular grids for H and He will be reduced by one unit
Partially contracted basis set               ... on
Rotationally invariant grid construction     ... off

Total number of grid points                  ...    45998
Total number of batches                      ...      725
Average number of points per batch           ...       63
Average number of grid points per atom       ...     3538
UseSFitting                                  ... on

GRIDX 3
-------
General Integration Accuracy     IntAcc      ... 4.338
Radial Grid Type                 RadialGrid  ... OptM3 with GC (2021)
Angular Grid (max. ang.)         AngularGrid ... 3 (Lebedev-194)
Angular grid pruning method      GridPruning ... 4 (adaptive)
Weight generation scheme         WeightScheme... Becke
Basis function cutoff            BFCut       ... 1.0000e-10
Integration weight cutoff        WCut        ... 1.0000e-14
Angular grids for H and He will be reduced by one unit
Partially contracted basis set               ... on
Rotationally invariant grid construction     ... off

Total number of grid points                  ...    84141
Total number of batches                      ...     1321
Average number of points per batch           ...       63
Average number of grid points per atom       ...     6472
UseSFitting                                  ... on

Time for X-Grid setup             =    2.337 sec



 ... the calculation is a CASSCF calculation -I'm leaving here GOOD LUCK!!!



           ************************************************************
           *        Program running with 6 parallel MPI-processes     *
           *              working on a common directory               *
           ************************************************************
-------------------------------------------------------------------------------
                              ORCA-CASSCF
-------------------------------------------------------------------------------

Setting up the integral package       ... done
Setting up the integral package (RI)  ... done
Building the CAS space                ... done (5 configurations for Mult=5)
Building the CAS space                ... done (35 configurations for Mult=3)

 CASSCF (estimated) memory needed     ... 113.4 MB
 NEVPT2 (estimated) memory needed     ... 377.6 MB


SYSTEM-SPECIFIC SETTINGS:
Number of active electrons          ...    6
Number of active orbitals           ...    5
Total number of electrons           ...  254
Total number of orbitals            ...  525
Total number aux. functions         ... 1994

Determined orbital ranges:
   Internal       0 -  123 ( 124 orbitals)
   Active       124 -  128 (   5 orbitals)
   External     129 -  524 ( 396 orbitals)
Number of rotation parameters      ...  51704

CI-STEP:
CI strategy                         ... General CI
Number of multiplicity blocks       ...    2
BLOCK  1 WEIGHT=   0.5000
  Multiplicity                      ...    5
  #(Configurations)                 ...    5
  #(CSFs)                           ...    5
  #(Roots)                          ...    5
    ROOT=0 WEIGHT=    0.100000
    ROOT=1 WEIGHT=    0.100000
    ROOT=2 WEIGHT=    0.100000
    ROOT=3 WEIGHT=    0.100000
    ROOT=4 WEIGHT=    0.100000

BLOCK  2 WEIGHT=   0.5000
  Multiplicity                      ...    3
  #(Configurations)                 ...   35
  #(CSFs)                           ...   45
  #(Roots)                          ...   45
    ROOT=0 WEIGHT=    0.011111
    ROOT=1 WEIGHT=    0.011111
    ROOT=2 WEIGHT=    0.011111
    ROOT=3 WEIGHT=    0.011111
    ROOT=4 WEIGHT=    0.011111
    ROOT=5 WEIGHT=    0.011111
    ROOT=6 WEIGHT=    0.011111
    ROOT=7 WEIGHT=    0.011111
    ROOT=8 WEIGHT=    0.011111
    ROOT=9 WEIGHT=    0.011111
    ROOT=10 WEIGHT=    0.011111
    ROOT=11 WEIGHT=    0.011111
    ROOT=12 WEIGHT=    0.011111
    ROOT=13 WEIGHT=    0.011111
    ROOT=14 WEIGHT=    0.011111
    ROOT=15 WEIGHT=    0.011111
    ROOT=16 WEIGHT=    0.011111
    ROOT=17 WEIGHT=    0.011111
    ROOT=18 WEIGHT=    0.011111
    ROOT=19 WEIGHT=    0.011111
    ROOT=20 WEIGHT=    0.011111
    ROOT=21 WEIGHT=    0.011111
    ROOT=22 WEIGHT=    0.011111
    ROOT=23 WEIGHT=    0.011111
    ROOT=24 WEIGHT=    0.011111
    ROOT=25 WEIGHT=    0.011111
    ROOT=26 WEIGHT=    0.011111
    ROOT=27 WEIGHT=    0.011111
    ROOT=28 WEIGHT=    0.011111
    ROOT=29 WEIGHT=    0.011111
    ROOT=30 WEIGHT=    0.011111
    ROOT=31 WEIGHT=    0.011111
    ROOT=32 WEIGHT=    0.011111
    ROOT=33 WEIGHT=    0.011111
    ROOT=34 WEIGHT=    0.011111
    ROOT=35 WEIGHT=    0.011111
    ROOT=36 WEIGHT=    0.011111
    ROOT=37 WEIGHT=    0.011111
    ROOT=38 WEIGHT=    0.011111
    ROOT=39 WEIGHT=    0.011111
    ROOT=40 WEIGHT=    0.011111
    ROOT=41 WEIGHT=    0.011111
    ROOT=42 WEIGHT=    0.011111
    ROOT=43 WEIGHT=    0.011111
    ROOT=44 WEIGHT=    0.011111

  PrintLevel                        ...    1
  N(GuessMat)                       ...       512
  MaxDim(CI)                        ...        10
  MaxIter(CI)                       ...        64
  Energy Tolerance CI               ...  1.00e-08
  Residual Tolerance CI             ...  1.00e-08
  Shift(CI)                         ...  1.00e-04

INTEGRAL-TRANSFORMATION-STEP:
  Algorithm                         ... RI-MO

ORBITAL-IMPROVEMENT-STEP:
  Algorithm                         ... SuperCI(PT)
  Default Parametrization           ... CAYLEY
  Act-Act rotations                 ... depends on algorithm used

  Note: SuperCI(PT) will ignore FreezeIE, FreezeAct and FreezeGrad. In general Default settings are encouraged.
        In conjunction with ShiftUp, ShiftDn or GradScaling the performance of SuperCI(PT) is less optimal.  

  MaxRot                            ... 2.00e-01 
  Max. no of vectors (DIIS)         ... 15
  DThresh (cut-off) metric          ... 1.00e-06
  Switch step at gradient           ...  3.00e-02 
  Switch step at iteration          ...        50   
  Switch step to                    ... SuperCI(PT)    

SCF-SETTINGS:
  Incremental                       ... off
  RIJCOSX approximation             ... on
  UseFinalGrid                      ... on
  RI-JK approximation               ... off
  AO integral handling              ... DIRECT
  Integral Neglect Thresh           ...  1.00e-10
  Primitive cutoff TCut             ...  1.00e-11
  Energy convergence tolerance      ...  1.00e-07
  Orbital gradient convergence      ...  1.00e-03
  Max. number of iterations         ...        75  

PT2-SETTINGS:
  A PT2 calculation will be performed on top of the CASSCF wave function (PT2 = SC-NEVPT2)   
 CI step strategy                   ... General CI
  D4C handling                      ... on the fly 
  CI truncation for D4C at          ...  1.00e-14
  CI truncation for D3  at          ...  1.00e-14
  Orbitals                          ... canonical for each state 
  Last  frozen  orbital             ... 4
  First deleted orbital             ... 525
  RI Step                           ... store IJV(array) (MC_ONDISK during integral transformation) 

PROPERTIES-SETTINGS:
  Spin orbit coupling               ... true
  GTensor                           ... true
  QDPT diagonal energies            ... NEVPT2 energies 

FINAL ORBITALS:
  Active   Orbitals                 ... natural 
  Internal Orbitals                 ... canonical 
  External Orbitals                 ... canonical 

------------------
CAS-SCF ITERATIONS
------------------


MACRO-ITERATION   1: 
   --- Inactive Energy E0 = -2864.30364397 Eh
CI-ITERATION   0: 
 -2880.181868920   0.000000000000 (    0.00)
 -2880.180419359   0.000000000000
 -2880.177500501   0.000000000000
 -2880.174764235   0.000000000000
 -2880.174535629   0.000000000000
   CI-PROBLEM SOLVED
   DENSITIES MADE
CI-ITERATION   0: 
 -2880.088082060   0.000000000000 (    0.00)
 -2880.087598009   0.000000000000
 -2880.086668734   0.000000000000
 -2880.086350341   0.000000000000
 -2880.085066522   0.000000000000
 -2880.083461103   0.000000000000
 -2880.082268321   0.000000000000
 -2880.082190424   0.000000000000
 -2880.081696485   0.000000000000
 -2880.079915851   0.000000000000
 -2880.079839616   0.000000000000
 -2880.073739829   0.000000000000
 -2880.072973289   0.000000000000
 -2880.072680146   0.000000000000
 -2880.069983050   0.000000000000
 -2880.069763900   0.000000000000
 -2880.067788422   0.000000000000
 -2880.067545034   0.000000000000
 -2880.065677818   0.000000000000
 -2880.065268443   0.000000000000
 -2880.064346072   0.000000000000
 -2880.060717865   0.000000000000
 -2880.059972056   0.000000000000
 -2880.059759954   0.000000000000
 -2880.058453313   0.000000000000
 -2880.055796656   0.000000000000
 -2880.055361260   0.000000000000
 -2880.053678496   0.000000000000
 -2880.053619956   0.000000000000
 -2880.053155957   0.000000000000
 -2880.024640377   0.000000000000
 -2880.023042740   0.000000000000
 -2880.021965610   0.000000000000
 -2880.020507598   0.000000000000
 -2880.019263172   0.000000000000
 -2879.922027409   0.000000000000
 -2879.921402066   0.000000000000
 -2879.920774805   0.000000000000
 -2879.919744495   0.000000000000
 -2879.919236859   0.000000000000
 -2879.918741800   0.000000000000
 -2879.918014728   0.000000000000
 -2879.914969953   0.000000000000
 -2879.914098660   0.000000000000
 -2879.912259096   0.000000000000
   CI-PROBLEM SOLVED
   DENSITIES MADE

                 <<<<<<<<<<<<<<<<<<INITIAL CI STATE CHECK>>>>>>>>>>>>>>>>>>

BLOCK  1 MULT= 5 NROOTS= 5 
ROOT   0:  E=   -2880.1818689197 Eh
      0.51222 [     0]: 11112
      0.44713 [     1]: 11121
      0.03549 [     2]: 11211
      0.00515 [     4]: 21111
ROOT   1:  E=   -2880.1804193593 Eh  0.039 eV    318.1 cm**-1
      0.87297 [     4]: 21111
      0.10405 [     2]: 11211
      0.02187 [     0]: 11112
ROOT   2:  E=   -2880.1775005012 Eh  0.119 eV    958.8 cm**-1
      0.48326 [     1]: 11121
      0.46456 [     0]: 11112
      0.03127 [     2]: 11211
      0.02086 [     4]: 21111
ROOT   3:  E=   -2880.1747642355 Eh  0.193 eV   1559.3 cm**-1
      0.80455 [     2]: 11211
      0.09864 [     4]: 21111
      0.06592 [     1]: 11121
      0.02963 [     3]: 12111
ROOT   4:  E=   -2880.1745356291 Eh  0.200 eV   1609.5 cm**-1
      0.97029 [     3]: 12111
      0.02463 [     2]: 11211
      0.00260 [     1]: 11121

BLOCK  2 MULT= 3 NROOTS=45 
ROOT   0:  E=   -2880.0880820596 Eh
      0.30671 [    23]: 20121
      0.16584 [    22]: 20112
      0.12396 [    11]: 11121
      0.09194 [    10]: 11112
      0.06979 [    24]: 20211
      0.03818 [     8]: 10221
      0.03432 [     7]: 10212
      0.02371 [    33]: 22101
      0.02331 [     4]: 02121
      0.02194 [    34]: 22110
      0.01993 [    13]: 11211
      0.01040 [     1]: 01212
      0.00933 [     5]: 02211
      0.00919 [    25]: 21012
      0.00691 [     9]: 11022
      0.00650 [     0]: 01122
      0.00529 [    12]: 11202
      0.00486 [    28]: 21111
      0.00433 [     3]: 02112
      0.00415 [    32]: 22011
      0.00414 [    21]: 12210
      0.00318 [    20]: 12201
ROOT   1:  E=   -2880.0875980093 Eh  0.013 eV    106.2 cm**-1
      0.28032 [     6]: 10122
      0.18123 [    28]: 21111
      0.14531 [    26]: 21021
      0.07154 [    11]: 11121
      0.05263 [    10]: 11112
      0.04082 [    25]: 21012
      0.03245 [    13]: 11211
      0.02994 [    19]: 12120
      0.02646 [    17]: 12102
      0.01877 [     1]: 01212
      0.01823 [    29]: 21120
      0.01628 [    16]: 12021
      0.01466 [     2]: 01221
      0.01347 [     8]: 10221
      0.01038 [    23]: 20121
      0.00883 [    30]: 21201
      0.00865 [     0]: 01122
      0.00536 [    18]: 12111
      0.00485 [    21]: 12210
      0.00462 [     7]: 10212
      0.00385 [     4]: 02121
      0.00279 [    27]: 21102
ROOT   2:  E=   -2880.0866687345 Eh  0.038 eV    310.2 cm**-1
      0.15404 [    26]: 21021
      0.14179 [     7]: 10212
      0.10083 [    11]: 11121
      0.08688 [    28]: 21111
      0.07800 [     0]: 01122
      0.07048 [    30]: 21201
      0.05525 [    15]: 12012
      0.05208 [    29]: 21120
      0.03807 [    31]: 21210
      0.03558 [     9]: 11022
      0.02971 [    25]: 21012
      0.02554 [     8]: 10221
      0.02170 [    27]: 21102
      0.01938 [    22]: 20112
      0.01513 [    13]: 11211
      0.01344 [    18]: 12111
      0.01069 [    14]: 11220
      0.00938 [    12]: 11202
      0.00828 [    16]: 12021
      0.00663 [    10]: 11112
      0.00656 [     3]: 02112
      0.00512 [    24]: 20211
      0.00370 [     1]: 01212
      0.00334 [    21]: 12210
ROOT   3:  E=   -2880.0863503411 Eh  0.047 eV    380.1 cm**-1
      0.21109 [     9]: 11022
      0.11769 [    10]: 11112
      0.10569 [    11]: 11121
      0.07348 [    26]: 21021
      0.07123 [    13]: 11211
      0.05610 [    12]: 11202
      0.05049 [    23]: 20121
      0.04931 [     0]: 01122
      0.04631 [     2]: 01221
      0.04301 [    22]: 20112
      0.03203 [    24]: 20211
      0.02242 [     1]: 01212
      0.01636 [    28]: 21111
      0.01597 [    32]: 22011
      0.01287 [     7]: 10212
      0.01057 [    14]: 11220
      0.00957 [    29]: 21120
      0.00848 [     4]: 02121
      0.00759 [    33]: 22101
      0.00739 [    27]: 21102
      0.00569 [    25]: 21012
      0.00470 [    31]: 21210
      0.00457 [     8]: 10221
      0.00367 [    18]: 12111
      0.00252 [     6]: 10122
ROOT   4:  E=   -2880.0850665219 Eh  0.082 eV    661.8 cm**-1
      0.48034 [    28]: 21111
      0.16183 [     6]: 10122
      0.06635 [    13]: 11211
      0.06500 [     8]: 10221
      0.03463 [    29]: 21120
      0.02740 [    19]: 12120
      0.02603 [    18]: 12111
      0.02280 [     7]: 10212
      0.02056 [    27]: 21102
      0.01514 [    21]: 12210
      0.01447 [    10]: 11112
      0.01089 [    11]: 11121
      0.00789 [    31]: 21210
      0.00565 [    14]: 11220
      0.00517 [    16]: 12021
      0.00481 [     1]: 01212
      0.00453 [    22]: 20112
      0.00404 [    20]: 12201
      0.00395 [    12]: 11202
      0.00390 [     0]: 01122
      0.00384 [    30]: 21201
ROOT   5:  E=   -2880.0834611034 Eh  0.126 eV   1014.2 cm**-1
      0.38285 [    10]: 11112
      0.20106 [    11]: 11121
      0.07735 [    13]: 11211
      0.04801 [    22]: 20112
      0.03515 [     9]: 11022
      0.02908 [    34]: 22110
      0.02886 [    25]: 21012
      0.02851 [     1]: 01212
      0.02617 [    12]: 11202
      0.02597 [    23]: 20121
      0.02063 [    28]: 21111
      0.01838 [     5]: 02211
      0.01668 [    24]: 20211
      0.01573 [    14]: 11220
      0.00943 [     3]: 02112
      0.00641 [    33]: 22101
      0.00577 [     0]: 01122
      0.00542 [    18]: 12111
      0.00340 [    29]: 21120
      0.00259 [    27]: 21102
ROOT   6:  E=   -2880.0822683208 Eh  0.158 eV   1276.0 cm**-1
      0.26146 [    13]: 11211
      0.24345 [    11]: 11121
      0.07095 [     9]: 11022
      0.06273 [    10]: 11112
      0.06059 [    12]: 11202
      0.05183 [    33]: 22101
      0.04224 [    32]: 22011
      0.03523 [    28]: 21111
      0.03372 [     4]: 02121
      0.02098 [    18]: 12111
      0.01882 [    22]: 20112
      0.01601 [    29]: 21120
      0.01507 [     2]: 01221
      0.01084 [     3]: 02112
      0.00888 [    14]: 11220
      0.00832 [    27]: 21102
      0.00645 [    20]: 12201
      0.00604 [    26]: 21021
      0.00592 [     5]: 02211
      0.00469 [    16]: 12021
      0.00356 [    23]: 20121
      0.00313 [    34]: 22110
      0.00256 [     7]: 10212
ROOT   7:  E=   -2880.0821904238 Eh  0.160 eV   1293.1 cm**-1
      0.22999 [    28]: 21111
      0.11453 [    20]: 12201
      0.09713 [    16]: 12021
      0.08808 [     7]: 10212
      0.07759 [     6]: 10122
      0.05397 [    27]: 21102
      0.05090 [     8]: 10221
      0.04341 [    15]: 12012
      0.04017 [    29]: 21120
      0.03548 [    18]: 12111
      0.02183 [    19]: 12120
      0.01918 [    13]: 11211
      0.01439 [    23]: 20121
      0.01374 [    31]: 21210
      0.01350 [    33]: 22101
      0.00900 [     0]: 01122
      0.00880 [    11]: 11121
      0.00868 [     2]: 01221
      0.00811 [     4]: 02121
      0.00803 [    14]: 11220
      0.00779 [    22]: 20112
      0.00596 [    12]: 11202
      0.00568 [    26]: 21021
      0.00427 [     5]: 02211
      0.00338 [    10]: 11112
      0.00319 [    30]: 21201
      0.00263 [     1]: 01212
ROOT   8:  E=   -2880.0816964850 Eh  0.174 eV   1401.5 cm**-1
      0.23752 [    18]: 12111
      0.09129 [    26]: 21021
      0.08936 [     7]: 10212
      0.07729 [    30]: 21201
      0.07524 [     6]: 10122
      0.06610 [    29]: 21120
      0.04601 [    17]: 12102
      0.04485 [    25]: 21012
      0.04240 [     0]: 01122
      0.04032 [    21]: 12210
      0.04007 [    10]: 11112
      0.02302 [    19]: 12120
      0.02043 [     1]: 01212
      0.01748 [    28]: 21111
      0.01277 [    22]: 20112
      0.00974 [    11]: 11121
      0.00886 [    14]: 11220
      0.00827 [    32]: 22011
      0.00801 [    34]: 22110
      0.00648 [    20]: 12201
      0.00643 [     2]: 01221
      0.00592 [    13]: 11211
      0.00527 [     5]: 02211
      0.00468 [     8]: 10221
      0.00259 [    15]: 12012
ROOT   9:  E=   -2880.0799158510 Eh  0.222 eV   1792.3 cm**-1
      0.19354 [    18]: 12111
      0.10815 [    31]: 21210
      0.09625 [    28]: 21111
      0.05624 [    13]: 11211
      0.05464 [    32]: 22011
      0.05117 [     5]: 02211
      0.05089 [     1]: 01212
      0.04837 [    15]: 12012
      0.04830 [    10]: 11112
      0.04246 [    11]: 11121
      0.03970 [    30]: 21201
      0.03127 [     3]: 02112
      0.02828 [    29]: 21120
      0.02382 [    34]: 22110
      0.02287 [    21]: 12210
      0.02110 [    16]: 12021
      0.01886 [     2]: 01221
      0.01835 [    26]: 21021
      0.01089 [     0]: 01122
      0.00581 [    19]: 12120
      0.00578 [    14]: 11220
      0.00538 [    27]: 21102
      0.00514 [     9]: 11022
      0.00376 [    17]: 12102
      0.00264 [    25]: 21012
ROOT  10:  E=   -2880.0798396162 Eh  0.224 eV   1809.0 cm**-1
      0.19823 [    13]: 11211
      0.12346 [    34]: 22110
      0.11876 [    18]: 12111
      0.07765 [    11]: 11121
      0.06906 [    32]: 22011
      0.06654 [    10]: 11112
      0.06148 [     3]: 02112
      0.05393 [     1]: 01212
      0.04353 [    28]: 21111
      0.02626 [    21]: 12210
      0.02557 [     5]: 02211
      0.02110 [    15]: 12012
      0.02088 [    26]: 21021
      0.01807 [    25]: 21012
      0.01799 [     2]: 01221
      0.01074 [    31]: 21210
      0.00821 [    24]: 20211
      0.00707 [     9]: 11022
      0.00704 [    12]: 11202
      0.00696 [     0]: 01122
      0.00451 [    14]: 11220
      0.00377 [    29]: 21120
      0.00360 [     4]: 02121
      0.00313 [    33]: 22101
ROOT  11:  E=   -2880.0737398289 Eh  0.390 eV   3147.8 cm**-1
      0.19753 [     0]: 01122
      0.15027 [    26]: 21021
      0.14326 [    27]: 21102
      0.09625 [    18]: 12111
      0.05858 [     8]: 10221
      0.04496 [    30]: 21201
      0.04107 [    29]: 21120
      0.03667 [    20]: 12201
      0.03654 [     2]: 01221
      0.03398 [    28]: 21111
      0.02763 [    12]: 11202
      0.02349 [     7]: 10212
      0.01685 [    31]: 21210
      0.01332 [    17]: 12102
      0.01100 [    32]: 22011
      0.00962 [     5]: 02211
      0.00878 [    23]: 20121
      0.00839 [    11]: 11121
      0.00749 [     9]: 11022
      0.00683 [    19]: 12120
      0.00663 [     1]: 01212
      0.00354 [     6]: 10122
      0.00308 [    16]: 12021
      0.00277 [    22]: 20112
      0.00253 [     3]: 02112
ROOT  12:  E=   -2880.0729732888 Eh  0.411 eV   3316.0 cm**-1
      0.23779 [    13]: 11211
      0.14958 [     9]: 11022
      0.13531 [    11]: 11121
      0.13234 [    12]: 11202
      0.06912 [    23]: 20121
      0.06180 [    10]: 11112
      0.04111 [    33]: 22101
      0.03373 [    34]: 22110
      0.02665 [    22]: 20112
      0.02399 [    14]: 11220
      0.02029 [    27]: 21102
      0.01563 [    28]: 21111
      0.00978 [     3]: 02112
      0.00908 [     8]: 10221
      0.00483 [    20]: 12201
      0.00469 [    30]: 21201
      0.00351 [     7]: 10212
      0.00320 [    21]: 12210
      0.00260 [     4]: 02121
ROOT  13:  E=   -2880.0726801457 Eh  0.419 eV   3380.3 cm**-1
      0.19453 [     1]: 01212
      0.18588 [    28]: 21111
      0.14214 [    29]: 21120
      0.08997 [    18]: 12111
      0.06884 [    30]: 21201
      0.06105 [     6]: 10122
      0.05040 [    16]: 12021
      0.03455 [     2]: 01221
      0.02560 [    26]: 21021
      0.02174 [    11]: 11121
      0.01567 [    19]: 12120
      0.01348 [    17]: 12102
      0.01336 [    10]: 11112
      0.01015 [    14]: 11220
      0.01002 [    31]: 21210
      0.00900 [    25]: 21012
      0.00782 [     5]: 02211
      0.00757 [    27]: 21102
      0.00632 [    13]: 11211
      0.00607 [     7]: 10212
      0.00553 [    32]: 22011
      0.00503 [    20]: 12201
      0.00328 [     0]: 01122
      0.00294 [     8]: 10221
ROOT  14:  E=   -2880.0699830497 Eh  0.492 eV   3972.3 cm**-1
      0.14705 [    28]: 21111
      0.13975 [    16]: 12021
      0.13041 [    31]: 21210
      0.09236 [    18]: 12111
      0.08840 [    21]: 12210
      0.05902 [     8]: 10221
      0.04857 [    25]: 21012
      0.04551 [     7]: 10212
      0.04452 [    20]: 12201
      0.03479 [     6]: 10122
      0.02522 [    13]: 11211
      0.01930 [    19]: 12120
      0.01616 [    30]: 21201
      0.01518 [     4]: 02121
      0.01503 [    34]: 22110
      0.01325 [    10]: 11112
      0.01127 [     1]: 01212
      0.00932 [    29]: 21120
      0.00708 [    22]: 20112
      0.00687 [    33]: 22101
      0.00571 [    17]: 12102
      0.00468 [    15]: 12012
      0.00462 [    26]: 21021
      0.00416 [    11]: 11121
      0.00300 [    24]: 20211
ROOT  15:  E=   -2880.0697638998 Eh  0.498 eV   4020.4 cm**-1
      0.27444 [    10]: 11112
      0.20714 [    11]: 11121
      0.14067 [    13]: 11211
      0.05356 [    12]: 11202
      0.03856 [    23]: 20121
      0.03776 [    24]: 20211
      0.03611 [    14]: 11220
      0.02742 [    34]: 22110
      0.02194 [    28]: 21111
      0.01648 [    22]: 20112
      0.01600 [     5]: 02211
      0.01476 [    26]: 21021
      0.01448 [    32]: 22011
      0.01326 [    25]: 21012
      0.01170 [     4]: 02121
      0.01164 [    33]: 22101
      0.00917 [     2]: 01221
      0.00909 [    21]: 12210
      0.00780 [     7]: 10212
      0.00736 [    27]: 21102
      0.00694 [    31]: 21210
      0.00401 [    16]: 12021
      0.00265 [     3]: 02112
ROOT  16:  E=   -2880.0677884222 Eh  0.552 eV   4453.9 cm**-1
      0.28555 [    34]: 22110
      0.08188 [    13]: 11211
      0.07697 [     9]: 11022
      0.07314 [    24]: 20211
      0.05853 [    32]: 22011
      0.05791 [    33]: 22101
      0.05479 [    12]: 11202
      0.04823 [    18]: 12111
      0.03047 [    21]: 12210
      0.02859 [    11]: 11121
      0.02539 [    23]: 20121
      0.01927 [     0]: 01122
      0.01874 [    10]: 11112
      0.01801 [    28]: 21111
      0.01713 [     1]: 01212
      0.01567 [     5]: 02211
      0.01465 [    26]: 21021
      0.00946 [    20]: 12201
      0.00925 [    25]: 21012
      0.00893 [     4]: 02121
      0.00695 [     3]: 02112
      0.00692 [    27]: 21102
      0.00594 [     2]: 01221
      0.00496 [     8]: 10221
      0.00463 [    15]: 12012
      0.00349 [    31]: 21210
      0.00348 [    29]: 21120
      0.00295 [    16]: 12021
ROOT  17:  E=   -2880.0675450336 Eh  0.559 eV   4507.4 cm**-1
      0.19470 [    18]: 12111
      0.14251 [    20]: 12201
      0.13143 [    28]: 21111
      0.09636 [    16]: 12021
      0.07867 [     6]: 10122
      0.06782 [    19]: 12120
      0.02921 [    31]: 21210
      0.02660 [     5]: 02211
      0.02168 [    32]: 22011
      0.02129 [     8]: 10221
      0.02091 [    29]: 21120
      0.01946 [     1]: 01212
      0.01946 [    13]: 11211
      0.01692 [    15]: 12012
      0.01645 [    33]: 22101
      0.01170 [    27]: 21102
      0.01128 [    17]: 12102
      0.01070 [    34]: 22110
      0.01028 [    23]: 20121
      0.01022 [    25]: 21012
      0.00944 [     0]: 01122
      0.00771 [     7]: 10212
      0.00584 [     4]: 02121
      0.00396 [    30]: 21201
      0.00393 [    12]: 11202
      0.00345 [    10]: 11112
      0.00263 [     3]: 02112
ROOT  18:  E=   -2880.0656778180 Eh  0.610 eV   4917.2 cm**-1
      0.26084 [     3]: 02112
      0.15199 [     5]: 02211
      0.13861 [    11]: 11121
      0.10956 [    10]: 11112
      0.10080 [    13]: 11211
      0.06109 [    32]: 22011
      0.03002 [    12]: 11202
      0.02945 [    22]: 20112
      0.02191 [    18]: 12111
      0.01728 [    15]: 12012
      0.01107 [    28]: 21111
      0.01094 [    34]: 22110
      0.00870 [    23]: 20121
      0.00769 [    33]: 22101
      0.00626 [    25]: 21012
      0.00462 [     9]: 11022
      0.00420 [    26]: 21021
      0.00401 [     4]: 02121
      0.00382 [    27]: 21102
      0.00315 [     1]: 01212
      0.00257 [     2]: 01221
ROOT  19:  E=   -2880.0652684426 Eh  0.621 eV   5007.0 cm**-1
      0.18103 [     1]: 01212
      0.17447 [    18]: 12111
      0.12950 [     0]: 01122
      0.07084 [    17]: 12102
      0.04426 [    10]: 11112
      0.04414 [    30]: 21201
      0.03993 [    19]: 12120
      0.03966 [     7]: 10212
      0.03548 [    11]: 11121
      0.02788 [    21]: 12210
      0.02519 [    15]: 12012
      0.02412 [    34]: 22110
      0.02328 [     9]: 11022
      0.02017 [    28]: 21111
      0.01856 [     2]: 01221
      0.01784 [    26]: 21021
      0.01592 [    29]: 21120
      0.01579 [     3]: 02112
      0.00951 [    16]: 12021
      0.00815 [    20]: 12201
      0.00713 [    33]: 22101
      0.00668 [    32]: 22011
      0.00446 [     5]: 02211
      0.00379 [     6]: 10122
      0.00358 [    22]: 20112
      0.00271 [    13]: 11211
      0.00257 [     8]: 10221
ROOT  20:  E=   -2880.0643460719 Eh  0.646 eV   5209.4 cm**-1
      0.26497 [    20]: 12201
      0.19954 [    18]: 12111
      0.09389 [    15]: 12012
      0.09092 [    17]: 12102
      0.05824 [     7]: 10212
      0.04354 [    30]: 21201
      0.03527 [    26]: 21021
      0.02442 [    28]: 21111
      0.02438 [     0]: 01122
      0.02316 [    16]: 12021
      0.02076 [    27]: 21102
      0.01966 [     8]: 10221
      0.01918 [    33]: 22101
      0.01801 [     2]: 01221
      0.00873 [     6]: 10122
      0.00826 [    21]: 12210
      0.00756 [    22]: 20112
      0.00743 [    12]: 11202
      0.00648 [    29]: 21120
      0.00453 [     3]: 02112
      0.00379 [    13]: 11211
      0.00360 [    23]: 20121
      0.00308 [    25]: 21012
ROOT  21:  E=   -2880.0607178648 Eh  0.745 eV   6005.7 cm**-1
      0.09827 [    23]: 20121
      0.09625 [    10]: 11112
      0.09453 [    13]: 11211
      0.08179 [    34]: 22110
      0.07382 [    22]: 20112
      0.06671 [    14]: 11220
      0.06445 [    11]: 11121
      0.06226 [    24]: 20211
      0.05691 [    32]: 22011
      0.05493 [     9]: 11022
      0.05474 [    33]: 22101
      0.02605 [     4]: 02121
      0.02345 [     1]: 01212
      0.01923 [    25]: 21012
      0.01876 [     7]: 10212
      0.01781 [    29]: 21120
      0.01519 [     0]: 01122
      0.01112 [    21]: 12210
      0.00981 [     8]: 10221
      0.00956 [    28]: 21111
      0.00731 [    18]: 12111
      0.00670 [     3]: 02112
      0.00617 [    20]: 12201
      0.00517 [    15]: 12012
      0.00300 [    26]: 21021
      0.00292 [    12]: 11202
      0.00278 [     6]: 10122
      0.00270 [     2]: 01221
ROOT  22:  E=   -2880.0599720558 Eh  0.765 eV   6169.4 cm**-1
      0.17373 [    28]: 21111
      0.10191 [    10]: 11112
      0.08643 [    25]: 21012
      0.06723 [     1]: 01212
      0.06340 [     7]: 10212
      0.05674 [    29]: 21120
      0.05627 [     6]: 10122
      0.05296 [     0]: 01122
      0.04817 [    18]: 12111
      0.03935 [    19]: 12120
      0.03855 [    11]: 11121
      0.03256 [    31]: 21210
      0.03007 [     2]: 01221
      0.02536 [    15]: 12012
      0.02317 [    13]: 11211
      0.01633 [    17]: 12102
      0.01385 [    21]: 12210
      0.01216 [     8]: 10221
      0.01202 [    14]: 11220
      0.00963 [    22]: 20112
      0.00720 [     9]: 11022
      0.00674 [    20]: 12201
      0.00507 [    23]: 20121
      0.00342 [    34]: 22110
      0.00299 [     3]: 02112
      0.00266 [     4]: 02121
      0.00255 [    16]: 12021
      0.00252 [    26]: 21021
ROOT  23:  E=   -2880.0597599542 Eh  0.771 eV   6216.0 cm**-1
      0.34266 [    11]: 11121
      0.18936 [    10]: 11112
      0.07369 [     9]: 11022
      0.05444 [    12]: 11202
      0.05057 [    33]: 22101
      0.04623 [    24]: 20211
      0.04091 [     2]: 01221
      0.03088 [    26]: 21021
      0.02900 [    13]: 11211
      0.02518 [    32]: 22011
      0.02274 [    23]: 20121
      0.01474 [    25]: 21012
      0.01179 [     1]: 01212
      0.00936 [    34]: 22110
      0.00875 [     5]: 02211
      0.00749 [    28]: 21111
      0.00666 [    27]: 21102
      0.00661 [    14]: 11220
      0.00625 [    20]: 12201
      0.00386 [     4]: 02121
      0.00349 [     8]: 10221
      0.00294 [     3]: 02112
      0.00253 [     0]: 01122
ROOT  24:  E=   -2880.0584533127 Eh  0.806 eV   6502.8 cm**-1
      0.38597 [    13]: 11211
      0.26059 [    10]: 11112
      0.12631 [    11]: 11121
      0.06061 [    24]: 20211
      0.04854 [    28]: 21111
      0.02319 [    33]: 22101
      0.01526 [     5]: 02211
      0.01498 [    32]: 22011
      0.01346 [    23]: 20121
      0.01098 [     1]: 01212
      0.00955 [    25]: 21012
      0.00505 [    34]: 22110
      0.00379 [    29]: 21120
      0.00318 [    20]: 12201
      0.00298 [     4]: 02121
ROOT  25:  E=   -2880.0557966561 Eh  0.879 eV   7085.8 cm**-1
      0.33965 [    18]: 12111
      0.10833 [    29]: 21120
      0.08531 [    19]: 12120
      0.08071 [    28]: 21111
      0.04520 [    30]: 21201
      0.04056 [    31]: 21210
      0.03517 [    32]: 22011
      0.03387 [     5]: 02211
      0.03311 [     0]: 01122
      0.03265 [    26]: 21021
      0.03003 [    20]: 12201
      0.02443 [    25]: 21012
      0.01594 [    13]: 11211
      0.01561 [    14]: 11220
      0.01402 [    27]: 21102
      0.01356 [     6]: 10122
      0.01040 [    11]: 11121
      0.00841 [    15]: 12012
      0.00554 [    12]: 11202
      0.00522 [    33]: 22101
      0.00517 [     1]: 01212
      0.00447 [    10]: 11112
      0.00437 [     4]: 02121
ROOT  26:  E=   -2880.0553612604 Eh  0.890 eV   7181.4 cm**-1
      0.33391 [    21]: 12210
      0.23444 [    28]: 21111
      0.13351 [    18]: 12111
      0.05974 [    15]: 12012
      0.03758 [    30]: 21201
      0.03368 [    13]: 11211
      0.03279 [     7]: 10212
      0.03085 [    34]: 22110
      0.02390 [    19]: 12120
      0.01476 [    25]: 21012
      0.00937 [    16]: 12021
      0.00835 [     1]: 01212
      0.00610 [    31]: 21210
      0.00529 [    27]: 21102
      0.00511 [     4]: 02121
      0.00456 [    29]: 21120
      0.00442 [     3]: 02112
      0.00423 [    10]: 11112
      0.00353 [    22]: 20112
      0.00307 [     6]: 10122
ROOT  27:  E=   -2880.0536784957 Eh  0.936 eV   7550.7 cm**-1
      0.16998 [     5]: 02211
      0.13523 [    10]: 11112
      0.09627 [    18]: 12111
      0.09603 [    11]: 11121
      0.09419 [    13]: 11211
      0.07944 [    12]: 11202
      0.05904 [     4]: 02121
      0.05297 [    34]: 22110
      0.04315 [    32]: 22011
      0.04151 [     3]: 02112
      0.02517 [    14]: 11220
      0.01614 [    28]: 21111
      0.01240 [     9]: 11022
      0.01210 [    29]: 21120
      0.00999 [    24]: 20211
      0.00891 [    25]: 21012
      0.00817 [    16]: 12021
      0.00796 [    23]: 20121
      0.00715 [    33]: 22101
      0.00645 [    27]: 21102
      0.00325 [    30]: 21201
      0.00272 [    31]: 21210
ROOT  28:  E=   -2880.0536199559 Eh  0.938 eV   7563.6 cm**-1
      0.13785 [    20]: 12201
      0.12826 [    17]: 12102
      0.12670 [    18]: 12111
      0.08070 [    31]: 21210
      0.06281 [     0]: 01122
      0.06018 [    19]: 12120
      0.05473 [     2]: 01221
      0.03842 [    30]: 21201
      0.03738 [    27]: 21102
      0.03190 [    32]: 22011
      0.02979 [    21]: 12210
      0.02877 [    33]: 22101
      0.02743 [     1]: 01212
      0.01933 [    28]: 21111
      0.01917 [     5]: 02211
      0.01636 [    16]: 12021
      0.01201 [     7]: 10212
      0.01151 [    13]: 11211
      0.01131 [    12]: 11202
      0.00977 [    11]: 11121
      0.00885 [    29]: 21120
      0.00847 [     8]: 10221
      0.00802 [     6]: 10122
      0.00770 [    10]: 11112
      0.00770 [     9]: 11022
      0.00490 [     4]: 02121
ROOT  29:  E=   -2880.0531559566 Eh  0.950 eV   7665.4 cm**-1
      0.17581 [    13]: 11211
      0.17581 [    33]: 22101
      0.13928 [     4]: 02121
      0.07717 [    10]: 11112
      0.06923 [     5]: 02211
      0.06368 [    12]: 11202
      0.05176 [    11]: 11121
      0.05077 [    18]: 12111
      0.03192 [    14]: 11220
      0.02857 [    28]: 21111
      0.02215 [    32]: 22011
      0.02197 [     3]: 02112
      0.01778 [    20]: 12201
      0.01533 [    16]: 12021
      0.00919 [    27]: 21102
      0.00796 [    31]: 21210
      0.00706 [    15]: 12012
      0.00537 [     0]: 01122
      0.00472 [     1]: 01212
      0.00420 [    22]: 20112
      0.00369 [    17]: 12102
      0.00360 [    24]: 20211
      0.00322 [    19]: 12120
ROOT  30:  E=   -2880.0246403774 Eh  1.726 eV  13923.8 cm**-1
      0.28906 [    10]: 11112
      0.18723 [    11]: 11121
      0.08731 [    24]: 20211
      0.08648 [    13]: 11211
      0.06443 [    23]: 20121
      0.06090 [    14]: 11220
      0.04173 [    32]: 22011
      0.02147 [    22]: 20112
      0.01846 [    12]: 11202
      0.01638 [    33]: 22101
      0.01629 [    34]: 22110
      0.01611 [     9]: 11022
      0.01287 [    28]: 21111
      0.01164 [    26]: 21021
      0.01070 [     2]: 01221
      0.00827 [    25]: 21012
      0.00695 [     4]: 02121
      0.00678 [     7]: 10212
      0.00583 [    29]: 21120
      0.00555 [     8]: 10221
      0.00466 [     1]: 01212
      0.00457 [    18]: 12111
      0.00450 [     5]: 02211
ROOT  31:  E=   -2880.0230427399 Eh  1.770 eV  14274.5 cm**-1
      0.14530 [    18]: 12111
      0.13324 [     8]: 10221
      0.11466 [    25]: 21012
      0.11009 [    16]: 12021
      0.10844 [    31]: 21210
      0.08236 [    28]: 21111
      0.06490 [    17]: 12102
      0.04776 [    21]: 12210
      0.03429 [     7]: 10212
      0.02889 [    10]: 11112
      0.02268 [    19]: 12120
      0.02061 [     4]: 02121
      0.01353 [    30]: 21201
      0.01288 [    13]: 11211
      0.01167 [     6]: 10122
      0.01125 [    23]: 20121
      0.00570 [     5]: 02211
      0.00484 [     2]: 01221
      0.00416 [    26]: 21021
      0.00381 [    27]: 21102
      0.00368 [    32]: 22011
      0.00295 [    15]: 12012
      0.00256 [    22]: 20112
ROOT  32:  E=   -2880.0219656095 Eh  1.799 eV  14510.9 cm**-1
      0.22245 [    11]: 11121
      0.13041 [    13]: 11211
      0.12325 [     3]: 02112
      0.10929 [    22]: 20112
      0.09478 [    32]: 22011
      0.04228 [    10]: 11112
      0.04143 [    18]: 12111
      0.03715 [     9]: 11022
      0.02646 [    24]: 20211
      0.02604 [    33]: 22101
      0.02474 [     5]: 02211
      0.01850 [    28]: 21111
      0.01775 [     2]: 01221
      0.01538 [    26]: 21021
      0.01324 [     4]: 02121
      0.01218 [    12]: 11202
      0.00851 [     0]: 01122
      0.00775 [     7]: 10212
      0.00663 [    23]: 20121
      0.00491 [    15]: 12012
      0.00441 [    34]: 22110
ROOT  33:  E=   -2880.0205075985 Eh  1.839 eV  14830.9 cm**-1
      0.20966 [    13]: 11211
      0.18337 [    10]: 11112
      0.12455 [     4]: 02121
      0.09469 [    33]: 22101
      0.06492 [    14]: 11220
      0.05607 [    12]: 11202
      0.04774 [    24]: 20211
      0.03941 [    11]: 11121
      0.03923 [     5]: 02211
      0.02159 [    34]: 22110
      0.02080 [    25]: 21012
      0.01589 [    16]: 12021
      0.01342 [    18]: 12111
      0.01335 [    28]: 21111
      0.01316 [    22]: 20112
      0.01238 [    20]: 12201
      0.00577 [     1]: 01212
      0.00519 [    29]: 21120
      0.00477 [    31]: 21210
      0.00395 [    27]: 21102
      0.00304 [    23]: 20121
ROOT  34:  E=   -2880.0192631716 Eh  1.873 eV  15104.0 cm**-1
      0.15909 [    28]: 21111
      0.14230 [    18]: 12111
      0.12325 [     2]: 01221
      0.11810 [    19]: 12120
      0.11587 [    30]: 21201
      0.09637 [    17]: 12102
      0.03799 [    21]: 12210
      0.03706 [    29]: 21120
      0.03043 [    11]: 11121
      0.02646 [    25]: 21012
      0.02478 [    15]: 12012
      0.02039 [     1]: 01212
      0.01432 [     0]: 01122
      0.01245 [    10]: 11112
      0.00993 [    13]: 11211
      0.00897 [    27]: 21102
      0.00494 [     8]: 10221
      0.00408 [     5]: 02211
      0.00368 [    32]: 22011
      0.00301 [    33]: 22101
ROOT  35:  E=   -2879.9220274093 Eh  4.519 eV  36444.8 cm**-1
      0.27767 [    15]: 12012
      0.18203 [    25]: 21012
      0.07946 [    16]: 12021
      0.06365 [    17]: 12102
      0.05065 [     1]: 01212
      0.04828 [    31]: 21210
      0.04133 [     8]: 10221
      0.03982 [     3]: 02112
      0.03456 [    30]: 21201
      0.02952 [    21]: 12210
      0.02302 [    18]: 12111
      0.02049 [     6]: 10122
      0.01764 [    20]: 12201
      0.01231 [     2]: 01221
      0.01165 [     7]: 10212
      0.01146 [    10]: 11112
      0.00914 [    28]: 21111
      0.00750 [    19]: 12120
      0.00677 [     4]: 02121
      0.00670 [     5]: 02211
      0.00585 [    34]: 22110
      0.00406 [    22]: 20112
      0.00260 [    11]: 11121
ROOT  36:  E=   -2879.9214020659 Eh  4.536 eV  36582.0 cm**-1
      0.25520 [    24]: 20211
      0.25163 [    22]: 20112
      0.08008 [    32]: 22011
      0.05470 [    33]: 22101
      0.05159 [     3]: 02112
      0.04394 [     5]: 02211
      0.04171 [    11]: 11121
      0.03893 [    13]: 11211
      0.03506 [    34]: 22110
      0.03424 [    23]: 20121
      0.02951 [    10]: 11112
      0.02817 [    12]: 11202
      0.01351 [     4]: 02121
      0.00892 [     7]: 10212
      0.00609 [    20]: 12201
      0.00566 [     9]: 11022
      0.00311 [    15]: 12012
      0.00303 [     8]: 10221
      0.00273 [    28]: 21111
ROOT  37:  E=   -2879.9207748047 Eh  4.553 eV  36719.7 cm**-1
      0.22135 [    27]: 21102
      0.12360 [    16]: 12021
      0.10686 [     8]: 10221
      0.10021 [    17]: 12102
      0.08029 [    29]: 21120
      0.06522 [     0]: 01122
      0.06026 [    25]: 21012
      0.05114 [    28]: 21111
      0.04706 [    31]: 21210
      0.01778 [     1]: 01212
      0.01581 [    12]: 11202
      0.01487 [     4]: 02121
      0.01290 [    30]: 21201
      0.01267 [    23]: 20121
      0.01205 [    15]: 12012
      0.00751 [    20]: 12201
      0.00678 [    14]: 11220
      0.00602 [     9]: 11022
      0.00591 [    21]: 12210
      0.00585 [    18]: 12111
      0.00560 [     6]: 10122
      0.00464 [    13]: 11211
      0.00449 [    33]: 22101
ROOT  38:  E=   -2879.9197444946 Eh  4.581 eV  36945.8 cm**-1
      0.13008 [    15]: 12012
      0.11533 [    19]: 12120
      0.10586 [     7]: 10212
      0.10497 [    17]: 12102
      0.08396 [     8]: 10221
      0.08358 [    21]: 12210
      0.08062 [    18]: 12111
      0.05588 [     6]: 10122
      0.04513 [    29]: 21120
      0.03785 [    28]: 21111
      0.02129 [     1]: 01212
      0.01985 [     0]: 01122
      0.01845 [     3]: 02112
      0.01527 [    27]: 21102
      0.01226 [    30]: 21201
      0.00938 [    31]: 21210
      0.00915 [    22]: 20112
      0.00753 [    14]: 11220
      0.00674 [     4]: 02121
      0.00553 [    13]: 11211
      0.00517 [    16]: 12021
      0.00407 [    25]: 21012
      0.00325 [    10]: 11112
      0.00293 [    23]: 20121
      0.00259 [    33]: 22101
ROOT  39:  E=   -2879.9192368585 Eh  4.595 eV  37057.2 cm**-1
      0.15646 [     5]: 02211
      0.14190 [    32]: 22011
      0.12218 [    24]: 20211
      0.11650 [     3]: 02112
      0.06659 [    10]: 11112
      0.05691 [    11]: 11121
      0.03915 [    22]: 20112
      0.03252 [    34]: 22110
      0.03161 [    15]: 12012
      0.03005 [     9]: 11022
      0.02695 [    12]: 11202
      0.02660 [    23]: 20121
      0.02564 [    13]: 11211
      0.02558 [    33]: 22101
      0.01514 [    21]: 12210
      0.01480 [     7]: 10212
      0.01346 [    14]: 11220
      0.01021 [    25]: 21012
      0.00994 [     2]: 01221
      0.00954 [     4]: 02121
      0.00581 [     1]: 01212
      0.00387 [    28]: 21111
      0.00295 [    26]: 21021
ROOT  40:  E=   -2879.9187417996 Eh  4.608 eV  37165.9 cm**-1
      0.17361 [     8]: 10221
      0.13407 [    27]: 21102
      0.12881 [    19]: 12120
      0.07502 [     7]: 10212
      0.05419 [    20]: 12201
      0.05161 [    16]: 12021
      0.04370 [    29]: 21120
      0.03577 [    28]: 21111
      0.03293 [    31]: 21210
      0.03269 [    21]: 12210
      0.03235 [     0]: 01122
      0.02532 [    23]: 20121
      0.02272 [    18]: 12111
      0.02097 [     2]: 01221
      0.01749 [     4]: 02121
      0.01433 [    15]: 12012
      0.01296 [    17]: 12102
      0.01112 [    22]: 20112
      0.01102 [    12]: 11202
      0.01094 [    30]: 21201
      0.01040 [    33]: 22101
      0.01034 [    34]: 22110
      0.00808 [    14]: 11220
      0.00568 [    13]: 11211
      0.00474 [     6]: 10122
      0.00417 [     9]: 11022
      0.00345 [     5]: 02211
      0.00339 [    26]: 21021
ROOT  41:  E=   -2879.9180147278 Eh  4.628 eV  37325.5 cm**-1
      0.29224 [     4]: 02121
      0.15253 [    14]: 11220
      0.09674 [    33]: 22101
      0.07496 [    23]: 20121
      0.06502 [     3]: 02112
      0.05479 [     9]: 11022
      0.04330 [    13]: 11211
      0.03746 [    12]: 11202
      0.03466 [    16]: 12021
      0.02237 [    11]: 11121
      0.02097 [    29]: 21120
      0.01315 [    24]: 20211
      0.01257 [     2]: 01221
      0.01103 [    20]: 12201
      0.00905 [    15]: 12012
      0.00812 [    19]: 12120
      0.00754 [     8]: 10221
      0.00723 [    22]: 20112
      0.00615 [    18]: 12111
      0.00544 [     0]: 01122
      0.00500 [    28]: 21111
      0.00441 [    27]: 21102
      0.00376 [    10]: 11112
ROOT  42:  E=   -2879.9149699528 Eh  4.711 eV  37993.7 cm**-1
      0.16676 [    31]: 21210
      0.16367 [    27]: 21102
      0.11477 [    30]: 21201
      0.09887 [    19]: 12120
      0.09790 [    28]: 21111
      0.08889 [    17]: 12102
      0.07010 [    25]: 21012
      0.03336 [     2]: 01221
      0.03118 [    26]: 21021
      0.02066 [    21]: 12210
      0.02014 [    15]: 12012
      0.01891 [    16]: 12021
      0.01240 [     6]: 10122
      0.01164 [     1]: 01212
      0.01147 [    18]: 12111
      0.00989 [     8]: 10221
      0.00774 [    20]: 12201
      0.00720 [    12]: 11202
      0.00516 [    34]: 22110
      0.00265 [    13]: 11211
ROOT  43:  E=   -2879.9140986601 Eh  4.734 eV  38184.9 cm**-1
      0.35734 [     2]: 01221
      0.11525 [    30]: 21201
      0.11392 [    18]: 12111
      0.06043 [    26]: 21021
      0.05488 [     0]: 01122
      0.04098 [     1]: 01212
      0.03639 [    25]: 21012
      0.03038 [    11]: 11121
      0.02632 [    21]: 12210
      0.02455 [    31]: 21210
      0.02127 [    28]: 21111
      0.01741 [    19]: 12120
      0.01717 [    17]: 12102
      0.01660 [    14]: 11220
      0.01538 [     9]: 11022
      0.00916 [    32]: 22011
      0.00914 [    15]: 12012
      0.00812 [     7]: 10212
      0.00774 [     5]: 02211
      0.00475 [    13]: 11211
      0.00458 [    12]: 11202
      0.00295 [    16]: 12021
ROOT  44:  E=   -2879.9122590964 Eh  4.784 eV  38588.7 cm**-1
      0.34892 [    14]: 11220
      0.11026 [    13]: 11211
      0.08670 [     4]: 02121
      0.06670 [    12]: 11202
      0.06066 [     3]: 02112
      0.05174 [    34]: 22110
      0.04310 [    11]: 11121
      0.03723 [    33]: 22101
      0.02780 [    29]: 21120
      0.02426 [     9]: 11022
      0.02079 [     5]: 02211
      0.01938 [    10]: 11112
      0.01681 [    22]: 20112
      0.01068 [     0]: 01122
      0.01037 [    16]: 12021
      0.00974 [    21]: 12210
      0.00946 [    15]: 12012
      0.00830 [    28]: 21111
      0.00806 [     2]: 01221
      0.00693 [    27]: 21102
      0.00522 [    32]: 22011
      0.00492 [    20]: 12201
      0.00258 [    23]: 20121

                 <<<<<<<<<<<<<<<<<<INITIAL CI STATE CHECK>>>>>>>>>>>>>>>>>>

   E(CAS)= -2880.104621179 Eh DE=    0.000000e+00
   --- Energy gap subspaces: Ext-Act = 0.229   Act-Int = -0.050
   N(occ)=  1.20000 1.20000 1.20000 1.20000 1.20000
   ||g|| =     5.644720e-04 Max(G)=   -6.119012e-05 Rot=452,17
                     ---- THE CAS-SCF GRADIENT HAS CONVERGED ----
                            --- FINALIZING ORBITALS ---
                    ---- DOING ONE FINAL ITERATION FOR PRINTING ----
   --- Forming Natural Orbitals
   --- Canonicalize Internal Space
   --- Canonicalize External Space

MACRO-ITERATION   2: 
   --- Inactive Energy E0 = -2864.30364397 Eh
   --- All densities will be recomputed
CI-ITERATION   0: 
 -2880.181868919   0.000000000000 (    0.00)
 -2880.180419359   0.000000000000
 -2880.177500501   0.000000000000
 -2880.174764235   0.000000000000
 -2880.174535629   0.000000000000
   CI-PROBLEM SOLVED
   DENSITIES MADE
CI-ITERATION   0: 
 -2880.088082059   0.000000000000 (    0.00)
 -2880.087598009   0.000000000000
 -2880.086668734   0.000000000000
 -2880.086350341   0.000000000000
 -2880.085066521   0.000000000000
 -2880.083461103   0.000000000000
 -2880.082268320   0.000000000000
 -2880.082190423   0.000000000000
 -2880.081696484   0.000000000000
 -2880.079915851   0.000000000000
 -2880.079839616   0.000000000000
 -2880.073739828   0.000000000000
 -2880.072973288   0.000000000000
 -2880.072680145   0.000000000000
 -2880.069983049   0.000000000000
 -2880.069763899   0.000000000000
 -2880.067788422   0.000000000000
 -2880.067545033   0.000000000000
 -2880.065677818   0.000000000000
 -2880.065268442   0.000000000000
 -2880.064346072   0.000000000000
 -2880.060717864   0.000000000000
 -2880.059972055   0.000000000000
 -2880.059759954   0.000000000000
 -2880.058453312   0.000000000000
 -2880.055796656   0.000000000000
 -2880.055361260   0.000000000000
 -2880.053678495   0.000000000000
 -2880.053619956   0.000000000000
 -2880.053155956   0.000000000000
 -2880.024640377   0.000000000000
 -2880.023042739   0.000000000000
 -2880.021965609   0.000000000000
 -2880.020507598   0.000000000000
 -2880.019263171   0.000000000000
 -2879.922027409   0.000000000000
 -2879.921402065   0.000000000000
 -2879.920774804   0.000000000000
 -2879.919744494   0.000000000000
 -2879.919236858   0.000000000000
 -2879.918741799   0.000000000000
 -2879.918014728   0.000000000000
 -2879.914969952   0.000000000000
 -2879.914098660   0.000000000000
 -2879.912259096   0.000000000000
   CI-PROBLEM SOLVED
   DENSITIES MADE
   E(CAS)= -2880.104621179 Eh DE=    4.624781e-10
   --- Energy gap subspaces: Ext-Act = 0.231   Act-Int = -0.050
   N(occ)=  1.20000 1.20000 1.20000 1.20000 1.20000
   ||g|| =     5.644720e-04 Max(G)=   -6.119012e-05 Rot=452,17
--------------
CASSCF RESULTS
--------------

Final CASSCF energy       : -2880.104621179 Eh  -78371.6311 eV

----------------
ORBITAL ENERGIES
----------------

  NO   OCC          E(Eh)            E(eV) 
   0   2.0000    -261.395389     -7112.9302 
   1   2.0000     -31.959085      -869.6509 
   2   2.0000     -27.439067      -746.6550 
   3   2.0000     -27.438989      -746.6529 
   4   2.0000     -27.438712      -746.6453 
   5   2.0000      -4.728106      -128.6583 
   6   2.0000      -4.728002      -128.6555 
   7   2.0000      -4.721950      -128.4908 
   8   2.0000      -4.721554      -128.4800 
   9   2.0000      -4.721277      -128.4725 
  10   2.0000      -4.714258      -128.2815 
  11   2.0000      -4.710535      -128.1802 
  12   2.0000      -4.710489      -128.1789 
  13   2.0000      -4.704088      -128.0047 
  14   2.0000      -4.699680      -127.8848 
  15   2.0000      -4.699525      -127.8806 
  16   2.0000      -4.691396      -127.6594 
  17   2.0000      -4.193080      -114.0995 
  18   2.0000      -2.773385       -75.4677 
  19   2.0000      -2.773347       -75.4666 
  20   2.0000      -2.772543       -75.4447 
  21   2.0000      -2.766278       -75.2743 
  22   2.0000      -2.765800       -75.2612 
  23   2.0000      -2.764823       -75.2347 
  24   2.0000      -2.764616       -75.2290 
  25   2.0000      -2.762928       -75.1831 
  26   2.0000      -2.762630       -75.1750 
  27   2.0000      -2.760669       -75.1216 
  28   2.0000      -2.759446       -75.0883 
  29   2.0000      -2.758343       -75.0583 
  30   2.0000      -2.758256       -75.0560 
  31   2.0000      -2.757836       -75.0445 
  32   2.0000      -2.757429       -75.0335 
  33   2.0000      -2.756536       -75.0092 
  34   2.0000      -2.756314       -75.0031 
  35   2.0000      -2.753269       -74.9203 
  36   2.0000      -2.751468       -74.8713 
  37   2.0000      -2.748506       -74.7906 
  38   2.0000      -2.748419       -74.7883 
  39   2.0000      -2.748328       -74.7858 
  40   2.0000      -2.745997       -74.7224 
  41   2.0000      -2.745559       -74.7105 
  42   2.0000      -2.744906       -74.6927 
  43   2.0000      -2.743149       -74.6449 
  44   2.0000      -2.743075       -74.6429 
  45   2.0000      -2.740782       -74.5805 
  46   2.0000      -2.737163       -74.4820 
  47   2.0000      -2.737071       -74.4795 
  48   2.0000      -2.736637       -74.4677 
  49   2.0000      -2.736403       -74.4613 
  50   2.0000      -2.736217       -74.4562 
  51   2.0000      -2.734976       -74.4225 
  52   2.0000      -2.734762       -74.4166 
  53   2.0000      -2.732028       -74.3423 
  54   2.0000      -2.727459       -74.2179 
  55   2.0000      -2.726116       -74.1814 
  56   2.0000      -2.725896       -74.1754 
  57   2.0000      -0.582267       -15.8443 
  58   2.0000      -0.558415       -15.1952 
  59   2.0000      -0.557611       -15.1734 
  60   2.0000      -0.555120       -15.1056 
  61   2.0000      -0.549929       -14.9643 
  62   2.0000      -0.545249       -14.8370 
  63   2.0000      -0.543328       -14.7847 
  64   2.0000      -0.542628       -14.7657 
  65   2.0000      -0.538576       -14.6554 
  66   2.0000      -0.535458       -14.5705 
  67   2.0000      -0.534211       -14.5366 
  68   2.0000      -0.531695       -14.4682 
  69   2.0000      -0.529548       -14.4097 
  70   2.0000      -0.525450       -14.2982 
  71   2.0000      -0.522523       -14.2186 
  72   2.0000      -0.520642       -14.1674 
  73   2.0000      -0.518682       -14.1141 
  74   2.0000      -0.517192       -14.0735 
  75   2.0000      -0.513986       -13.9863 
  76   2.0000      -0.513910       -13.9842 
  77   2.0000      -0.508505       -13.8371 
  78   2.0000      -0.504913       -13.7394 
  79   2.0000      -0.502604       -13.6766 
  80   2.0000      -0.502039       -13.6612 
  81   2.0000      -0.496592       -13.5130 
  82   2.0000      -0.496417       -13.5082 
  83   2.0000      -0.490091       -13.3361 
  84   2.0000      -0.489512       -13.3203 
  85   2.0000      -0.484743       -13.1905 
  86   2.0000      -0.483355       -13.1528 
  87   2.0000      -0.481408       -13.0998 
  88   2.0000      -0.477027       -12.9806 
  89   2.0000      -0.470280       -12.7970 
  90   2.0000      -0.465547       -12.6682 
  91   2.0000      -0.464758       -12.6467 
  92   2.0000      -0.462977       -12.5982 
  93   2.0000      -0.459476       -12.5030 
  94   2.0000      -0.458988       -12.4897 
  95   2.0000      -0.456325       -12.4172 
  96   2.0000      -0.455522       -12.3954 
  97   2.0000      -0.454347       -12.3634 
  98   2.0000      -0.452320       -12.3083 
  99   2.0000      -0.449915       -12.2428 
 100   2.0000      -0.446604       -12.1527 
 101   2.0000      -0.445295       -12.1171 
 102   2.0000      -0.440821       -11.9954 
 103   2.0000      -0.439842       -11.9687 
 104   2.0000      -0.436686       -11.8828 
 105   2.0000      -0.436035       -11.8651 
 106   2.0000      -0.434906       -11.8344 
 107   2.0000      -0.433493       -11.7960 
 108   2.0000      -0.426768       -11.6130 
 109   2.0000      -0.425686       -11.5835 
 110   2.0000      -0.419265       -11.4088 
 111   2.0000      -0.418210       -11.3801 
 112   2.0000      -0.417059       -11.3487 
 113   2.0000      -0.411040       -11.1850 
 114   2.0000      -0.409675       -11.1478 
 115   2.0000      -0.409577       -11.1451 
 116   2.0000      -0.403860       -10.9896 
 117   2.0000      -0.393696       -10.7130 
 118   2.0000      -0.365257        -9.9391 
 119   2.0000      -0.345649        -9.4056 
 120   2.0000      -0.317721        -8.6456 
 121   2.0000      -0.242248        -6.5919 
 122   2.0000      -0.238261        -6.4834 
 123   2.0000      -0.223862        -6.0916 
 124   1.2000      -0.267037        -7.2664 
 125   1.2000      -0.273450        -7.4410 
 126   1.2000      -0.267323        -7.2742 
 127   1.2000      -0.271721        -7.3939 
 128   1.2000      -0.271311        -7.3827 
 129   0.0000      -0.035767        -0.9733 
 130   0.0000      -0.025508        -0.6941 
 131   0.0000      -0.007255        -0.1974 
 132   0.0000      -0.001385        -0.0377 
 133   0.0000       0.009049         0.2462 
 134   0.0000       0.017085         0.4649 
 135   0.0000       0.040967         1.1148 
 136   0.0000       0.049139         1.3371 
[...]
 3 117   30081.7    332.4   0.000000002   0.00000   0.00068   0.00030   0.00046
 3 118   30648.0    326.3   0.000000001   0.00000   0.00029   0.00013   0.00039
 3 119   30650.6    326.3   0.000000000   0.00000   0.00002   0.00002   0.00005
 3 120   30654.3    326.2   0.000000001   0.00000   0.00015   0.00042   0.00006
 3 121   31011.5    322.5   0.000000000   0.00000   0.00007   0.00003   0.00005
 3 122   31016.0    322.4   0.000000000   0.00000   0.00022   0.00008   0.00013
 3 123   31018.5    322.4   0.000000000   0.00000   0.00007   0.00017   0.00005
 3 124   31686.6    315.6   0.000000000   0.00000   0.00004   0.00008   0.00014
 3 125   31689.1    315.6   0.000000004   0.00000   0.00096   0.00038   0.00061
 3 126   31690.8    315.5   0.000000002   0.00000   0.00061   0.00026   0.00041
 3 127   32076.6    311.8   0.000000001   0.00000   0.00026   0.00017   0.00033
 3 128   32078.1    311.7   0.000000001   0.00000   0.00027   0.00026   0.00022
 3 129   32078.5    311.7   0.000000000   0.00000   0.00003   0.00002   0.00003
 3 130   47465.3    210.7   0.000000000   0.00000   0.00017   0.00016   0.00015
 3 131   47518.8    210.4   0.000000000   0.00000   0.00001   0.00000   0.00001
 3 132   47549.7    210.3   0.000000002   0.00000   0.00014   0.00041   0.00046
 3 133   47722.9    209.5   0.000000000   0.00000   0.00025   0.00012   0.00017
 3 134   47768.3    209.3   0.000000000   0.00000   0.00004   0.00022   0.00024
 3 135   47779.5    209.3   0.000000000   0.00000   0.00009   0.00005   0.00007
 3 136   48417.1    206.5   0.000000001   0.00000   0.00010   0.00051   0.00019
 3 137   48423.3    206.5   0.000000002   0.00000   0.00033   0.00053   0.00006
 3 138   48435.5    206.5   0.000000000   0.00000   0.00003   0.00016   0.00009
 3 139   48442.6    206.4   0.000000000   0.00000   0.00008   0.00007   0.00003
 3 140   48443.1    206.4   0.000000001   0.00000   0.00016   0.00017   0.00038
 3 141   48446.5    206.4   0.000000000   0.00000   0.00021   0.00019   0.00001
 3 142   48774.2    205.0   0.000000000   0.00000   0.00015   0.00014   0.00008
 3 143   48777.6    205.0   0.000000002   0.00000   0.00019   0.00065   0.00008
 3 144   48779.6    205.0   0.000000003   0.00000   0.00027   0.00080   0.00010
 3 145   49032.3    203.9   0.000000001   0.00000   0.00028   0.00008   0.00021
 3 146   49034.0    203.9   0.000000000   0.00000   0.00019   0.00020   0.00011
 3 147   49034.6    203.9   0.000000000   0.00000   0.00003   0.00005   0.00005
 3 148   49353.6    202.6   0.000000001   0.00000   0.00007   0.00040   0.00013
 3 149   49368.8    202.6   0.000000000   0.00000   0.00023   0.00010   0.00013
 3 150   49378.9    202.5   0.000000000   0.00000   0.00017   0.00005   0.00010
 3 151   49564.5    201.8   0.000000003   0.00000   0.00017   0.00078   0.00022
 3 152   49610.8    201.6   0.000000002   0.00000   0.00038   0.00027   0.00044
 3 153   49728.3    201.1   0.000000000   0.00000   0.00005   0.00003   0.00004
 3 154   49862.5    200.6   0.000000000   0.00000   0.00005   0.00003   0.00004
 3 155   50148.9    199.4   0.000000000   0.00000   0.00002   0.00005   0.00006
 3 156   50151.4    199.4   0.000000000   0.00000   0.00012   0.00002   0.00017
 3 157   50705.6    197.2   0.000000000   0.00000   0.00008   0.00004   0.00007
 3 158   50733.3    197.1   0.000000000   0.00000   0.00007   0.00004   0.00003
 3 159   50769.8    197.0   0.000000000   0.00000   0.00008   0.00012   0.00004
 4  5     540.4   18504.2   0.000000001   0.00002   0.00327   0.00156   0.00225
 4  6     546.9   18284.9   0.000000007   0.00016   0.00990   0.00401   0.00649
 4  7     549.0   18214.5   0.000000001   0.00001   0.00104   0.00340   0.00147
 4  8     568.0   17607.0   0.000000001   0.00002   0.00195   0.00349   0.00039
 4  9     571.4   17501.8   0.000000000   0.00001   0.00213   0.00126   0.00153
 4 10    1651.5   6055.2   0.000000023   0.00017   0.00211   0.00883   0.00931
 4 11    1653.7   6047.2   0.000000151   0.00111   0.01754   0.00154   0.02821
 4 12    1743.5   5735.7   0.000000065   0.00045   0.01714   0.00688   0.01052
 4 13    1763.1   5671.9   0.000000011   0.00008   0.00719   0.00269   0.00446
 4 14    1788.1   5592.4   0.000000001   0.00001   0.00005   0.00225   0.00142
 4 15    2704.6   3697.4   0.000000001   0.00000   0.00099   0.00131   0.00081
 4 16    2710.5   3689.3   0.000000002   0.00001   0.00108   0.00013   0.00257
 4 17    2777.8   3600.0   0.000000084   0.00037   0.01465   0.00907   0.00844
 4 18    2822.6   3542.9   0.000000606   0.00260   0.00381   0.02904   0.04179
 4 19    2851.8   3506.6   0.000000042   0.00018   0.00542   0.00359   0.01164
 4 20    2955.2   3383.8   0.000000043   0.00018   0.01138   0.00603   0.00350
 4 21    2972.8   3363.8   0.000000386   0.00158   0.03105   0.01743   0.01759
 4 22    3014.1   3317.7   0.000000292   0.00117   0.02016   0.00816   0.02647
 4 23    3043.5   3285.7   0.000000044   0.00018   0.01180   0.00550   0.00250
 4 24    3046.2   3282.8   0.000000118   0.00047   0.01266   0.00130   0.01750
 4 25   18276.2    547.2   0.000000000   0.00000   0.00008   0.00035   0.00001
 4 26   18283.6    546.9   0.000000000   0.00000   0.00012   0.00005   0.00002
 4 27   18298.7    546.5   0.000000008   0.00000   0.00172   0.00076   0.00120
 4 28   18730.3    533.9   0.000000002   0.00000   0.00059   0.00004   0.00081
 4 29   18747.5    533.4   0.000000015   0.00001   0.00173   0.00225   0.00126
 4 30   18767.6    532.8   0.000000000   0.00000   0.00013   0.00009   0.00001
 4 31   19305.1    518.0   0.000000000   0.00000   0.00041   0.00016   0.00025
 4 32   19317.7    517.7   0.000000000   0.00000   0.00019   0.00031   0.00009
 4 33   19367.8    516.3   0.000000002   0.00000   0.00029   0.00054   0.00077
 4 34   19488.1    513.1   0.000000000   0.00000   0.00034   0.00018   0.00022
 4 35   19548.1    511.6   0.000000000   0.00000   0.00021   0.00011   0.00003
 4 36   19551.9    511.5   0.000000003   0.00000   0.00105   0.00044   0.00071
 4 37   19807.0    504.9   0.000000001   0.00000   0.00054   0.00061   0.00048
 4 38   19817.9    504.6   0.000000007   0.00000   0.00124   0.00093   0.00131
 4 39   19849.4    503.8   0.000000000   0.00000   0.00036   0.00016   0.00026
 4 40   20278.8    493.1   0.000000000   0.00000   0.00004   0.00028   0.00013
 4 41   20331.4    491.9   0.000000000   0.00000   0.00017   0.00006   0.00008
 4 42   20350.3    491.4   0.000000001   0.00000   0.00044   0.00036   0.00051
 4 43   20539.0    486.9   0.000000000   0.00000   0.00019   0.00005   0.00012
 4 44   20560.7    486.4   0.000000001   0.00000   0.00029   0.00044   0.00020
 4 45   20622.8    484.9   0.000000001   0.00000   0.00064   0.00024   0.00039
 4 46   20703.0    483.0   0.000000000   0.00000   0.00002   0.00030   0.00019
 4 47   20714.9    482.7   0.000000002   0.00000   0.00061   0.00048   0.00068
 4 48   20748.4    482.0   0.000000001   0.00000   0.00044   0.00014   0.00029
 4 49   20768.3    481.5   0.000000000   0.00000   0.00027   0.00005   0.00015
 4 50   20795.4    480.9   0.000000000   0.00000   0.00003   0.00033   0.00014
 4 51   20960.0    477.1   0.000000001   0.00000   0.00036   0.00030   0.00043
 4 52   20972.1    476.8   0.000000001   0.00000   0.00056   0.00022   0.00035
 4 53   21070.2    474.6   0.000000006   0.00000   0.00143   0.00058   0.00095
 4 54   21086.8    474.2   0.000000001   0.00000   0.00043   0.00022   0.00025
 4 55   21089.2    474.2   0.000000000   0.00000   0.00001   0.00015   0.00004
 4 56   21182.7    472.1   0.000000002   0.00000   0.00053   0.00085   0.00021
 4 57   21340.4    468.6   0.000000002   0.00000   0.00029   0.00096   0.00012
 4 58   21374.1    467.9   0.000000002   0.00000   0.00080   0.00032   0.00054
 4 59   21527.3    464.5   0.000000000   0.00000   0.00021   0.00008   0.00013
 4 60   21595.3    463.1   0.000000000   0.00000   0.00018   0.00032   0.00008
 4 61   21632.3    462.3   0.000000000   0.00000   0.00009   0.00001   0.00005
 4 62   21672.1    461.4   0.000000000   0.00000   0.00001   0.00003   0.00004
 4 63   21739.7    460.0   0.000000001   0.00000   0.00017   0.00081   0.00028
 4 64   21765.2    459.4   0.000000002   0.00000   0.00090   0.00037   0.00057
 4 65   21911.7    456.4   0.000000001   0.00000   0.00028   0.00024   0.00055
 4 66   21930.7    456.0   0.000000000   0.00000   0.00002   0.00001   0.00001
 4 67   22000.9    454.5   0.000000001   0.00000   0.00047   0.00012   0.00036
 4 68   22007.6    454.4   0.000000001   0.00000   0.00005   0.00055   0.00032
 4 69   22136.9    451.7   0.000000002   0.00000   0.00081   0.00034   0.00049
 4 70   22171.8    451.0   0.000000001   0.00000   0.00029   0.00021   0.00047
 4 71   22234.1    449.8   0.000000001   0.00000   0.00048   0.00022   0.00031
 4 72   22266.9    449.1   0.000000000   0.00000   0.00019   0.00006   0.00029
 4 73   22709.4    440.3   0.000000000   0.00000   0.00028   0.00016   0.00022
 4 74   22713.6    440.3   0.000000000   0.00000   0.00024   0.00019   0.00019
 4 75   22721.7    440.1   0.000000000   0.00000   0.00012   0.00002   0.00004
 4 76   23080.9    433.3   0.000000000   0.00000   0.00020   0.00008   0.00015
 4 77   23110.2    432.7   0.000000000   0.00000   0.00020   0.00019   0.00015
 4 78   23129.5    432.3   0.000000001   0.00000   0.00036   0.00030   0.00041
 4 79   23584.9    424.0   0.000000000   0.00000   0.00037   0.00016   0.00023
 4 80   23610.2    423.5   0.000000001   0.00000   0.00019   0.00072   0.00005
 4 81   23638.3    423.0   0.000000000   0.00000   0.00023   0.00021   0.00007
 4 82   23644.2    422.9   0.000000001   0.00000   0.00026   0.00040   0.00026
 4 83   23658.4    422.7   0.000000000   0.00000   0.00017   0.00008   0.00003
 4 84   23710.9    421.7   0.000000001   0.00000   0.00034   0.00051   0.00018
 4 85   23938.2    417.7   0.000000001   0.00000   0.00051   0.00014   0.00068
 4 86   23942.7    417.7   0.000000000   0.00000   0.00021   0.00006   0.00011
 4 87   23984.7    416.9   0.000000001   0.00000   0.00008   0.00048   0.00036
 4 88   24159.0    413.9   0.000000004   0.00000   0.00116   0.00047   0.00075
 4 89   24229.0    412.7   0.000000003   0.00000   0.00068   0.00072   0.00073
 4 90   24263.6    412.1   0.000000001   0.00000   0.00055   0.00022   0.00039
 4 91   24475.9    408.6   0.000000002   0.00000   0.00084   0.00030   0.00051
 4 92   24573.3    406.9   0.000000002   0.00000   0.00054   0.00083   0.00032
 4 93   24655.5    405.6   0.000000003   0.00000   0.00090   0.00041   0.00062
 4 94   24658.9    405.5   0.000000004   0.00000   0.00061   0.00118   0.00016
 4 95   24685.1    405.1   0.000000000   0.00000   0.00004   0.00000   0.00002
 4 96   24812.4    403.0   0.000000002   0.00000   0.00056   0.00065   0.00037
 4 97   25148.7    397.6   0.000000002   0.00000   0.00070   0.00028   0.00044
 4 98   25155.4    397.5   0.000000001   0.00000   0.00042   0.00028   0.00041
 4 99   25217.3    396.6   0.000000003   0.00000   0.00101   0.00042   0.00069
 4 100   25833.3    387.1   0.000000001   0.00000   0.00002   0.00049   0.00037
 4 101   25837.2    387.0   0.000000000   0.00000   0.00005   0.00030   0.00014
 4 102   26003.6    384.6   0.000000000   0.00000   0.00007   0.00003   0.00005
 4 103   26221.7    381.4   0.000000000   0.00000   0.00015   0.00008   0.00010
 4 104   26358.3    379.4   0.000000000   0.00000   0.00017   0.00020   0.00038
 4 105   26405.3    378.7   0.000000001   0.00000   0.00036   0.00040   0.00031
 4 106   26681.8    374.8   0.000000000   0.00000   0.00024   0.00010   0.00015
 4 107   26697.7    374.6   0.000000000   0.00000   0.00002   0.00001   0.00004
 4 108   26711.6    374.4   0.000000000   0.00000   0.00020   0.00005   0.00026
 4 109   26749.8    373.8   0.000000000   0.00000   0.00023   0.00008   0.00012
 4 110   26760.6    373.7   0.000000001   0.00000   0.00041   0.00045   0.00038
 4 111   27094.3    369.1   0.000000000   0.00000   0.00023   0.00011   0.00030
 4 112   27170.1    368.1   0.000000000   0.00000   0.00035   0.00014   0.00021
 4 113   27216.2    367.4   0.000000001   0.00000   0.00032   0.00034   0.00029
 4 114   27327.6    365.9   0.000000000   0.00000   0.00002   0.00002   0.00001
 4 115   30076.3    332.5   0.000000002   0.00000   0.00073   0.00032   0.00049
 4 116   30078.7    332.5   0.000000000   0.00000   0.00004   0.00010   0.00005
 4 117   30081.1    332.4   0.000000002   0.00000   0.00077   0.00031   0.00049
 4 118   30647.3    326.3   0.000000000   0.00000   0.00014   0.00039   0.00009
 4 119   30649.9    326.3   0.000000000   0.00000   0.00013   0.00009   0.00010
 4 120   30653.6    326.2   0.000000001   0.00000   0.00029   0.00009   0.00040
 4 121   31010.9    322.5   0.000000000   0.00000   0.00021   0.00007   0.00012
 4 122   31015.3    322.4   0.000000000   0.00000   0.00007   0.00004   0.00006
 4 123   31017.8    322.4   0.000000000   0.00000   0.00005   0.00012   0.00000
 4 124   31686.0    315.6   0.000000000   0.00000   0.00000   0.00012   0.00003
 4 125   31688.5    315.6   0.000000001   0.00000   0.00056   0.00024   0.00038
 4 126   31690.2    315.6   0.000000003   0.00000   0.00090   0.00036   0.00057
 4 127   32076.0    311.8   0.000000001   0.00000   0.00028   0.00026   0.00023
 4 128   32077.4    311.7   0.000000000   0.00000   0.00025   0.00016   0.00031
 4 129   32077.8    311.7   0.000000000   0.00000   0.00018   0.00008   0.00013
 4 130   47464.6    210.7   0.000000001   0.00000   0.00022   0.00027   0.00050
 4 131   47518.1    210.4   0.000000000   0.00000   0.00019   0.00009   0.00013
 4 132   47549.1    210.3   0.000000000   0.00000   0.00015   0.00005   0.00027
 4 133   47722.2    209.5   0.000000000   0.00000   0.00011   0.00005   0.00009
 4 134   47767.6    209.3   0.000000001   0.00000   0.00004   0.00033   0.00015
 4 135   47778.8    209.3   0.000000000   0.00000   0.00017   0.00009   0.00011
 4 136   48416.5    206.5   0.000000002   0.00000   0.00027   0.00062   0.00002
 4 137   48422.7    206.5   0.000000002   0.00000   0.00013   0.00060   0.00016
 4 138   48434.8    206.5   0.000000000   0.00000   0.00012   0.00002   0.00019
 4 139   48442.0    206.4   0.000000001   0.00000   0.00023   0.00016   0.00030
 4 140   48442.5    206.4   0.000000000   0.00000   0.00004   0.00002   0.00005
 4 141   48445.9    206.4   0.000000000   0.00000   0.00008   0.00002   0.00000
 4 142   48773.6    205.0   0.000000000   0.00000   0.00000   0.00023   0.00003
 4 143   48777.0    205.0   0.000000003   0.00000   0.00031   0.00081   0.00010
 4 144   48778.9    205.0   0.000000001   0.00000   0.00019   0.00056   0.00008
 4 145   49031.6    203.9   0.000000000   0.00000   0.00018   0.00021   0.00017
 4 146   49033.3    203.9   0.000000000   0.00000   0.00021   0.00011   0.00019
 4 147   49033.9    203.9   0.000000000   0.00000   0.00024   0.00004   0.00004
 4 148   49352.9    202.6   0.000000001   0.00000   0.00022   0.00034   0.00011
 4 149   49368.2    202.6   0.000000000   0.00000   0.00016   0.00006   0.00010
 4 150   49378.2    202.5   0.000000000   0.00000   0.00016   0.00008   0.00009
 4 151   49563.9    201.8   0.000000001   0.00000   0.00033   0.00017   0.00041
 4 152   49610.2    201.6   0.000000003   0.00000   0.00017   0.00085   0.00026
 4 153   49727.7    201.1   0.000000000   0.00000   0.00004   0.00003   0.00003
 4 154   49861.9    200.6   0.000000000   0.00000   0.00010   0.00004   0.00005
 4 155   50148.2    199.4   0.000000000   0.00000   0.00007   0.00001   0.00011
 4 156   50150.8    199.4   0.000000000   0.00000   0.00003   0.00003   0.00004
 4 157   50705.0    197.2   0.000000000   0.00000   0.00003   0.00002   0.00001
 4 158   50732.6    197.1   0.000000000   0.00000   0.00012   0.00006   0.00009
 4 159   50769.2    197.0   0.000000000   0.00000   0.00007   0.00002   0.00010

------------------------------------------------------------------------------
                           SOC CORRECTED DIPOLE MOMENTS
------------------------------------------------------------------------------
      TX        TY        TZ           |T|
   (Debye)   (Debye)   (Debye)      (Debye)
------------------------------------------------------------------------------
  36.81466 -78.97476  -7.82609     87.48474

--------------
CASSCF TIMINGS
--------------

Total time                       ...     5754.2 sec
Sum of individual times          ...     5757.5 sec (100.1%)

Calculation of AO operators
   F(Core) operator              ...       77.0 sec (  1.3%)
   G(Act) operator               ...       69.5 sec (  1.2%)
   J(AO) operators               ...        0.0 sec (  0.0%)
Calculation of MO transformed quantities
   J(MO) operators               ...        6.1 sec (  0.1%)
   (pq|rs) integrals             ...        0.0 sec (  0.0%)
   AO->MO one electron integrals ...        0.1 sec (  0.0%)
Configuration interaction steps
   CI-setup phase                ...        0.0 sec (  0.0%)
   CI-solution phase             ...        0.1 sec (  0.0%)
   Generation of densities       ...        0.0 sec (  0.0%)
Orbital improvement steps
   Orbital gradient              ...        0.3 sec (  0.0%)
PT2 
   NEVPT2 time                   ...     5576.3 sec ( 96.9%)
Properties                       ...       14.9 sec (  0.3%)
   SOC integral calculation      ...       13.0 sec (  0.2%)
   SSC RMEs (incl. integrals)    ...        0.0 sec (  0.0%)
   SOC RMEs                      ...        0.1 sec (  0.0%)

Maximum memory used throughout the entire CASSCF-calculation: 1136.5 MB

-------------------------   --------------------
FINAL SINGLE POINT ENERGY     -2886.145258511086
-------------------------   --------------------


                            ***************************************
                            *     ORCA property calculations      *
                            ***************************************

                                    ---------------------
                                    Active property flags
                                    ---------------------
   (+) Dipole Moment


------------------------------------------------------------------------------
                       ORCA ELECTRIC PROPERTIES CALCULATION
------------------------------------------------------------------------------

Dipole Moment Calculation                       ... on
Quadrupole Moment Calculation                   ... off
Polarizability Calculation                      ... off
GBWName                                         ... nevpt2.gbw
Electron density                                ... nevpt2.scfp
The origin for moment calculation is the CENTER OF MASS  = (12.031898, 15.722243 11.754009)

-------------
DIPOLE MOMENT
-------------
                                X             Y             Z
Electronic contribution:    -14.22588      30.68116       2.92232
Nuclear contribution   :     14.48390     -31.07082      -3.07883
                        -----------------------------------------
Total Dipole Moment    :      0.25801      -0.38965      -0.15651
                        -----------------------------------------
Magnitude (a.u.)       :      0.49284
Magnitude (Debye)      :      1.25270



--------------------
Rotational spectrum 
--------------------
 
Rotational constants in cm-1:     0.001622     0.001213     0.001098 
Rotational constants in MHz :    48.629548    36.379718    32.918020 

 Dipole components along the rotational axes: 
x,y,z [a.u.] :     0.420473     0.257090    -0.000311 
x,y,z [Debye]:     1.068758     0.653471    -0.000790 

 

Timings for individual modules:

Sum of individual times         ...     5791.088 sec (=  96.518 min)
GTO integral calculation        ...       17.863 sec (=   0.298 min)   0.3 %
SCF iterations                  ...       14.669 sec (=   0.244 min)   0.3 %
CASSCF iterations               ...     5758.555 sec (=  95.976 min)  99.4 %
                             ****ORCA TERMINATED NORMALLY****
TOTAL RUN TIME: 0 days 1 hours 36 minutes 31 seconds 970 msec
