
                                 *****************
                                 * O   R   C   A *
                                 *****************

                                            #,                                       
                                            ###                                      
                                            ####                                     
                                            #####                                    
                                            ######                                   
                                           ########,                                 
                                     ,,################,,,,,                         
                               ,,#################################,,                 
                          ,,##########################################,,             
                       ,#########################################, ''#####,          
                    ,#############################################,,   '####,        
                  ,##################################################,,,,####,       
                ,###########''''           ''''###############################       
              ,#####''   ,,,,##########,,,,          '''####'''          '####       
            ,##' ,,,,###########################,,,                        '##       
           ' ,,###''''                  '''############,,,                           
         ,,##''                                '''############,,,,        ,,,,,,###''
      ,#''                                            '''#######################'''  
     '                                                          ''''####''''         
             ,#######,   #######,   ,#######,      ##                                
            ,#'     '#,  ##    ##  ,#'     '#,    #''#        ######   ,####,        
            ##       ##  ##   ,#'  ##            #'  '#       #        #'  '#        
            ##       ##  #######   ##           ,######,      #####,   #    #        
            '#,     ,#'  ##    ##  '#,     ,#' ,#      #,         ##   #,  ,#        
             '#######'   ##     ##  '#######'  #'      '#     #####' # '####'        



                  #######################################################
                  #                        -***-                        #
                  #          Department of theory and spectroscopy      #
                  #    Directorship and core code : Frank Neese         #
                  #        Max Planck Institute fuer Kohlenforschung    #
                  #                Kaiser Wilhelm Platz 1               #
                  #                 D-45470 Muelheim/Ruhr               #
                  #                      Germany                        #
                  #                                                     #
                  #                  All rights reserved                #
                  #                        -***-                        #
                  #######################################################


                         Program Version 5.0.3 -  RELEASE  -


 With contributions from (in alphabetic order):
   Daniel Aravena         : Magnetic Suceptibility
   Michael Atanasov       : Ab Initio Ligand Field Theory (pilot matlab implementation)
   Alexander A. Auer      : GIAO ZORA, VPT2 properties, NMR spectrum
   Ute Becker             : Parallelization
   Giovanni Bistoni       : ED, misc. LED, open-shell LED, HFLD
   Martin Brehm           : Molecular dynamics
   Dmytro Bykov           : SCF Hessian
   Vijay G. Chilkuri      : MRCI spin determinant printing, contributions to CSF-ICE
   Dipayan Datta          : RHF DLPNO-CCSD density
   Achintya Kumar Dutta   : EOM-CC, STEOM-CC
   Dmitry Ganyushin       : Spin-Orbit,Spin-Spin,Magnetic field MRCI
   Miquel Garcia          : C-PCM and meta-GGA Hessian, CC/C-PCM, Gaussian charge scheme
   Yang Guo               : DLPNO-NEVPT2, F12-NEVPT2, CIM, IAO-localization
   Andreas Hansen         : Spin unrestricted coupled pair/coupled cluster methods
   Benjamin Helmich-Paris : MC-RPA, TRAH-SCF, COSX integrals
   Lee Huntington         : MR-EOM, pCC
   Robert Izsak           : Overlap fitted RIJCOSX, COSX-SCS-MP3, EOM
   Marcus Kettner         : VPT2
   Christian Kollmar      : KDIIS, OOCD, Brueckner-CCSD(T), CCSD density, CASPT2, CASPT2-K
   Simone Kossmann        : Meta GGA functionals, TD-DFT gradient, OOMP2, MP2 Hessian
   Martin Krupicka        : Initial AUTO-CI
   Lucas Lang             : DCDCAS
   Marvin Lechner         : AUTO-CI (C++ implementation), FIC-MRCC
   Dagmar Lenk            : GEPOL surface, SMD
   Dimitrios Liakos       : Extrapolation schemes; Compound Job, initial MDCI parallelization
   Dimitrios Manganas     : Further ROCIS development; embedding schemes
   Dimitrios Pantazis     : SARC Basis sets
   Anastasios Papadopoulos: AUTO-CI, single reference methods and gradients
   Taras Petrenko         : DFT Hessian,TD-DFT gradient, ASA, ECA, R-Raman, ABS, FL, XAS/XES, NRVS
   Peter Pinski           : DLPNO-MP2, DLPNO-MP2 Gradient
   Christoph Reimann      : Effective Core Potentials
   Marius Retegan         : Local ZFS, SOC
   Christoph Riplinger    : Optimizer, TS searches, QM/MM, DLPNO-CCSD(T), (RO)-DLPNO pert. Triples
   Tobias Risthaus        : Range-separated hybrids, TD-DFT gradient, RPA, STAB
   Michael Roemelt        : Original ROCIS implementation
   Masaaki Saitow         : Open-shell DLPNO-CCSD energy and density
   Barbara Sandhoefer     : DKH picture change effects
   Avijit Sen             : IP-ROCIS
   Kantharuban Sivalingam : CASSCF convergence, NEVPT2, FIC-MRCI
   Bernardo de Souza      : ESD, SOC TD-DFT
   Georgi Stoychev        : AutoAux, RI-MP2 NMR, DLPNO-MP2 response
   Willem Van den Heuvel  : Paramagnetic NMR
   Boris Wezisla          : Elementary symmetry handling
   Frank Wennmohs         : Technical directorship


 We gratefully acknowledge several colleagues who have allowed us to
 interface, adapt or use parts of their codes:
   Stefan Grimme, W. Hujo, H. Kruse, P. Pracht,  : VdW corrections, initial TS optimization,
                  C. Bannwarth, S. Ehlert          DFT functionals, gCP, sTDA/sTD-DF
   Ed Valeev, F. Pavosevic, A. Kumar             : LibInt (2-el integral package), F12 methods
   Garnet Chan, S. Sharma, J. Yang, R. Olivares  : DMRG
   Ulf Ekstrom                                   : XCFun DFT Library
   Mihaly Kallay                                 : mrcc  (arbitrary order and MRCC methods)
   Jiri Pittner, Ondrej Demel                    : Mk-CCSD
   Frank Weinhold                                : gennbo (NPA and NBO analysis)
   Christopher J. Cramer and Donald G. Truhlar   : smd solvation model
   Lars Goerigk                                  : TD-DFT with DH, B97 family of functionals
   V. Asgeirsson, H. Jonsson                     : NEB implementation
   FAccTs GmbH                                   : IRC, NEB, NEB-TS, DLPNO-Multilevel, CI-OPT
                                                   MM, QMMM, 2- and 3-layer-ONIOM, Crystal-QMMM,
                                                   LR-CPCM, SF, NACMEs, symmetry and pop. for TD-DFT,
                                                   nearIR, NL-DFT gradient (VV10), updates on ESD,
                                                   ML-optimized integration grids
   S Lehtola, MJT Oliveira, MAL Marques          : LibXC Library
   Liviu Ungur et al                             : ANISO software


 Your calculation uses the libint2 library for the computation of 2-el integrals
 For citations please refer to: http://libint.valeyev.net

 Your ORCA version has been built with support for libXC version: 5.1.0
 For citations please refer to: https://tddft.org/programs/libxc/

 This ORCA versions uses:
   CBLAS   interface :  Fast vector & matrix operations
   LAPACKE interface :  Fast linear algebra routines
   SCALAPACK package :  Parallel linear algebra routines
   Shared memory     :  Shared parallel matrices
   BLAS/LAPACK       :  OpenBLAS 0.3.15  USE64BITINT DYNAMIC_ARCH NO_AFFINITY Haswell SINGLE_THREADED
        Core in use  :  Haswell
   Copyright (c) 2011-2014, The OpenBLAS Project




***************************************
The coordinates will be read from file: pbe.xyz
***************************************


================================================================================

cite the ECPs for Au [Def2-ECP] as follows:
Ce-Yb(ecp-28): M. Dolg, H. Stoll, H.Preuss, J. Chem. Phys., 1989, 90, 1730-1734.
Y-Cd(ecp-28), Hf-Hg(ecp-46): D. Andrae,U. Haeussermann, M. Dolg, H. Stoll, H. Preuss, Theor. Chim. Acta, 1990, 77, 123-141.
In-Sb(ecp-28), Tl-Bi(ecp-46): B. Metz, H. Stoll, M. Dolg, J. Chem. Phys., 2000, 113, 2563-2569.
Te-Xe(ecp-28), Po-Rn(ecp-46): K. A. Peterson, D. Figgen, E. Goll, H. Stoll, M. Dolg, J. Chem. Phys., 2003, 119, 11113-11123.
Rb(ecp-28), Cs(ecp-46): T. Leininger, A. Nicklass, W. Kuechle, H. Stoll, M. Dolg, A. Bergner, Chem. Phys. Lett., 1996, 255, 274-280.
Sr(ecp-28), Ba(ecp-46): M. Kaupp, P. V. Schleyer, H. Stoll and H. Preuss, J. Chem. Phys., 1991, 94, 1360-1366.
La(ecp-46): M. Dolg, H. Stoll, A. Savin, H. Preuss, Theor. Chim. Acta, 1989, 75, 173-194.
Lu(ecp-28): X. Cao, M. Dolg, J. Chem. Phys., 2001, 115, 7348-7355.

ECP parameters for Au [Def2-ECP] have been obtained from:
TURBOMOLE (7.0.2)

----- Orbital basis set information -----
Your calculation utilizes the basis: def2-TZVP
   F. Weigend and R. Ahlrichs, Phys. Chem. Chem. Phys. 7, 3297 (2005).

----- AuxJ basis set information -----
Your calculation utilizes the auxiliary basis: def2/J
   F. Weigend, Phys. Chem. Chem. Phys. 8, 1057 (2006).

================================================================================
                                        WARNINGS
                       Please study these warnings very carefully!
================================================================================


WARNING: your system is open-shell and RHF/RKS was chosen
  ===> : WILL SWITCH to UHF/UKS


INFO   : the flag for use of the SHARK integral package has been found!



***************************************
The coordinates will be read from file: pbe.xyz
***************************************


================================================================================

cite the ECPs for Au [Def2-ECP] as follows:
Ce-Yb(ecp-28): M. Dolg, H. Stoll, H.Preuss, J. Chem. Phys., 1989, 90, 1730-1734.
Y-Cd(ecp-28), Hf-Hg(ecp-46): D. Andrae,U. Haeussermann, M. Dolg, H. Stoll, H. Preuss, Theor. Chim. Acta, 1990, 77, 123-141.
In-Sb(ecp-28), Tl-Bi(ecp-46): B. Metz, H. Stoll, M. Dolg, J. Chem. Phys., 2000, 113, 2563-2569.
Te-Xe(ecp-28), Po-Rn(ecp-46): K. A. Peterson, D. Figgen, E. Goll, H. Stoll, M. Dolg, J. Chem. Phys., 2003, 119, 11113-11123.
Rb(ecp-28), Cs(ecp-46): T. Leininger, A. Nicklass, W. Kuechle, H. Stoll, M. Dolg, A. Bergner, Chem. Phys. Lett., 1996, 255, 274-280.
Sr(ecp-28), Ba(ecp-46): M. Kaupp, P. V. Schleyer, H. Stoll and H. Preuss, J. Chem. Phys., 1991, 94, 1360-1366.
La(ecp-46): M. Dolg, H. Stoll, A. Savin, H. Preuss, Theor. Chim. Acta, 1989, 75, 173-194.
Lu(ecp-28): X. Cao, M. Dolg, J. Chem. Phys., 2001, 115, 7348-7355.

ECP parameters for Au [Def2-ECP] have been obtained from:
TURBOMOLE (7.0.2)

----- Orbital basis set information -----
Your calculation utilizes the basis: def2-TZVP
   F. Weigend and R. Ahlrichs, Phys. Chem. Chem. Phys. 7, 3297 (2005).

----- AuxJ basis set information -----
Your calculation utilizes the auxiliary basis: def2/J
   F. Weigend, Phys. Chem. Chem. Phys. 8, 1057 (2006).

================================================================================
                                        WARNINGS
                       Please study these warnings very carefully!
================================================================================


INFO   : the flag for use of the SHARK integral package has been found!

================================================================================
                                       INPUT FILE
================================================================================
NAME = pbeSP.inp
|  1> !PBE def2-TZVP VERYSLOWCONV
|  2> 
|  3> %scf
|  4>   AutoTRAHIter 200
|  5>   maxiter 400
|  6> end
|  7> 
|  8> 
|  9> %pal nprocs 6 end 
| 10> 
| 11> *xyzfile 0 5 pbe.xyz
| 12> 
| 13> $new_job
| 14> 
| 15> !PBE def2-TZVP VERYSLOWCONV
| 16> 
| 17> %scf
| 18>   AutoTRAHIter 200
| 19>   maxiter 400
| 20> end
| 21>  
| 22> 
| 23> %pal nprocs 6 end 
| 24> 
| 25> *xyzfile 0 3 pbe.xyz
| 26> 
| 27> 
| 28> 
| 29> 
| 30> 
| 31>                          ****END OF INPUT****
================================================================================


                 $$$$$$$$$$$$$$$$$$$$$$$$$$$$$$$$$$$$$$$$$$$$$$ 
                 $ THERE ARE  2 JOBS TO BE PROCESSED THIS RUN $
                 $$$$$$$$$$$$$$$$$$$$$$$$$$$$$$$$$$$$$$$$$$$$$$ 




                 $$$$$$$$$$$$$$$$  JOB NUMBER  1 $$$$$$$$$$$$$$


                       ****************************
                       * Single Point Calculation *
                       ****************************

---------------------------------
CARTESIAN COORDINATES (ANGSTROEM)
---------------------------------
  Au    11.524664    8.550357    8.129408
  Au     9.709825    7.340841    6.417815
  Au     9.905197   10.206893    6.606987
  Au     7.879516    9.166561    5.115028
  Au     7.094331    6.493481    5.754796
  Au     5.748141    7.970629    3.856802
  Au     7.203304   10.694558    7.477272
  Au     9.373423   11.427380    9.039072
  Au     7.330752    7.102025   10.345328
  Au     7.756401    9.859103   10.753732
  Au     8.235617    5.629679    8.083020
  Au    10.506433    9.393181   10.603968
  Au    10.070924    6.762779    9.775041
  Au     5.588229    6.505262    8.113424
  Au     5.392402    8.766993    6.471790
  Au     5.654142    9.082670    9.174227
  Cr     8.627925    8.652401    8.511178

----------------------------
CARTESIAN COORDINATES (A.U.)
----------------------------
  NO LB      ZA    FRAG     MASS         X           Y           Z
   0 Au   19.0000*   0   196.966   21.778459   16.157833   15.362354
   1 Au   19.0000*   0   196.966   18.348910   13.872180   12.127912
   2 Au   19.0000*   0   196.966   18.718109   19.288232   12.485395
   3 Au   19.0000*   0   196.966   14.890126   17.322290    9.666001
   4 Au   19.0000*   0   196.966   13.406342   12.270901   10.874988
   5 Au   19.0000*   0   196.966   10.862411   15.062306    7.288300
   6 Au   19.0000*   0   196.966   13.612272   20.209786   14.129997
   7 Au   19.0000*   0   196.966   17.713202   21.594618   17.081371
   8 Au   19.0000*   0   196.966   13.853113   13.420883   19.549836
   9 Au   19.0000*   0   196.966   14.657473   18.631004   20.321609
  10 Au   19.0000*   0   196.966   15.563061   10.638552   15.274693
  11 Au   19.0000*   0   196.966   19.854280   17.750540   20.038596
  12 Au   19.0000*   0   196.966   19.031288   12.779800   18.472151
  13 Au   19.0000*   0   196.966   10.560222   12.293164   15.332150
  14 Au   19.0000*   0   196.966   10.190163   16.567217   12.229911
  15 Au   19.0000*   0   196.966   10.684780   17.163758   17.336776
  16 Cr   24.0000    0    52.000   16.304416   16.350668   16.083795
* core charge reduced due to ECP

--------------------------------
INTERNAL COORDINATES (ANGSTROEM)
--------------------------------
 Au     0   0   0     0.000000000000     0.00000000     0.00000000
 Au     1   0   0     2.772385349745     0.00000000     0.00000000
 Au     1   2   0     2.772102019767    62.56269211     0.00000000
 Au     3   1   2     2.722428608947   120.48458967     7.45059394
 Au     2   1   3     2.828148257483   151.74382513   281.54781357
 Au     4   3   1     2.748843820155   173.73745869    50.40980344
 Au     3   1   2     2.880180151145   118.89933684    80.29408029
 Au     7   3   1     2.772302417321    58.71156104    61.43312680
 Au     2   1   3     4.598084477482    80.44600706   262.02742165
 Au     9   2   1     2.819476358449    89.70357595    51.36205315
 Au     5   2   1     2.733004455496    60.57984111   303.68860875
 Au    10   9   2     2.793239448576    88.72529483   303.14728681
 Au    11   5   2     2.741387123223   132.43334429    30.09063472
 Au    11   5   2     2.788589732931    60.89573603   135.45668235
 Au     6   4   3     2.756611369122    62.62327404    37.20903073
 Au    15   6   4     2.733371901667   163.51507876   302.69282310
 Cr    10   9   2     2.691604545985    59.32275153     3.38039134

---------------------------
INTERNAL COORDINATES (A.U.)
---------------------------
 Au     0   0   0     0.000000000000     0.00000000     0.00000000
 Au     1   0   0     5.239049048714     0.00000000     0.00000000
 Au     1   2   0     5.238513632650    62.56269211     0.00000000
 Au     3   1   2     5.144644490062   120.48458967     7.45059394
 Au     2   1   3     5.344425672769   151.74382513   281.54781357
 Au     4   3   1     5.194562005015   173.73745869    50.40980344
 Au     3   1   2     5.442751702019   118.89933684    80.29408029
 Au     7   3   1     5.238892329144    58.71156104    61.43312680
 Au     2   1   3     8.689120403076    80.44600706   262.02742165
 Au     9   2   1     5.328038158535    89.70357595    51.36205315
 Au     5   2   1     5.164629943675    60.57984111   303.68860875
 Au    10   9   2     5.278457584273    88.72529483   303.14728681
 Au    11   5   2     5.180470889950   132.43334429    30.09063472
 Au    11   5   2     5.269670895105    60.89573603   135.45668235
 Au     6   4   3     5.209240545294    62.62327404    37.20903073
 Au    15   6   4     5.165324316305   163.51507876   302.69282310
 Cr    10   9   2     5.086395452729    59.32275153     3.38039134

---------------------
BASIS SET INFORMATION
---------------------
There are 2 groups of distinct atoms

 Group   1 Type Au  : 8s7p6d1f contracted to 6s4p3d1f pattern {311111/4111/411/1}
 Group   2 Type Cr  : 17s11p7d1f contracted to 6s4p4d1f pattern {842111/6311/4111/1}

Atom   0Au   basis set group =>   1
Atom   1Au   basis set group =>   1
Atom   2Au   basis set group =>   1
Atom   3Au   basis set group =>   1
Atom   4Au   basis set group =>   1
Atom   5Au   basis set group =>   1
Atom   6Au   basis set group =>   1
Atom   7Au   basis set group =>   1
Atom   8Au   basis set group =>   1
Atom   9Au   basis set group =>   1
Atom  10Au   basis set group =>   1
Atom  11Au   basis set group =>   1
Atom  12Au   basis set group =>   1
Atom  13Au   basis set group =>   1
Atom  14Au   basis set group =>   1
Atom  15Au   basis set group =>   1
Atom  16Cr   basis set group =>   2
---------------------------------
AUXILIARY/J BASIS SET INFORMATION
---------------------------------
There are 2 groups of distinct atoms

 Group   1 Type Au  : 11s5p5d3f3g contracted to 8s5p5d2f3g pattern {41111111/11111/11111/21/111}
 Group   2 Type Cr  : 19s5p5d3f3g contracted to 8s5p5d2f3g pattern {121111111/11111/11111/21/111}

Atom   0Au   basis set group =>   1
Atom   1Au   basis set group =>   1
Atom   2Au   basis set group =>   1
Atom   3Au   basis set group =>   1
Atom   4Au   basis set group =>   1
Atom   5Au   basis set group =>   1
Atom   6Au   basis set group =>   1
Atom   7Au   basis set group =>   1
Atom   8Au   basis set group =>   1
Atom   9Au   basis set group =>   1
Atom  10Au   basis set group =>   1
Atom  11Au   basis set group =>   1
Atom  12Au   basis set group =>   1
Atom  13Au   basis set group =>   1
Atom  14Au   basis set group =>   1
Atom  15Au   basis set group =>   1
Atom  16Cr   basis set group =>   2
-------------------------
ECP PARAMETER INFORMATION
-------------------------

 Group 1, Type Au ECP Def2-ECP (replacing 60 core electrons, lmax=3)

Atom   0Au   ECP group =>   1
Atom   1Au   ECP group =>   1
Atom   2Au   ECP group =>   1
Atom   3Au   ECP group =>   1
Atom   4Au   ECP group =>   1
Atom   5Au   ECP group =>   1
Atom   6Au   ECP group =>   1
Atom   7Au   ECP group =>   1
Atom   8Au   ECP group =>   1
Atom   9Au   ECP group =>   1
Atom  10Au   ECP group =>   1
Atom  11Au   ECP group =>   1
Atom  12Au   ECP group =>   1
Atom  13Au   ECP group =>   1
Atom  14Au   ECP group =>   1
Atom  15Au   ECP group =>   1



           ************************************************************
           *        Program running with 6 parallel MPI-processes     *
           *              working on a common directory               *
           ************************************************************
------------------------------------------------------------------------------
                           ORCA GTO INTEGRAL CALCULATION
                           -- RI-GTO INTEGRALS CHOSEN --
------------------------------------------------------------------------------
------------------------------------------------------------------------------
                   ___                                                        
                  /   \      - P O W E R E D   B Y -                         
                 /     \                                                     
                 |  |  |   _    _      __       _____    __    __             
                 |  |  |  | |  | |    /  \     |  _  \  |  |  /  |          
                  \  \/   | |  | |   /    \    | | | |  |  | /  /          
                 / \  \   | |__| |  /  /\  \   | |_| |  |  |/  /          
                |  |  |   |  __  | /  /__\  \  |    /   |      \           
                |  |  |   | |  | | |   __   |  |    \   |  |\   \          
                \     /   | |  | | |  |  |  |  | |\  \  |  | \   \       
                 \___/    |_|  |_| |__|  |__|  |_| \__\ |__|  \__/        
                                                                              
                      - O R C A' S   B I G   F R I E N D -                    
                                      &                                       
                       - I N T E G R A L  F E E D E R -                       
                                                                              
 v1 FN, 2020, v2 2021                                                         
------------------------------------------------------------------------------


Reading SHARK input file pbeSP.SHARKINP.tmp ... ok
----------------------
SHARK INTEGRAL PACKAGE
----------------------

Number of atoms                             ...     17
Number of basis functions                   ...    685
Number of shells                            ...    239
Maximum angular momentum                    ...      3
Integral batch strategy                     ... SHARK/LIBINT Hybrid
RI-J (if used) integral strategy            ... SPLIT-RIJ (Revised 2003 algorithm where possible)
Printlevel                                  ...      1
Contraction scheme used                     ... SEGMENTED contraction
Coulomb Range Separation                    ... NOT USED
Exchange Range Separation                   ... NOT USED
Finite Nucleus Model                        ... NOT USED
Auxiliary Coulomb fitting basis             ... AVAILABLE
   # of basis functions in Aux-J            ...   1513
   # of shells in Aux-J                     ...    391
   Maximum angular momentum in Aux-J        ...      4
Auxiliary J/K fitting basis                 ... NOT available
Auxiliary Correlation fitting basis         ... NOT available
Auxiliary 'external' fitting basis          ... NOT available
Integral threshold                          ...     1.000000e-10
Primitive cut-off                           ...     1.000000e-11
Primitive pair pre-selection threshold      ...     1.000000e-11

Calculating pre-screening integrals         ... done (  0.4 sec) Dimension = 239
Organizing shell pair data                  ... done (  0.9 sec)
Shell pair information
Total number of shell pairs                 ...     28680
Shell pairs after pre-screening             ...     22181
Total number of primitive shell pairs       ...     75765
Primitive shell pairs kept                  ...     42090
          la=0 lb=0:   3499 shell pairs
          la=1 lb=0:   5061 shell pairs
          la=1 lb=1:   1903 shell pairs
          la=2 lb=0:   4407 shell pairs
          la=2 lb=1:   3107 shell pairs
          la=2 lb=2:   1286 shell pairs
          la=3 lb=0:   1145 shell pairs
          la=3 lb=1:    876 shell pairs
          la=3 lb=2:    777 shell pairs
          la=3 lb=3:    120 shell pairs

Calculating one electron integrals          ... done (  0.1 sec)
Calculating ECP integrals                   ... done ( 28.2 sec)
Calculating RI/J V-Matrix + Cholesky decomp.... done (  3.2 sec)
Calculating Nuclear repulsion               ... done (  0.0 sec) ENN=   6924.306185719298 Eh

SHARK setup successfully completed in  34.4 seconds

Maximum memory used throughout the entire GTOINT-calculation: 41.0 MB


           ************************************************************
           *        Program running with 6 parallel MPI-processes     *
           *              working on a common directory               *
           ************************************************************
-------------------------------------------------------------------------------
                                 ORCA SCF
-------------------------------------------------------------------------------

------------
SCF SETTINGS
------------
Hamiltonian:
 Density Functional     Method          .... DFT(GTOs)
 Exchange Functional    Exchange        .... PBE
   PBE kappa parameter   XKappa         ....  0.804000
   PBE mue parameter    XMuePBE         ....  0.219520
 Correlation Functional Correlation     .... PBE
   PBE beta parameter  CBetaPBE         ....  0.066725
 LDA part of GGA corr.  LDAOpt          .... PW91-LDA
 Gradients option       PostSCFGGA      .... off
   Density functional embedding theory  .... OFF
   NL short-range parameter             ....  6.400000
 RI-approximation to the Coulomb term is turned on
   Number of AuxJ basis functions       .... 1513


General Settings:
 Integral files         IntName         .... pbeSP
 Hartree-Fock type      HFTyp           .... UHF
 Total Charge           Charge          ....    0
 Multiplicity           Mult            ....    5
 Number of Electrons    NEL             ....  328
 Basis Dimension        Dim             ....  685
 Nuclear Repulsion      ENuc            ....   6924.3061857193 Eh

Convergence Acceleration:
 DIIS                   CNVDIIS         .... on
   Start iteration      DIISMaxIt       ....     0
   Startup error        DIISStart       ....  0.200000
   # of expansion vecs  DIISMaxEq       ....     5
   Bias factor          DIISBfac        ....   1.050
   Max. coefficient     DIISMaxC        ....  10.000
 Trust-Rad. Augm. Hess. CNVTRAH         .... auto
   Auto Start mean grad. ratio tolernc. ....  1.125000
   Auto Start start iteration           ....   200
   Auto Start num. interpolation iter.  ....    10
   Max. Number of Micro iterations      ....    16
   Max. Number of Macro iterations      .... Maxiter - #DIIS iter
   Number of Davidson start vectors     ....     2
   Converg. threshold I  (grad. norm)   ....   5.000e-05
   Converg. threshold II (energy diff.) ....   1.000e-06
   Grad. Scal. Fac. for Micro threshold ....   0.100
   Minimum threshold for Micro iter.    ....   0.010
   NR start threshold (gradient norm)   ....   0.001
   Initial trust radius                 ....   0.400
   Minimum AH scaling param. (alpha)    ....   1.000
   Maximum AH scaling param. (alpha)    .... 1000.000
   Orbital update algorithm             .... Taylor
   White noise on init. David. guess    .... on
   Maximum white noise                  ....   0.010
   Quad. conv. algorithm                .... NR
 SOSCF                  CNVSOSCF        .... off
 Level Shifting         CNVShift        .... on
   Level shift para.    LevelShift      ....    0.2500
   Turn off err/grad.   ShiftErr        ....    0.0000
 Zerner damping         CNVZerner       .... off
 Static damping         CNVDamp         .... on
   Fraction old density DampFac         ....    0.9200
   Max. Damping (<1)    DampMax         ....    0.9800
   Min. Damping (>=0)   DampMin         ....    0.0000
   Turn off err/grad.   DampErr         ....    0.0030
 Fernandez-Rico         CNVRico         .... off

SCF Procedure:
 Maximum # iterations   MaxIter         ....   400
 SCF integral mode      SCFMode         .... Direct
   Integral package                     .... SHARK and LIBINT hybrid scheme
 Reset frequency        DirectResetFreq ....    20
 Integral Threshold     Thresh          ....  1.000e-10 Eh
 Primitive CutOff       TCut            ....  1.000e-11 Eh

Convergence Tolerance:
 Convergence Check Mode ConvCheckMode   .... Total+1el-Energy
 Convergence forced     ConvForced      .... 0
 Energy Change          TolE            ....  1.000e-06 Eh
 1-El. energy change                    ....  1.000e-03 Eh
 DIIS Error             TolErr          ....  1.000e-06


Diagonalization of the overlap matrix:
Smallest eigenvalue                        ... 9.831e-05
Time for diagonalization                   ...    0.152 sec
Threshold for overlap eigenvalues          ... 1.000e-08
Number of eigenvalues below threshold      ... 0
Time for construction of square roots      ...    0.357 sec
Total time needed                          ...    0.729 sec

Time for model grid setup =    3.552 sec

------------------------------
INITIAL GUESS: MODEL POTENTIAL
------------------------------
Loading Hartree-Fock densities                     ... done
  calling /media/Programs/ORCA501/orca pbeSP_atom79.inp > pbeSP_atom79.out in order to generate an atomic fitting density for atom 0 (Au with ECP) on-the-fly... 
    atom 0 (Au), assumed electronic state with S=2: 1s2 2s2 2p6 3s2 3p6 4s2 3d10 4p6 5s2 4d10 5p6 6s1 4f14 5d10           ... done
Calculating cut-offs                               ... done
Initializing the effective Hamiltonian             ... done
Setting up the integral package (SHARK)            ... done
Starting the Coulomb interaction                   ... done (   2.2 sec)
Reading the grid                                   ... done
Mapping shells                                     ... done
Starting the XC term evaluation                    ... done (   1.4 sec)
  promolecular density results
     # of electrons  =   1288.016715594
     EX              =  -5900.420545838
     EC              =    -78.557716639
     EX+EC           =  -5978.978262477
Transforming the Hamiltonian                       ... done (   1.1 sec)
Diagonalizing the Hamiltonian                      ... done (   1.1 sec)
Back transforming the eigenvectors                 ... done (   0.1 sec)
Now organizing SCF variables                       ... done
                      ------------------
                      INITIAL GUESS DONE (  11.4 sec)
                      ------------------
-------------------
DFT GRID GENERATION
-------------------

General Integration Accuracy     IntAcc      ... 4.388
Radial Grid Type                 RadialGrid  ... OptM3 with GC (2021)
Angular Grid (max. ang.)         AngularGrid ... 4 (Lebedev-302)
Angular grid pruning method      GridPruning ... 4 (adaptive)
Weight generation scheme         WeightScheme... Becke
Basis function cutoff            BFCut       ... 1.0000e-10
Integration weight cutoff        WCut        ... 1.0000e-14
Angular grids for H and He will be reduced by one unit
Partially contracted basis set               ... off
Rotationally invariant grid construction     ... off

Total number of grid points                  ...   186985
Total number of batches                      ...     2933
Average number of points per batch           ...       63
Average number of grid points per atom       ...    10999
Time for grid setup =    5.958 sec

--------------
SCF ITERATIONS
--------------
ITER       Energy         Delta-E        Max-DP      RMS-DP      [F,P]     Damp
               ***  Starting incremental Fock matrix formation  ***
  0  -3215.5472562033   0.000000000000 0.14039202  0.00064884  0.3416981 0.9200
  1  -3216.1341526582  -0.586896454889 0.11163788  0.00059784  0.2629202 0.9200
                               ***Turning on DIIS***
  2  -3216.4515772036  -0.317424545412 0.12772031  0.00050170  0.2406003 0.9200
  3  -3216.5850792590  -0.133502055398 0.07635392  0.00039157  0.2202467 0.9200
  4  -3216.6400090233  -0.054929764261 0.05842333  0.00028663  0.2018267 0.9200
  5  -3216.7055486431  -0.065539619841 0.03626167  0.00024776  0.1849933 0.9200
  6  -3216.7594240543  -0.053875411164 0.04178362  0.00019754  0.1698562 0.9200
  7  -3216.7965619416  -0.037137887331 0.06772414  0.00020557  0.1564631 0.9200
  8  -3216.8501080297  -0.053546088065 0.03667703  0.00024782  0.1439941 0.9200
  9  -3216.9049951305  -0.054887100804 0.06388214  0.00020035  0.1322436 0.9200
 10  -3216.9478611607  -0.042866030214 0.05630566  0.00015805  0.1215341 0.9200
 11  -3216.9907943536  -0.042933192864 0.05026089  0.00015806  0.1115769 0.9200
 12  -3217.0236120753  -0.032817721774 0.06644549  0.00015508  0.1025371 0.9200
 13  -3217.0564162100  -0.032804134627 0.05999514  0.00015421  0.0943465 0.9200
 14  -3217.0930612888  -0.036645078834 0.06162858  0.00015135  0.0867320 0.9200
 15  -3217.1248014453  -0.031740156529 0.06067073  0.00012782  0.0797482 0.9200
 16  -3217.1536021160  -0.028800670620 0.04574841  0.00011680  0.0733188 0.9200
 17  -3217.1796467752  -0.026044659249 0.05190238  0.00011692  0.0673368 0.9200
 18  -3217.2029271942  -0.023280418953 0.05406506  0.00011474  0.0619102 0.9200
 19  -3217.2260944830  -0.023167288871 0.04443882  0.00010875  0.0569339 0.9200
               *** Restarting incremental Fock matrix formation ***
                                   *** Resetting DIIS ***
 20  -3217.2477376487  -0.021643165710 0.03773141  0.00009303  0.0523508 0.9200
 21  -3217.2673268269  -0.019589178203 0.03350229  0.00008268  0.0480459 0.9200
 22  -3217.2856092656  -0.018282438663 0.03451422  0.00008067  0.0441043 0.9200
 23  -3217.3024492198  -0.016839954195 0.03901743  0.00008055  0.0405265 0.9200
 24  -3217.3179995284  -0.015550308596 0.03891181  0.00007779  0.0372771 0.9200
 25  -3217.3323629077  -0.014363379336 0.03500493  0.00007187  0.0342991 0.9200
 26  -3217.3455717469  -0.013208839167 0.02975494  0.00006465  0.0315448 0.9200
 27  -3217.3578592710  -0.012287524106 0.02690667  0.00006115  0.0290015 0.9200
 28  -3217.3691860606  -0.011326789604 0.02765213  0.00005910  0.0266614 0.9200
 29  -3217.3796442876  -0.010458226967 0.02704360  0.00005641  0.0245189 0.9200
 30  -3217.3892776871  -0.009633399524 0.02436039  0.00005169  0.0225526 0.9200
 31  -3217.3981655067  -0.008887819574 0.02095538  0.00004727  0.0207437 0.9200
 32  -3217.4064015619  -0.008236055258 0.01948000  0.00004479  0.0190746 0.9200
 33  -3217.4139931524  -0.007591590464 0.01969158  0.00004293  0.0175380 0.9200
 34  -3217.4209974446  -0.007004292177 0.01911469  0.00004066  0.0161280 0.9200
 35  -3217.4274450496  -0.006447605059 0.01710205  0.00003721  0.0148339 0.9200
 36  -3217.4334010455  -0.005955995847 0.01503822  0.00003445  0.0136438 0.9200
 37  -3217.4389045456  -0.005503500169 0.01437948  0.00003272  0.0125463 0.9200
 38  -3217.4439768856  -0.005072339998 0.01426482  0.00003118  0.0115366 0.9200
 39  -3217.4486522313  -0.004675345697 0.00665504  0.00002579  0.0106095 0.9200
               *** Restarting incremental Fock matrix formation ***
                                   *** Resetting DIIS ***
 40  -3217.4529588127  -0.004306581382 0.00742021  0.00002365  0.0097582 0.9200
 41  -3217.4569388460  -0.003980033237 0.00731522  0.00002204  0.0089604 0.9200
 42  -3217.4606084521  -0.003669606100 0.00766281  0.00002114  0.0082307 0.9200
 43  -3217.4639886288  -0.003380176702 0.00791106  0.00002048  0.0075666 0.9200
 44  -3217.4671015998  -0.003112971062 0.00771527  0.00001967  0.0069599 0.9200
 45  -3217.4699699308  -0.002868331018 0.00716122  0.00001862  0.0064027 0.9200
 46  -3217.4726137685  -0.002643837676 0.00659282  0.00001767  0.0058882 0.9200
 47  -3217.4750499138  -0.002436145308 0.00616540  0.00001681  0.0054144 0.9200
 48  -3217.4772939764  -0.002244062552 0.00570297  0.00001595  0.0049794 0.9200
 49  -3217.4793610721  -0.002067095728 0.00517318  0.00001508  0.0045801 0.9200
 50  -3217.4812657631  -0.001904691017 0.00472035  0.00001429  0.0042129 0.9200
 51  -3217.4830207045  -0.001754941407 0.00462225  0.00001359  0.0038746 0.9200
 52  -3217.4846372674  -0.001616562871 0.00466541  0.00001298  0.0035634 0.9200
 53  -3217.4861261417  -0.001488874349 0.00470833  0.00001238  0.0032772 0.9200
 54  -3217.4874975204  -0.001371378610 0.00470102  0.00001179  0.0030143 0.9200
 55  -3217.4887607957  -0.001263275358 0.05703362  0.00013972  0.0027724 0.0000
 56  -3217.5033781661  -0.014617370412 0.01016407  0.00001639  0.0004343 0.0000
 57  -3217.5033716854   0.000006480745 0.00231090  0.00000648  0.0012002 0.0000
 58  -3217.5033872938  -0.000015608378 0.00060757  0.00000440  0.0004825 0.0000
 59  -3217.5033933427  -0.000006048913 0.04047644  0.00005015  0.0000979 0.0000
               *** Restarting incremental Fock matrix formation ***
                                   *** Resetting DIIS ***
 60  -3217.5033971828  -0.000003840093 0.00066226  0.00000401  0.0000813 0.0000
 61  -3217.5034002727  -0.000003089945 0.00027969  0.00000329  0.0001541 0.0000
 62  -3217.5034030446  -0.000002771872 0.00030386  0.00000331  0.0000827 0.0000
 63  -3217.5034055342  -0.000002489574 0.00045184  0.00000312  0.0000768 0.0000
 64  -3217.5034076628  -0.000002128626 0.00101954  0.00000368  0.0000932 0.0000
 65  -3217.5034097581  -0.000002095329 0.00028263  0.00000282  0.0001166 0.0000
 66  -3217.5034117123  -0.000001954168 0.00170718  0.00000405  0.0000576 0.0000
 67  -3217.5034131694  -0.000001457071 0.00039298  0.00000260  0.0001457 0.0000
 68  -3217.5034149595  -0.000001790188 0.00078417  0.00000261  0.0000861 0.0000
 69  -3217.5034166083  -0.000001648789 0.00080423  0.00000265  0.0000530 0.0000
 70  -3217.5034179871  -0.000001378745 0.00110600  0.00000277  0.0000544 0.0000
 71  -3217.5034190890  -0.000001101881 0.00103903  0.00000254  0.0000810 0.0000
 72  -3217.5034203728  -0.000001283824 0.00101180  0.00000252  0.0000836 0.0000
 73  -3217.5034214276  -0.000001054811 0.00046173  0.00000227  0.0000520 0.0000
 74  -3217.5034225842  -0.000001156628 0.00065135  0.00000220  0.0000819 0.0000
 75  -3217.5034234900  -0.000000905801 0.00063037  0.00000226  0.0000533 0.0000
 76  -3217.5034244695  -0.000000979459 0.00107921  0.00000263  0.0000446 0.0000
                 **** Energy Check signals convergence ****

               *****************************************************
               *                     SUCCESS                       *
               *           SCF CONVERGED AFTER  77 CYCLES          *
               *****************************************************


----------------
TOTAL SCF ENERGY
----------------

Total Energy       :        -3217.50342536 Eh          -87552.71930 eV

Components:
Nuclear Repulsion  :         6924.30618572 Eh          188419.95040 eV
Electronic Energy  :       -10141.80961108 Eh         -275972.66970 eV
One Electron Energy:       -19090.57094401 Eh         -519480.84528 eV
Two Electron Energy:         8948.76133293 Eh          243508.17559 eV

Virial components:
Potential Energy   :        -4992.73493495 Eh         -135859.22453 eV
Kinetic Energy     :         1775.23150959 Eh           48306.50523 eV
Virial Ratio       :            2.81244159


DFT components:
N(Alpha)           :      165.999923023004 electrons
N(Beta)            :      161.999929430505 electrons
N(Total)           :      327.999852453510 electrons
E(X)               :     -240.291023982347 Eh       
E(C)               :      -14.312997386397 Eh       
E(XC)              :     -254.604021368744 Eh       
DFET-embed. en.    :        0.000000000000 Eh       

---------------
SCF CONVERGENCE
---------------

  Last Energy change         ...   -8.9079e-07  Tolerance :   1.0000e-06
  Last MAX-Density change    ...    1.4417e-03  Tolerance :   1.0000e-05
  Last RMS-Density change    ...    3.1541e-06  Tolerance :   1.0000e-06
  Last DIIS Error            ...    4.0027e-05  Tolerance :   1.0000e-06

             **** THE GBW FILE WAS UPDATED (pbeSP.gbw) ****
             **** DENSITY pbeSP.scfp WAS UPDATED ****
             **** ENERGY FILE WAS UPDATED (pbeSP.en.tmp) ****
----------------------
UHF SPIN CONTAMINATION
----------------------

Warning: in a DFT calculation there is little theoretical justification to 
         calculate <S**2> as in Hartree-Fock theory. We will do it anyways
         but you should keep in mind that the values have only limited relevance

Expectation value of <S**2>     :     6.180729
Ideal value S*(S+1) for S=2.0   :     6.000000
Deviation                       :     0.180729

             **** THE GBW FILE WAS UPDATED (pbeSP.gbw) ****
             **** DENSITY pbeSP.scfp WAS UPDATED ****
----------------
ORBITAL ENERGIES
----------------
                 SPIN UP ORBITALS
  NO   OCC          E(Eh)            E(eV) 
   0   1.0000    -214.488688     -5836.5339 
   1   1.0000     -24.287245      -660.8895 
   2   1.0000     -20.653531      -562.0111 
   3   1.0000     -20.651132      -561.9459 
   4   1.0000     -20.646523      -561.8205 
   5   1.0000      -4.035794      -109.8195 
   6   1.0000      -4.035755      -109.8185 
   7   1.0000      -4.035221      -109.8040 
   8   1.0000      -4.032373      -109.7265 
   9   1.0000      -4.032325      -109.7251 
  10   1.0000      -4.028895      -109.6318 
  11   1.0000      -4.028529      -109.6218 
  12   1.0000      -4.028401      -109.6184 
  13   1.0000      -4.026922      -109.5781 
  14   1.0000      -4.026915      -109.5779 
  15   1.0000      -4.026806      -109.5750 
  16   1.0000      -4.025933      -109.5512 
  17   1.0000      -4.025898      -109.5503 
  18   1.0000      -4.025683      -109.5444 
  19   1.0000      -4.024665      -109.5167 
  20   1.0000      -4.012512      -109.1860 
  21   1.0000      -2.795972       -76.0823 
  22   1.0000      -2.251479       -61.2659 
  23   1.0000      -2.251282       -61.2605 
  24   1.0000      -2.250821       -61.2480 
  25   1.0000      -2.249303       -61.2067 
  26   1.0000      -2.249205       -61.2040 
  27   1.0000      -2.248272       -61.1786 
  28   1.0000      -2.248194       -61.1765 
  29   1.0000      -2.247714       -61.1634 
  30   1.0000      -2.247641       -61.1614 
  31   1.0000      -2.247429       -61.1557 
  32   1.0000      -2.247158       -61.1483 
  33   1.0000      -2.246740       -61.1369 
  34   1.0000      -2.246580       -61.1325 
  35   1.0000      -2.245434       -61.1014 
  36   1.0000      -2.245245       -61.0962 
  37   1.0000      -2.244769       -61.0833 
  38   1.0000      -2.243406       -61.0462 
  39   1.0000      -2.242962       -61.0341 
  40   1.0000      -2.242487       -61.0212 
  41   1.0000      -2.242214       -61.0137 
  42   1.0000      -2.241838       -61.0035 
  43   1.0000      -2.241469       -60.9935 
  44   1.0000      -2.241112       -60.9838 
  45   1.0000      -2.240903       -60.9781 
  46   1.0000      -2.240657       -60.9714 
  47   1.0000      -2.240454       -60.9659 
  48   1.0000      -2.240038       -60.9545 
  49   1.0000      -2.239553       -60.9413 
  50   1.0000      -2.239331       -60.9353 
  51   1.0000      -2.238919       -60.9241 
  52   1.0000      -2.238821       -60.9214 
  53   1.0000      -2.238540       -60.9138 
  54   1.0000      -2.238373       -60.9092 
  55   1.0000      -2.238141       -60.9029 
  56   1.0000      -2.237883       -60.8959 
  57   1.0000      -2.237414       -60.8831 
  58   1.0000      -2.237377       -60.8821 
  59   1.0000      -2.236388       -60.8552 
  60   1.0000      -2.236295       -60.8527 
  61   1.0000      -2.236264       -60.8518 
  62   1.0000      -2.235956       -60.8434 
  63   1.0000      -2.235831       -60.8401 
  64   1.0000      -2.235675       -60.8358 
  65   1.0000      -2.235647       -60.8351 
  66   1.0000      -2.235172       -60.8221 
  67   1.0000      -2.226846       -60.5956 
  68   1.0000      -2.226438       -60.5845 
  69   1.0000      -2.222446       -60.4758 
  70   1.0000      -1.790342       -48.7177 
  71   1.0000      -1.786902       -48.6241 
  72   1.0000      -1.780716       -48.4558 
  73   1.0000      -0.429410       -11.6848 
  74   1.0000      -0.400280       -10.8922 
  75   1.0000      -0.386180       -10.5085 
  76   1.0000      -0.385878       -10.5003 
  77   1.0000      -0.375346       -10.2137 
  78   1.0000      -0.373639       -10.1672 
  79   1.0000      -0.372177       -10.1274 
  80   1.0000      -0.367558       -10.0018 
  81   1.0000      -0.365661        -9.9502 
  82   1.0000      -0.364011        -9.9052 
  83   1.0000      -0.362352        -9.8601 
  84   1.0000      -0.359169        -9.7735 
  85   1.0000      -0.357647        -9.7321 
  86   1.0000      -0.355642        -9.6775 
  87   1.0000      -0.353642        -9.6231 
  88   1.0000      -0.352240        -9.5849 
  89   1.0000      -0.350620        -9.5408 
  90   1.0000      -0.348536        -9.4842 
  91   1.0000      -0.348245        -9.4762 
  92   1.0000      -0.344450        -9.3730 
  93   1.0000      -0.344187        -9.3658 
  94   1.0000      -0.339896        -9.2490 
  95   1.0000      -0.339052        -9.2261 
  96   1.0000      -0.338937        -9.2229 
  97   1.0000      -0.336513        -9.1570 
  98   1.0000      -0.333656        -9.0792 
  99   1.0000      -0.331213        -9.0128 
 100   1.0000      -0.330451        -8.9920 
 101   1.0000      -0.327663        -8.9162 
 102   1.0000      -0.326118        -8.8741 
 103   1.0000      -0.324376        -8.8267 
 104   1.0000      -0.324176        -8.8213 
 105   1.0000      -0.321014        -8.7352 
 106   1.0000      -0.319351        -8.6900 
 107   1.0000      -0.319145        -8.6844 
 108   1.0000      -0.312308        -8.4983 
 109   1.0000      -0.310922        -8.4606 
 110   1.0000      -0.309499        -8.4219 
 111   1.0000      -0.308778        -8.4023 
 112   1.0000      -0.303614        -8.2617 
 113   1.0000      -0.297284        -8.0895 
 114   1.0000      -0.297009        -8.0820 
 115   1.0000      -0.293761        -7.9936 
 116   1.0000      -0.293256        -7.9799 
 117   1.0000      -0.292713        -7.9651 
 118   1.0000      -0.289760        -7.8848 
 119   1.0000      -0.287747        -7.8300 
 120   1.0000      -0.285443        -7.7673 
 121   1.0000      -0.285283        -7.7630 
 122   1.0000      -0.282602        -7.6900 
 123   1.0000      -0.282257        -7.6806 
 124   1.0000      -0.279604        -7.6084 
 125   1.0000      -0.278328        -7.5737 
 126   1.0000      -0.276780        -7.5316 
 127   1.0000      -0.274106        -7.4588 
 128   1.0000      -0.273813        -7.4508 
 129   1.0000      -0.273100        -7.4314 
 130   1.0000      -0.271444        -7.3864 
 131   1.0000      -0.270197        -7.3524 
 132   1.0000      -0.269672        -7.3382 
 133   1.0000      -0.269493        -7.3333 
 134   1.0000      -0.266516        -7.2523 
 135   1.0000      -0.265526        -7.2253 
 136   1.0000      -0.262292        -7.1373 
 137   1.0000      -0.261056        -7.1037 
 138   1.0000      -0.259306        -7.0561 
 139   1.0000      -0.258473        -7.0334 
 140   1.0000      -0.258359        -7.0303 
 141   1.0000      -0.257859        -7.0167 
 142   1.0000      -0.257614        -7.0100 
 143   1.0000      -0.254961        -6.9378 
 144   1.0000      -0.254513        -6.9256 
 145   1.0000      -0.252761        -6.8780 
 146   1.0000      -0.251286        -6.8378 
 147   1.0000      -0.250554        -6.8179 
 148   1.0000      -0.249138        -6.7794 
 149   1.0000      -0.249040        -6.7767 
 150   1.0000      -0.247314        -6.7298 
 151   1.0000      -0.244327        -6.6485 
 152   1.0000      -0.243522        -6.6266 
 153   1.0000      -0.242029        -6.5859 
 154   1.0000      -0.239968        -6.5299 
 155   1.0000      -0.237654        -6.4669 
 156   1.0000      -0.235958        -6.4207 
 157   1.0000      -0.230162        -6.2630 
 158   1.0000      -0.225167        -6.1271 
 159   1.0000      -0.222450        -6.0532 
 160   1.0000      -0.218266        -5.9393 
 161   1.0000      -0.215962        -5.8766 
 162   1.0000      -0.209232        -5.6935 
 163   1.0000      -0.196009        -5.3337 
 164   1.0000      -0.192993        -5.2516 
 165   1.0000      -0.179267        -4.8781 
 166   0.0000      -0.176072        -4.7912 
 167   0.0000      -0.171912        -4.6780 
 168   0.0000      -0.142152        -3.8682 
 169   0.0000      -0.135928        -3.6988 
 170   0.0000      -0.126564        -3.4440 
 171   0.0000      -0.125592        -3.4175 
 172   0.0000      -0.119347        -3.2476 
 173   0.0000      -0.113877        -3.0987 
 174   0.0000      -0.108834        -2.9615 
 175   0.0000      -0.079319        -2.1584 
 176   0.0000      -0.070853        -1.9280 
 177   0.0000      -0.068028        -1.8511 
 178   0.0000      -0.059915        -1.6304 
 179   0.0000      -0.047727        -1.2987 
 180   0.0000      -0.040097        -1.0911 
 181   0.0000      -0.033502        -0.9116 
 182   0.0000      -0.027917        -0.7597 
 183   0.0000      -0.023947        -0.6516 
 184   0.0000      -0.018072        -0.4918 
 185   0.0000      -0.007298        -0.1986 
 186   0.0000      -0.005020        -0.1366 
 187   0.0000      -0.003003        -0.0817 
 188   0.0000       0.008509         0.2315 
 189   0.0000       0.010129         0.2756 
 190   0.0000       0.021413         0.5827 
 191   0.0000       0.038111         1.0371 
 192   0.0000       0.039811         1.0833 
 193   0.0000       0.040178         1.0933 
 194   0.0000       0.043164         1.1746 
 195   0.0000       0.046816         1.2739 
 196   0.0000       0.048719         1.3257 
 197   0.0000       0.059956         1.6315 
 198   0.0000       0.061024         1.6606 
 199   0.0000       0.063755         1.7349 
 200   0.0000       0.064880         1.7655 
 201   0.0000       0.065000         1.7687 
 202   0.0000       0.072682         1.9778 
 203   0.0000       0.075131         2.0444 
 204   0.0000       0.077832         2.1179 
 205   0.0000       0.081187         2.2092 
 206   0.0000       0.082838         2.2541 
 207   0.0000       0.086824         2.3626 
 208   0.0000       0.087637         2.3847 
 209   0.0000       0.093657         2.5485 
 210   0.0000       0.101608         2.7649 
 211   0.0000       0.104895         2.8543 
 212   0.0000       0.109570         2.9815 
 213   0.0000       0.120745         3.2856 
 214   0.0000       0.122722         3.3394 
 215   0.0000       0.126680         3.4471 
 216   0.0000       0.129474         3.5232 
 217   0.0000       0.131969         3.5911 
 218   0.0000       0.132194         3.5972 
 219   0.0000       0.133661         3.6371 
 220   0.0000       0.138896         3.7795 
 221   0.0000       0.140046         3.8108 
 222   0.0000       0.148247         4.0340 
 223   0.0000       0.153443         4.1754 
 224   0.0000       0.153934         4.1887 
 225   0.0000       0.158737         4.3195 
 226   0.0000       0.159987         4.3535 
 227   0.0000       0.163394         4.4462 
 228   0.0000       0.172905         4.7050 
 229   0.0000       0.180105         4.9009 
 230   0.0000       0.181686         4.9439 
 231   0.0000       0.185622         5.0510 
 232   0.0000       0.192088         5.2270 
 233   0.0000       0.198676         5.4062 
 234   0.0000       0.199435         5.4269 
 235   0.0000       0.207587         5.6487 
 236   0.0000       0.211655         5.7594 
 237   0.0000       0.214984         5.8500 
 238   0.0000       0.220266         5.9937 
 239   0.0000       0.221079         6.0159 
 240   0.0000       0.224509         6.1092 
 241   0.0000       0.230650         6.2763 
 242   0.0000       0.235304         6.4030 
 243   0.0000       0.236632         6.4391 
 244   0.0000       0.242930         6.6105 
 245   0.0000       0.247857         6.7445 
 246   0.0000       0.248383         6.7588 
 247   0.0000       0.255242         6.9455 
 248   0.0000       0.261542         7.1169 
 249   0.0000       0.264779         7.2050 
 250   0.0000       0.268499         7.3062 
 251   0.0000       0.270577         7.3628 
 252   0.0000       0.281275         7.6539 
 253   0.0000       0.284894         7.7524 
 254   0.0000       0.285055         7.7567 
 255   0.0000       0.287242         7.8163 
 256   0.0000       0.290566         7.9067 
 257   0.0000       0.296759         8.0752 
 258   0.0000       0.303824         8.2675 
 259   0.0000       0.304179         8.2771 
 260   0.0000       0.307854         8.3771 
 261   0.0000       0.315586         8.5875 
 262   0.0000       0.319994         8.7075 
 263   0.0000       0.322618         8.7789 
 264   0.0000       0.325810         8.8657 
 265   0.0000       0.331829         9.0295 
 266   0.0000       0.333119         9.0646 
 267   0.0000       0.341031         9.2799 
 268   0.0000       0.342411         9.3175 
 269   0.0000       0.344582         9.3765 
 270   0.0000       0.349407         9.5078 
 271   0.0000       0.354142         9.6367 
 272   0.0000       0.355108         9.6630 
 273   0.0000       0.363064         9.8795 
 274   0.0000       0.368570        10.0293 
 275   0.0000       0.370610        10.0848 
 276   0.0000       0.378569        10.3014 
 277   0.0000       0.378836        10.3087 
 278   0.0000       0.383094        10.4245 
 279   0.0000       0.389337        10.5944 
 280   0.0000       0.389509        10.5991 
 281   0.0000       0.394859        10.7447 
 282   0.0000       0.398614        10.8468 
 283   0.0000       0.400764        10.9053 
 284   0.0000       0.400840        10.9074 
 285   0.0000       0.409372        11.1396 
 286   0.0000       0.410903        11.1812 
 287   0.0000       0.413472        11.2511 
 288   0.0000       0.420492        11.4422 
 289   0.0000       0.422826        11.5057 
 290   0.0000       0.423120        11.5137 
 291   0.0000       0.428022        11.6471 
 292   0.0000       0.432225        11.7614 
 293   0.0000       0.441054        12.0017 
 294   0.0000       0.446784        12.1576 
 295   0.0000       0.447916        12.1884 
 296   0.0000       0.451131        12.2759 
 297   0.0000       0.453478        12.3398 
 298   0.0000       0.462092        12.5742 
 299   0.0000       0.466813        12.7026 
 300   0.0000       0.470717        12.8089 
 301   0.0000       0.475872        12.9491 
 302   0.0000       0.480041        13.0626 
 303   0.0000       0.483163        13.1475 
 304   0.0000       0.492344        13.3974 
 305   0.0000       0.492446        13.4001 
 306   0.0000       0.498196        13.5566 
 307   0.0000       0.504110        13.7175 
 308   0.0000       0.504551        13.7295 
 309   0.0000       0.504964        13.7408 
 310   0.0000       0.507597        13.8124 
 311   0.0000       0.509547        13.8655 
 312   0.0000       0.514414        13.9979 
 313   0.0000       0.518758        14.1161 
 314   0.0000       0.523365        14.2415 
 315   0.0000       0.526065        14.3150 
 316   0.0000       0.528319        14.3763 
 317   0.0000       0.529466        14.4075 
 318   0.0000       0.536463        14.5979 
 319   0.0000       0.539086        14.6693 
 320   0.0000       0.539596        14.6832 
 321   0.0000       0.547992        14.9116 
 322   0.0000       0.549895        14.9634 
 323   0.0000       0.560592        15.2545 
 324   0.0000       0.565073        15.3764 
 325   0.0000       0.575623        15.6635 
 326   0.0000       0.577114        15.7041 
 327   0.0000       0.579501        15.7690 
 328   0.0000       0.586207        15.9515 
 329   0.0000       0.594459        16.1761 
 330   0.0000       0.604292        16.4436 
 331   0.0000       0.611243        16.6328 
 332   0.0000       0.616968        16.7886 
 333   0.0000       0.641573        17.4581 
 334   0.0000       0.656884        17.8747 
 335   0.0000       0.685798        18.6615 
 336   0.0000       0.700203        19.0535 
 337   0.0000       0.704732        19.1767 
 338   0.0000       0.708932        19.2910 
 339   0.0000       0.716503        19.4970 
 340   0.0000       0.726695        19.7744 
 341   0.0000       0.734841        19.9960 
 342   0.0000       0.740701        20.1555 
 343   0.0000       0.741246        20.1703 
 344   0.0000       0.753446        20.5023 
 345   0.0000       0.760679        20.6991 
 346   0.0000       0.785098        21.3636 
 347   0.0000       0.786108        21.3911 
 348   0.0000       0.800852        21.7923 
 349   0.0000       0.802805        21.8454 
 350   0.0000       0.805698        21.9241 
 351   0.0000       0.817202        22.2372 
 352   0.0000       0.817884        22.2557 
 353   0.0000       0.820134        22.3170 
 354   0.0000       0.824353        22.4318 
 355   0.0000       0.835716        22.7410 
 356   0.0000       0.852690        23.2029 
 357   0.0000       0.859296        23.3826 
 358   0.0000       0.861487        23.4422 
 359   0.0000       0.873114        23.7586 
 360   0.0000       0.876726        23.8569 
 361   0.0000       0.881217        23.9791 
 362   0.0000       0.896525        24.3957 
 363   0.0000       0.907971        24.7072 
 364   0.0000       0.909607        24.7517 
 365   0.0000       0.921514        25.0757 
 366   0.0000       0.922992        25.1159 
 367   0.0000       0.930373        25.3167 
 368   0.0000       0.945633        25.7320 
 369   0.0000       0.946015        25.7424 
 370   0.0000       0.971475        26.4352 
 371   0.0000       0.973690        26.4955 
 372   0.0000       0.988987        26.9117 
 373   0.0000       0.998507        27.1707 
 374   0.0000       1.020306        27.7639 
 375   0.0000       1.069966        29.1152 
 376   0.0000       1.101894        29.9841 
 377   0.0000       1.126381        30.6504 
 378   0.0000       1.158646        31.5284 
 379   0.0000       1.174084        31.9484 
 380   0.0000       1.202770        32.7290 
 381   0.0000       1.228769        33.4365 
 382   0.0000       1.229027        33.4435 
 383   0.0000       1.244156        33.8552 
 384   0.0000       1.250613        34.0309 
 385   0.0000       1.255445        34.1624 
 386   0.0000       1.255747        34.1706 
 387   0.0000       1.264116        34.3984 
 388   0.0000       1.281922        34.8829 
 389   0.0000       1.284435        34.9513 
 390   0.0000       1.288087        35.0506 
 391   0.0000       1.297284        35.3009 
 392   0.0000       1.300964        35.4010 
 393   0.0000       1.304239        35.4901 
 394   0.0000       1.305187        35.5160 
 395   0.0000       1.312796        35.7230 
 396   0.0000       1.321248        35.9530 
 397   0.0000       1.330564        36.2065 
 398   0.0000       1.332636        36.2629 
 399   0.0000       1.333041        36.2739 
 400   0.0000       1.338690        36.4276 
 401   0.0000       1.344765        36.5929 
 402   0.0000       1.359741        37.0004 
 403   0.0000       1.361853        37.0579 
 404   0.0000       1.364612        37.1330 
 405   0.0000       1.365658        37.1614 
 406   0.0000       1.368590        37.2412 
 407   0.0000       1.376272        37.4503 
 408   0.0000       1.377019        37.4706 
 409   0.0000       1.392571        37.8938 
 410   0.0000       1.395085        37.9622 
 411   0.0000       1.396919        38.0121 
 412   0.0000       1.399540        38.0834 
 413   0.0000       1.403494        38.1910 
 414   0.0000       1.408047        38.3149 
 415   0.0000       1.411177        38.4001 
 416   0.0000       1.417061        38.5602 
 417   0.0000       1.420992        38.6672 
 418   0.0000       1.425237        38.7827 
 419   0.0000       1.425790        38.7977 
 420   0.0000       1.427399        38.8415 
 421   0.0000       1.427479        38.8437 
 422   0.0000       1.434690        39.0399 
 423   0.0000       1.437443        39.1148 
 424   0.0000       1.438639        39.1474 
 425   0.0000       1.441696        39.2305 
 426   0.0000       1.447252        39.3817 
 427   0.0000       1.448448        39.4143 
 428   0.0000       1.451788        39.5052 
 429   0.0000       1.455661        39.6106 
 430   0.0000       1.456382        39.6302 
 431   0.0000       1.458451        39.6865 
 432   0.0000       1.461771        39.7768 
 433   0.0000       1.467423        39.9306 
 434   0.0000       1.469692        39.9924 
 435   0.0000       1.469877        39.9974 
 436   0.0000       1.472548        40.0701 
 437   0.0000       1.472843        40.0781 
 438   0.0000       1.475162        40.1412 
 439   0.0000       1.478286        40.2262 
 440   0.0000       1.479497        40.2592 
 441   0.0000       1.479908        40.2703 
 442   0.0000       1.483416        40.3658 
 443   0.0000       1.486421        40.4476 
 444   0.0000       1.486706        40.4553 
 445   0.0000       1.488700        40.5096 
 446   0.0000       1.490782        40.5662 
 447   0.0000       1.492794        40.6210 
 448   0.0000       1.492874        40.6232 
 449   0.0000       1.495651        40.6987 
 450   0.0000       1.495752        40.7015 
 451   0.0000       1.496515        40.7222 
 452   0.0000       1.498052        40.7641 
 453   0.0000       1.499260        40.7970 
 454   0.0000       1.502125        40.8749 
 455   0.0000       1.503221        40.9047 
 456   0.0000       1.504350        40.9354 
 457   0.0000       1.505970        40.9795 
 458   0.0000       1.507190        41.0127 
 459   0.0000       1.509766        41.0828 
 460   0.0000       1.509996        41.0891 
 461   0.0000       1.510831        41.1118 
 462   0.0000       1.512231        41.1499 
 463   0.0000       1.513322        41.1796 
 464   0.0000       1.514064        41.1998 
 465   0.0000       1.515101        41.2280 
 466   0.0000       1.516099        41.2552 
 467   0.0000       1.517082        41.2819 
 468   0.0000       1.518953        41.3328 
 469   0.0000       1.520759        41.3820 
 470   0.0000       1.520983        41.3881 
 471   0.0000       1.523311        41.4514 
 472   0.0000       1.525082        41.4996 
 473   0.0000       1.525154        41.5015 
 474   0.0000       1.526707        41.5438 
 475   0.0000       1.528436        41.5909 
 476   0.0000       1.529146        41.6102 
 477   0.0000       1.530654        41.6512 
 478   0.0000       1.532147        41.6918 
 479   0.0000       1.534920        41.7673 
 480   0.0000       1.535195        41.7748 
 481   0.0000       1.536667        41.8148 
 482   0.0000       1.536890        41.8209 
 483   0.0000       1.537745        41.8442 
 484   0.0000       1.542354        41.9696 
 485   0.0000       1.548307        42.1316 
 486   0.0000       1.550751        42.1981 
 487   0.0000       1.552790        42.2536 
 488   0.0000       1.554878        42.3104 
 489   0.0000       1.555440        42.3257 
 490   0.0000       1.559383        42.4330 
 491   0.0000       1.565449        42.5980 
 492   0.0000       1.566575        42.6287 
 493   0.0000       1.567201        42.6457 
 494   0.0000       1.569490        42.7080 
 495   0.0000       1.571541        42.7638 
 496   0.0000       1.572274        42.7838 
 497   0.0000       1.573865        42.8270 
 498   0.0000       1.576236        42.8916 
 499   0.0000       1.578111        42.9426 
 500   0.0000       1.579779        42.9880 
 501   0.0000       1.583878        43.0995 
 502   0.0000       1.584119        43.1061 
 503   0.0000       1.586991        43.1842 
 504   0.0000       1.593156        43.3520 
 505   0.0000       1.593688        43.3665 
 506   0.0000       1.597740        43.4767 
 507   0.0000       1.598121        43.4871 
 508   0.0000       1.598965        43.5100 
 509   0.0000       1.599389        43.5216 
 510   0.0000       1.601080        43.5676 
 511   0.0000       1.604859        43.6704 
 512   0.0000       1.606462        43.7141 
 513   0.0000       1.608091        43.7584 
 514   0.0000       1.609174        43.7879 
 515   0.0000       1.612469        43.8775 
 516   0.0000       1.617415        44.0121 
 517   0.0000       1.621851        44.1328 
 518   0.0000       1.625756        44.2391 
 519   0.0000       1.626916        44.2706 
 520   0.0000       1.633088        44.4386 
 521   0.0000       1.635860        44.5140 
 522   0.0000       1.636010        44.5181 
 523   0.0000       1.638238        44.5787 
 524   0.0000       1.644801        44.7573 
 525   0.0000       1.645760        44.7834 
 526   0.0000       1.653008        44.9806 
 527   0.0000       1.656475        45.0750 
 528   0.0000       1.661977        45.2247 
 529   0.0000       1.673645        45.5422 
 530   0.0000       1.679719        45.7075 
 531   0.0000       1.680203        45.7206 
 532   0.0000       1.683380        45.8071 
 533   0.0000       1.689462        45.9726 
 534   0.0000       1.689707        45.9793 
 535   0.0000       1.696553        46.1656 
 536   0.0000       1.702051        46.3152 
 537   0.0000       1.715283        46.6752 
 538   0.0000       1.721179        46.8357 
 539   0.0000       1.730398        47.0865 
 540   0.0000       1.731904        47.1275 
 541   0.0000       1.739917        47.3455 
 542   0.0000       1.740972        47.3743 
 543   0.0000       1.748859        47.5889 
 544   0.0000       1.760870        47.9157 
 545   0.0000       1.762708        47.9657 
 546   0.0000       1.772261        48.2257 
 547   0.0000       1.776219        48.3334 
 548   0.0000       1.784122        48.5484 
 549   0.0000       1.784362        48.5550 
 550   0.0000       1.787816        48.6490 
 551   0.0000       1.793405        48.8010 
 552   0.0000       1.799807        48.9752 
 553   0.0000       1.804613        49.1060 
 554   0.0000       1.810437        49.2645 
 555   0.0000       1.812376        49.3173 
 556   0.0000       1.815742        49.4088 
 557   0.0000       1.825099        49.6635 
 558   0.0000       1.831164        49.8285 
 559   0.0000       1.838939        50.0401 
 560   0.0000       1.845705        50.2242 
 561   0.0000       1.859353        50.5956 
 562   0.0000       1.864632        50.7392 
 563   0.0000       1.872695        50.9586 
 564   0.0000       1.879070        51.1321 
 565   0.0000       1.881008        51.1848 
 566   0.0000       1.892279        51.4915 
 567   0.0000       1.901141        51.7327 
 568   0.0000       1.914798        52.1043 
 569   0.0000       1.920005        52.2460 
 570   0.0000       1.928905        52.4882 
 571   0.0000       1.961367        53.3715 
 572   0.0000       1.981387        53.9163 
 573   0.0000       2.111901        57.4678 
 574   0.0000       2.204402        59.9848 
 575   0.0000       2.211280        60.1720 
 576   0.0000       2.233617        60.7798 
 577   0.0000       2.254228        61.3407 
 578   0.0000       2.304460        62.7075 
 579   0.0000       2.327970        63.3473 
 580   0.0000       2.342889        63.7533 
 581   0.0000       2.377795        64.7031 
 582   0.0000       2.408283        65.5327 
 583   0.0000       2.414812        65.7104 
 584   0.0000       2.415744        65.7357 
 585   0.0000       2.433702        66.2244 
 586   0.0000       2.452513        66.7363 
 587   0.0000       2.480881        67.5082 
 588   0.0000       2.490130        67.7599 
 589   0.0000       2.506665        68.2098 
 590   0.0000       2.537060        69.0369 
 591   0.0000       2.546590        69.2962 
 592   0.0000       2.549828        69.3843 
 593   0.0000       2.568067        69.8806 
 594   0.0000       2.617271        71.2196 
 595   0.0000       2.617914        71.2371 
 596   0.0000       2.656475        72.2863 
 597   0.0000       2.838377        77.2362 
 598   0.0000       2.843645        77.3795 
 599   0.0000       2.856391        77.7263 
 600   0.0000       2.864498        77.9470 
 601   0.0000       2.879433        78.3534 
 602   0.0000       2.896930        78.8295 
 603   0.0000       2.901791        78.9617 
 604   0.0000       2.948110        80.2222 
 605   0.0000      23.730968       645.7525 
 606   0.0000      23.869597       649.5248 
 607   0.0000      23.997059       652.9932 
 608   0.0000      24.245335       659.7491 
 609   0.0000      24.604921       669.5339 
 610   0.0000      24.676298       671.4762 
 611   0.0000      24.771925       674.0784 
 612   0.0000      24.877661       676.9556 
 613   0.0000      24.986921       679.9287 
 614   0.0000      25.075264       682.3326 
 615   0.0000      25.338414       689.4933 
 616   0.0000      25.467107       692.9952 
 617   0.0000      25.523520       694.5303 
 618   0.0000      25.606535       696.7892 
 619   0.0000      25.615862       697.0431 
 620   0.0000      25.722294       699.9392 
 621   0.0000      25.745862       700.5805 
 622   0.0000      25.910284       705.0547 
 623   0.0000      25.979465       706.9372 
 624   0.0000      26.092909       710.0242 
 625   0.0000      26.107911       710.4324 
 626   0.0000      26.166468       712.0258 
 627   0.0000      26.375109       717.7032 
 628   0.0000      26.430361       719.2067 
 629   0.0000      26.458931       719.9841 
 630   0.0000      26.697574       726.4779 
 631   0.0000      26.726832       727.2741 
 632   0.0000      26.791956       729.0462 
 633   0.0000      26.803123       729.3500 
 634   0.0000      26.870614       731.1866 
 635   0.0000      26.981904       734.2149 
 636   0.0000      26.996141       734.6024 
 637   0.0000      27.141761       738.5649 
 638   0.0000      27.222215       740.7541 
 639   0.0000      27.411735       745.9112 
 640   0.0000      27.459254       747.2043 
 641   0.0000      27.526650       749.0382 
 642   0.0000      27.634980       751.9860 
 643   0.0000      27.691495       753.5239 
 644   0.0000      27.818471       756.9791 
 645   0.0000      27.933761       760.1163 
 646   0.0000      27.970561       761.1177 
 647   0.0000      28.133323       765.5466 
 648   0.0000      28.449287       774.1444 
 649   0.0000      28.536936       776.5295 
 650   0.0000      28.761554       782.6417 
 651   0.0000      29.710313       808.4587 
 652   0.0000      30.584507       832.2467 
 653   0.0000      43.911074      1194.8811 
 654   0.0000      44.007591      1197.5074 
 655   0.0000      44.055221      1198.8035 
 656   0.0000      44.063563      1199.0305 
 657   0.0000      44.070791      1199.2272 
 658   0.0000      44.127703      1200.7759 
 659   0.0000      44.132349      1200.9023 
 660   0.0000      44.143696      1201.2110 
 661   0.0000      44.170910      1201.9516 
 662   0.0000      44.188567      1202.4320 
 663   0.0000      44.192762      1202.5462 
 664   0.0000      44.199212      1202.7217 
 665   0.0000      44.222183      1203.3468 
 666   0.0000      44.232485      1203.6271 
 667   0.0000      44.240502      1203.8453 
 668   0.0000      44.265477      1204.5249 
 669   0.0000     205.092271      5580.8444 
 670   0.0000     205.132676      5581.9439 
 671   0.0000     205.151127      5582.4460 
 672   0.0000     205.153980      5582.5236 
 673   0.0000     205.156430      5582.5903 
 674   0.0000     205.182448      5583.2983 
 675   0.0000     205.184595      5583.3567 
 676   0.0000     205.185719      5583.3873 
 677   0.0000     205.202126      5583.8337 
 678   0.0000     205.209454      5584.0331 
 679   0.0000     205.213588      5584.1456 
 680   0.0000     205.214713      5584.1762 
 681   0.0000     205.222238      5584.3810 
 682   0.0000     205.224357      5584.4387 
 683   0.0000     205.228619      5584.5546 
 684   0.0000     205.238735      5584.8299 

                 SPIN DOWN ORBITALS
  NO   OCC          E(Eh)            E(eV) 
   0   1.0000    -214.488274     -5836.5227 
   1   1.0000     -24.238588      -659.5655 
   2   1.0000     -20.618810      -561.0663 
   3   1.0000     -20.615155      -560.9669 
   4   1.0000     -20.605736      -560.7106 
   5   1.0000      -4.035302      -109.8062 
   6   1.0000      -4.035256      -109.8049 
   7   1.0000      -4.034186      -109.7758 
   8   1.0000      -4.032120      -109.7196 
   9   1.0000      -4.032069      -109.7182 
  10   1.0000      -4.028424      -109.6190 
  11   1.0000      -4.028144      -109.6114 
  12   1.0000      -4.028017      -109.6079 
  13   1.0000      -4.026637      -109.5704 
  14   1.0000      -4.026512      -109.5669 
  15   1.0000      -4.026504      -109.5667 
  16   1.0000      -4.025410      -109.5370 
  17   1.0000      -4.025377      -109.5361 
  18   1.0000      -4.024594      -109.5148 
  19   1.0000      -4.024558      -109.5138 
  20   1.0000      -4.012372      -109.1822 
  21   1.0000      -2.664563       -72.5064 
  22   1.0000      -2.250608       -61.2421 
  23   1.0000      -2.250568       -61.2411 
  24   1.0000      -2.249828       -61.2209 
  25   1.0000      -2.248845       -61.1942 
  26   1.0000      -2.248783       -61.1925 
  27   1.0000      -2.248036       -61.1722 
  28   1.0000      -2.247953       -61.1699 
  29   1.0000      -2.247254       -61.1509 
  30   1.0000      -2.247162       -61.1484 
  31   1.0000      -2.247146       -61.1479 
  32   1.0000      -2.246591       -61.1329 
  33   1.0000      -2.246249       -61.1235 
  34   1.0000      -2.245601       -61.1059 
  35   1.0000      -2.244761       -61.0831 
  36   1.0000      -2.244608       -61.0789 
  37   1.0000      -2.244329       -61.0713 
  38   1.0000      -2.243051       -61.0365 
  39   1.0000      -2.242370       -61.0180 
  40   1.0000      -2.242007       -61.0081 
  41   1.0000      -2.241781       -61.0020 
  42   1.0000      -2.241378       -60.9910 
  43   1.0000      -2.241055       -60.9822 
  44   1.0000      -2.240808       -60.9755 
  45   1.0000      -2.240518       -60.9676 
  46   1.0000      -2.240272       -60.9609 
  47   1.0000      -2.239899       -60.9507 
  48   1.0000      -2.239548       -60.9412 
  49   1.0000      -2.239096       -60.9289 
  50   1.0000      -2.238911       -60.9239 
  51   1.0000      -2.238551       -60.9141 
  52   1.0000      -2.237933       -60.8973 
  53   1.0000      -2.237876       -60.8957 
  54   1.0000      -2.237635       -60.8891 
  55   1.0000      -2.237606       -60.8883 
  56   1.0000      -2.237310       -60.8803 
  57   1.0000      -2.237210       -60.8776 
  58   1.0000      -2.236497       -60.8582 
  59   1.0000      -2.235938       -60.8430 
  60   1.0000      -2.235887       -60.8416 
  61   1.0000      -2.235790       -60.8389 
  62   1.0000      -2.235746       -60.8377 
  63   1.0000      -2.235658       -60.8353 
  64   1.0000      -2.235391       -60.8281 
  65   1.0000      -2.234980       -60.8169 
  66   1.0000      -2.234805       -60.8121 
  67   1.0000      -2.226742       -60.5927 
  68   1.0000      -2.226269       -60.5799 
  69   1.0000      -2.222285       -60.4715 
  70   1.0000      -1.668864       -45.4121 
  71   1.0000      -1.661214       -45.2039 
  72   1.0000      -1.639174       -44.6042 
  73   1.0000      -0.423705       -11.5296 
  74   1.0000      -0.397372       -10.8130 
  75   1.0000      -0.384865       -10.4727 
  76   1.0000      -0.384620       -10.4660 
  77   1.0000      -0.373519       -10.1640 
  78   1.0000      -0.370388       -10.0788 
  79   1.0000      -0.369944       -10.0667 
  80   1.0000      -0.365243        -9.9388 
  81   1.0000      -0.363011        -9.8780 
  82   1.0000      -0.361628        -9.8404 
  83   1.0000      -0.360567        -9.8115 
  84   1.0000      -0.355954        -9.6860 
  85   1.0000      -0.355299        -9.6682 
  86   1.0000      -0.354447        -9.6450 
  87   1.0000      -0.352348        -9.5879 
  88   1.0000      -0.351196        -9.5565 
  89   1.0000      -0.348189        -9.4747 
  90   1.0000      -0.347533        -9.4568 
  91   1.0000      -0.346637        -9.4325 
  92   1.0000      -0.343637        -9.3508 
  93   1.0000      -0.343194        -9.3388 
  94   1.0000      -0.339420        -9.2361 
  95   1.0000      -0.338627        -9.2145 
  96   1.0000      -0.338263        -9.2046 
  97   1.0000      -0.335981        -9.1425 
  98   1.0000      -0.333120        -9.0646 
  99   1.0000      -0.330034        -8.9807 
 100   1.0000      -0.329472        -8.9654 
 101   1.0000      -0.327005        -8.8983 
 102   1.0000      -0.325279        -8.8513 
 103   1.0000      -0.323765        -8.8101 
 104   1.0000      -0.323324        -8.7981 
 105   1.0000      -0.320102        -8.7104 
 106   1.0000      -0.318422        -8.6647 
 107   1.0000      -0.316147        -8.6028 
 108   1.0000      -0.310772        -8.4565 
 109   1.0000      -0.309683        -8.4269 
 110   1.0000      -0.308655        -8.3989 
 111   1.0000      -0.306828        -8.3492 
 112   1.0000      -0.298756        -8.1296 
 113   1.0000      -0.296080        -8.0567 
 114   1.0000      -0.295158        -8.0316 
 115   1.0000      -0.293007        -7.9731 
 116   1.0000      -0.292069        -7.9476 
 117   1.0000      -0.290660        -7.9093 
 118   1.0000      -0.289162        -7.8685 
 119   1.0000      -0.287039        -7.8107 
 120   1.0000      -0.284997        -7.7552 
 121   1.0000      -0.284361        -7.7379 
 122   1.0000      -0.281876        -7.6702 
 123   1.0000      -0.281839        -7.6692 
 124   1.0000      -0.279079        -7.5941 
 125   1.0000      -0.278091        -7.5672 
 126   1.0000      -0.275803        -7.5050 
 127   1.0000      -0.273680        -7.4472 
 128   1.0000      -0.272494        -7.4150 
 129   1.0000      -0.272137        -7.4052 
 130   1.0000      -0.270899        -7.3715 
 131   1.0000      -0.269310        -7.3283 
 132   1.0000      -0.269250        -7.3267 
 133   1.0000      -0.268855        -7.3159 
 134   1.0000      -0.265482        -7.2241 
 135   1.0000      -0.265011        -7.2113 
 136   1.0000      -0.261572        -7.1177 
 137   1.0000      -0.260670        -7.0932 
 138   1.0000      -0.258662        -7.0385 
 139   1.0000      -0.257877        -7.0172 
 140   1.0000      -0.257870        -7.0170 
 141   1.0000      -0.257343        -7.0027 
 142   1.0000      -0.257059        -6.9949 
 143   1.0000      -0.254228        -6.9179 
 144   1.0000      -0.253963        -6.9107 
 145   1.0000      -0.252264        -6.8644 
 146   1.0000      -0.250722        -6.8225 
 147   1.0000      -0.249790        -6.7971 
 148   1.0000      -0.248655        -6.7662 
 149   1.0000      -0.248403        -6.7594 
 150   1.0000      -0.246432        -6.7058 
 151   1.0000      -0.243845        -6.6354 
 152   1.0000      -0.242663        -6.6032 
 153   1.0000      -0.241152        -6.5621 
 154   1.0000      -0.239177        -6.5083 
 155   1.0000      -0.236983        -6.4486 
 156   1.0000      -0.233773        -6.3613 
 157   1.0000      -0.229718        -6.2509 
 158   1.0000      -0.218946        -5.9578 
 159   1.0000      -0.214558        -5.8384 
 160   1.0000      -0.210264        -5.7216 
 161   1.0000      -0.199038        -5.4161 
 162   0.0000      -0.179566        -4.8862 
 163   0.0000      -0.147177        -4.0049 
 164   0.0000      -0.134232        -3.6526 
 165   0.0000      -0.128001        -3.4831 
 166   0.0000      -0.127734        -3.4758 
 167   0.0000      -0.119459        -3.2506 
 168   0.0000      -0.112921        -3.0727 
 169   0.0000      -0.112847        -3.0707 
[...]
      dxy     :     1.977314
      f0      :     0.000659  f :     0.005973
      f+1     :     0.000919
      f-1     :     0.000662
      f+2     :     0.000904
      f-2     :     0.000878
      f+3     :     0.000950
      f-3     :     0.001001
 10 Aus       :     2.516924  s :     2.516924
      pz      :     2.223435  p :     6.517548
      px      :     2.203978
      py      :     2.090135
      dz2     :     1.963777  d :     9.879213
      dxz     :     1.954019
      dyz     :     2.001796
      dx2y2   :     1.963939
      dxy     :     1.995681
      f0      :     0.000807  f :     0.006676
      f+1     :     0.001214
      f-1     :     0.000979
      f+2     :     0.000838
      f-2     :     0.001311
      f+3     :     0.000711
      f-3     :     0.000817
 11 Aus       :     2.580500  s :     2.580500
      pz      :     2.118367  p :     6.426675
      px      :     2.139108
      py      :     2.169200
      dz2     :     1.985044  d :     9.884818
      dxz     :     1.959167
      dyz     :     1.988018
      dx2y2   :     1.967791
      dxy     :     1.984798
      f0      :     0.000714  f :     0.005314
      f+1     :     0.000784
      f-1     :     0.000721
      f+2     :     0.000721
      f-2     :     0.000750
      f+3     :     0.000915
      f-3     :     0.000711
 12 Aus       :     2.549474  s :     2.549474
      pz      :     2.137267  p :     6.464513
      px      :     2.169603
      py      :     2.157643
      dz2     :     1.995097  d :     9.854042
      dxz     :     1.969366
      dyz     :     1.955007
      dx2y2   :     1.988276
      dxy     :     1.946296
      f0      :     0.000661  f :     0.005977
      f+1     :     0.000762
      f-1     :     0.000668
      f+2     :     0.000933
      f-2     :     0.000967
      f+3     :     0.000969
      f-3     :     0.001016
 13 Aus       :     2.543276  s :     2.543276
      pz      :     2.171249  p :     6.458725
      px      :     2.133376
      py      :     2.154100
      dz2     :     1.975852  d :     9.925795
      dxz     :     1.988569
      dyz     :     1.977667
      dx2y2   :     2.003548
      dxy     :     1.980161
      f0      :     0.000664  f :     0.005668
      f+1     :     0.001019
      f-1     :     0.000668
      f+2     :     0.001201
      f-2     :     0.000567
      f+3     :     0.000688
      f-3     :     0.000861
 14 Aus       :     2.500483  s :     2.500483
      pz      :     2.302653  p :     6.603506
      px      :     2.118257
      py      :     2.182596
      dz2     :     1.974747  d :     9.924271
      dxz     :     1.983566
      dyz     :     1.980088
      dx2y2   :     1.990611
      dxy     :     1.995259
      f0      :     0.001814  f :     0.006900
      f+1     :     0.000938
      f-1     :     0.001223
      f+2     :     0.000851
      f-2     :     0.000742
      f+3     :     0.000716
      f-3     :     0.000616
 15 Aus       :     2.517029  s :     2.517029
      pz      :     2.205026  p :     6.517643
      px      :     2.133333
      py      :     2.179283
      dz2     :     1.969464  d :     9.879158
      dxz     :     1.980729
      dyz     :     1.970375
      dx2y2   :     1.973790
      dxy     :     1.984800
      f0      :     0.001331  f :     0.006672
      f+1     :     0.000940
      f-1     :     0.000842
      f+2     :     0.000959
      f-2     :     0.001035
      f+3     :     0.000742
      f-3     :     0.000823
 16 Crs       :     6.238345  s :     6.238345
      pz      :     4.182578  p :    12.527025
      px      :     4.158740
      py      :     4.185706
      dz2     :     1.332265  d :     6.539664
      dxz     :     1.283262
      dyz     :     1.223093
      dx2y2   :     1.467580
      dxy     :     1.233462
      f0      :     0.000199  f :     0.001712
      f+1     :     0.000244
      f-1     :     0.000294
      f+2     :     0.000187
      f-2     :     0.000380
      f+3     :     0.000247
      f-3     :     0.000161

SPIN
  0 Aus       :    -0.027015  s :    -0.027015
      pz      :    -0.020121  p :    -0.029266
      px      :     0.003084
      py      :    -0.012229
      dz2     :    -0.010572  d :    -0.001398
      dxz     :     0.003642
      dyz     :    -0.001258
      dx2y2   :     0.005183
      dxy     :     0.001608
      f0      :     0.000021  f :     0.000195
      f+1     :     0.000042
      f-1     :    -0.000022
      f+2     :     0.000005
      f-2     :    -0.000001
      f+3     :     0.000121
      f-3     :     0.000029
  1 Aus       :    -0.037742  s :    -0.037742
      pz      :    -0.010035  p :    -0.040236
      px      :    -0.010364
      py      :    -0.019837
      dz2     :     0.005377  d :     0.001477
      dxz     :    -0.000382
      dyz     :     0.002396
      dx2y2   :    -0.000211
      dxy     :    -0.005702
      f0      :     0.000078  f :     0.000498
      f+1     :     0.000078
      f-1     :     0.000115
      f+2     :     0.000089
      f-2     :     0.000116
      f+3     :     0.000009
      f-3     :     0.000013
  2 Aus       :    -0.046034  s :    -0.046034
      pz      :    -0.017997  p :    -0.050204
      px      :    -0.020234
      py      :    -0.011972
      dz2     :     0.004905  d :    -0.013337
      dxz     :    -0.005980
      dyz     :     0.000378
      dx2y2   :    -0.001833
      dxy     :    -0.010808
      f0      :     0.000022  f :     0.000328
      f+1     :     0.000030
      f-1     :     0.000062
      f+2     :     0.000016
      f-2     :     0.000152
      f+3     :     0.000032
      f-3     :     0.000013
  3 Aus       :    -0.022721  s :    -0.022721
      pz      :    -0.006583  p :    -0.044241
      px      :    -0.020610
      py      :    -0.017049
      dz2     :     0.001049  d :    -0.026954
      dxz     :    -0.013175
      dyz     :    -0.004339
      dx2y2   :    -0.001999
      dxy     :    -0.008491
      f0      :     0.000004  f :    -0.000019
      f+1     :    -0.000004
      f-1     :     0.000003
      f+2     :    -0.000002
      f-2     :    -0.000014
      f+3     :    -0.000000
      f-3     :    -0.000005
  4 Aus       :     0.000882  s :     0.000882
      pz      :    -0.010814  p :    -0.018371
      px      :    -0.012129
      py      :     0.004572
      dz2     :    -0.006355  d :    -0.030120
      dxz     :    -0.014412
      dyz     :    -0.001254
      dx2y2   :    -0.000373
      dxy     :    -0.007726
      f0      :    -0.000010  f :    -0.000036
      f+1     :    -0.000005
      f-1     :    -0.000010
      f+2     :     0.000002
      f-2     :    -0.000009
      f+3     :    -0.000006
      f-3     :     0.000001
  5 Aus       :    -0.146045  s :    -0.146045
      pz      :    -0.015839  p :    -0.029161
      px      :    -0.011012
      py      :    -0.002310
      dz2     :    -0.001996  d :    -0.016329
      dxz     :    -0.004794
      dyz     :    -0.006153
      dx2y2   :    -0.001163
      dxy     :    -0.002222
      f0      :    -0.000004  f :    -0.000015
      f+1     :     0.000000
      f-1     :    -0.000012
      f+2     :    -0.000003
      f-2     :     0.000008
      f+3     :    -0.000001
      f-3     :    -0.000005
  6 Aus       :    -0.037713  s :    -0.037713
      pz      :    -0.021119  p :    -0.040219
      px      :    -0.011719
      py      :    -0.007381
      dz2     :     0.004557  d :     0.001478
      dxz     :    -0.002276
      dyz     :     0.000855
      dx2y2   :     0.005090
      dxy     :    -0.006747
      f0      :     0.000032  f :     0.000499
      f+1     :    -0.000001
      f-1     :     0.000087
      f+2     :     0.000036
      f-2     :     0.000116
      f+3     :     0.000108
      f-3     :     0.000121
  7 Aus       :    -0.027048  s :    -0.027048
      pz      :    -0.017500  p :    -0.029225
      px      :    -0.008875
      py      :    -0.002850
      dz2     :    -0.002480  d :    -0.001244
      dxz     :    -0.005180
      dyz     :    -0.002770
      dx2y2   :     0.006348
      dxy     :     0.002839
      f0      :    -0.000009  f :     0.000197
      f+1     :    -0.000013
      f-1     :     0.000062
      f+2     :     0.000027
      f-2     :    -0.000028
      f+3     :     0.000071
      f-3     :     0.000086
  8 Aus       :    -0.045191  s :    -0.045191
      pz      :    -0.002390  p :    -0.031942
      px      :    -0.013093
      py      :    -0.016460
      dz2     :     0.003813  d :    -0.005974
      dxz     :    -0.007810
      dyz     :    -0.001178
      dx2y2   :     0.001001
      dxy     :    -0.001801
      f0      :     0.000052  f :     0.000440
      f+1     :     0.000038
      f-1     :     0.000101
      f+2     :     0.000052
      f-2     :     0.000128
      f+3     :     0.000039
      f-3     :     0.000031
  9 Aus       :    -0.033708  s :    -0.033708
      pz      :    -0.007888  p :    -0.041564
      px      :    -0.024493
      py      :    -0.009183
      dz2     :     0.001522  d :    -0.003512
      dxz     :    -0.001960
      dyz     :     0.001524
      dx2y2   :    -0.001292
      dxy     :    -0.003306
      f0      :     0.000095  f :     0.000368
      f+1     :     0.000048
      f-1     :     0.000125
      f+2     :     0.000057
      f-2     :     0.000095
      f+3     :    -0.000054
      f-3     :     0.000002
 10 Aus       :    -0.012039  s :    -0.012039
      pz      :    -0.024778  p :    -0.043710
      px      :    -0.023607
      py      :     0.004676
      dz2     :     0.000397  d :     0.000099
      dxz     :    -0.000309
      dyz     :    -0.004376
      dx2y2   :     0.006393
      dxy     :    -0.002005
      f0      :    -0.000001  f :     0.000113
      f+1     :    -0.000012
      f-1     :     0.000037
      f+2     :    -0.000001
      f-2     :    -0.000005
      f+3     :     0.000012
      f-3     :     0.000082
 11 Aus       :    -0.084196  s :    -0.084196
      pz      :    -0.021711  p :    -0.026793
      px      :    -0.000643
      py      :    -0.004439
      dz2     :     0.002033  d :     0.008679
      dxz     :     0.006498
      dyz     :     0.000582
      dx2y2   :     0.000862
      dxy     :    -0.001296
      f0      :     0.000011  f :     0.000222
      f+1     :     0.000111
      f-1     :    -0.000001
      f+2     :     0.000060
      f-2     :     0.000030
      f+3     :    -0.000002
      f-3     :     0.000014
 12 Aus       :    -0.033697  s :    -0.033697
      pz      :    -0.018988  p :    -0.041673
      px      :    -0.005223
      py      :    -0.017462
      dz2     :     0.000648  d :    -0.003585
      dxz     :     0.001630
      dyz     :    -0.005398
      dx2y2   :     0.002221
      dxy     :    -0.002687
      f0      :     0.000024  f :     0.000366
      f+1     :     0.000033
      f-1     :     0.000063
      f+2     :     0.000022
      f-2     :     0.000075
      f+3     :     0.000094
      f-3     :     0.000053
 13 Aus       :    -0.024858  s :    -0.024858
      pz      :    -0.006223  p :     0.002162
      px      :     0.005058
      py      :     0.003327
      dz2     :    -0.006997  d :    -0.019223
      dxz     :    -0.009802
      dyz     :    -0.003392
      dx2y2   :    -0.000219
      dxy     :     0.001187
      f0      :    -0.000004  f :    -0.000052
      f+1     :     0.000001
      f-1     :    -0.000005
      f+2     :    -0.000022
      f-2     :    -0.000009
      f+3     :    -0.000002
      f-3     :    -0.000012
 14 Aus       :     0.000887  s :     0.000887
      pz      :    -0.010540  p :    -0.018444
      px      :     0.001411
      py      :    -0.009315
      dz2     :    -0.017198  d :    -0.029994
      dxz     :     0.000619
      dyz     :    -0.012946
      dx2y2   :     0.001684
      dxy     :    -0.002153
      f0      :    -0.000000  f :    -0.000036
      f+1     :    -0.000006
      f-1     :    -0.000013
      f+2     :    -0.000009
      f-2     :    -0.000006
      f+3     :     0.000003
      f-3     :    -0.000005
 15 Aus       :    -0.011932  s :    -0.011932
      pz      :    -0.022481  p :    -0.043642
      px      :     0.009873
      py      :    -0.031033
      dz2     :    -0.005751  d :     0.000229
      dxz     :     0.003593
      dyz     :    -0.000298
      dx2y2   :     0.001701
      dxy     :     0.000983
      f0      :     0.000003  f :     0.000114
      f+1     :     0.000009
      f-1     :    -0.000004
      f+2     :     0.000035
      f-2     :     0.000003
      f+3     :     0.000035
      f-3     :     0.000032
 16 Crs       :     0.018663  s :     0.018663
      pz      :     0.012825  p :     0.037844
      px      :     0.012510
      py      :     0.012509
      dz2     :     0.701293  d :     3.194671
      dxz     :     0.571565
      dyz     :     0.478153
      dx2y2   :     0.839796
      dxy     :     0.603863
      f0      :     0.000006  f :     0.000046
      f+1     :     0.000002
      f-1     :     0.000012
      f+2     :     0.000007
      f-2     :     0.000006
      f+3     :     0.000006
      f-3     :     0.000008


                      *****************************
                      * MAYER POPULATION ANALYSIS *
                      *****************************

  NA   - Mulliken gross atomic population
  ZA   - Total nuclear charge
  QA   - Mulliken gross atomic charge
  VA   - Mayer's total valence
  BVA  - Mayer's bonded valence
  FA   - Mayer's free valence

  ATOM       NA         ZA         QA         VA         BVA        FA
  0 Au    18.5290    19.0000     0.4710     1.6539     1.6511     0.0028
  1 Au    18.6827    19.0000     0.3173     2.0067     2.0024     0.0043
  2 Au    18.4465    19.0000     0.5535     1.8307     1.8265     0.0042
  3 Au    19.1550    19.0000    -0.1550     2.1979     2.1899     0.0080
  4 Au    18.9679    19.0000     0.0321     1.9538     1.9527     0.0011
  5 Au    18.5066    19.0000     0.4934     1.3676     1.3126     0.0550
  6 Au    18.6836    19.0000     0.3164     2.0066     2.0023     0.0043
  7 Au    18.5292    19.0000     0.4708     1.6553     1.6525     0.0028
  8 Au    18.5551    19.0000     0.4449     1.8523     1.8473     0.0050
  9 Au    18.5422    19.0000     0.4578     1.8664     1.8644     0.0020
 10 Au    18.6154    19.0000     0.3846     1.7870     1.7842     0.0028
 11 Au    18.6122    19.0000     0.3878     1.6773     1.6585     0.0188
 12 Au    18.5419    19.0000     0.4581     1.8656     1.8636     0.0020
 13 Au    18.8094    19.0000     0.1906     1.5924     1.5883     0.0042
 14 Au    18.9641    19.0000     0.0359     1.9490     1.9480     0.0011
 15 Au    18.6171    19.0000     0.3829     1.7884     1.7856     0.0028
 16 Cr    29.2420    24.0000    -5.2420    10.2380     7.3221     2.9159

  Mayer bond orders larger than 0.100000
B(  0-Au,  1-Au) :   0.2473 B(  0-Au,  2-Au) :   0.2472 B(  0-Au, 11-Au) :   0.2256 
B(  0-Au, 12-Au) :   0.2146 B(  0-Au, 16-Cr) :   0.4090 B(  1-Au,  2-Au) :   0.1306 
B(  1-Au,  3-Au) :   0.2131 B(  1-Au,  4-Au) :   0.1920 B(  1-Au,  9-Au) :   0.1114 
B(  1-Au, 10-Au) :   0.1858 B(  1-Au, 16-Cr) :   0.6534 B(  2-Au,  3-Au) :   0.3145 
B(  2-Au,  6-Au) :   0.1302 B(  2-Au,  7-Au) :   0.2470 B(  2-Au, 16-Cr) :   0.4799 
B(  3-Au,  4-Au) :   0.2279 B(  3-Au,  5-Au) :   0.3718 B(  3-Au,  6-Au) :   0.2140 
B(  3-Au, 14-Au) :   0.2265 B(  3-Au, 16-Cr) :   0.4431 B(  4-Au,  5-Au) :   0.3162 
B(  4-Au, 10-Au) :   0.3501 B(  4-Au, 13-Au) :   0.2226 B(  4-Au, 14-Au) :   0.2707 
B(  4-Au, 16-Cr) :   0.3329 B(  5-Au, 14-Au) :   0.3156 B(  6-Au,  7-Au) :   0.2473 
B(  6-Au, 12-Au) :   0.1112 B(  6-Au, 14-Au) :   0.1917 B(  6-Au, 15-Au) :   0.1858 
B(  6-Au, 16-Cr) :   0.6533 B(  7-Au,  9-Au) :   0.2150 B(  7-Au, 11-Au) :   0.2259 
B(  7-Au, 16-Cr) :   0.4095 B(  8-Au,  9-Au) :   0.2182 B(  8-Au, 10-Au) :   0.1688 
B(  8-Au, 12-Au) :   0.2181 B(  8-Au, 13-Au) :   0.1751 B(  8-Au, 15-Au) :   0.1690 
B(  8-Au, 16-Cr) :   0.5811 B(  9-Au, 11-Au) :   0.2435 B(  9-Au, 15-Au) :   0.2019 
B(  9-Au, 16-Cr) :   0.6174 B( 10-Au, 12-Au) :   0.2017 B( 10-Au, 13-Au) :   0.2162 
B( 10-Au, 16-Cr) :   0.4484 B( 11-Au, 12-Au) :   0.2438 B( 11-Au, 16-Cr) :   0.3949 
B( 12-Au, 16-Cr) :   0.6171 B( 13-Au, 14-Au) :   0.2212 B( 13-Au, 15-Au) :   0.2170 
B( 13-Au, 16-Cr) :   0.4079 B( 14-Au, 15-Au) :   0.3497 B( 14-Au, 16-Cr) :   0.3319 
B( 15-Au, 16-Cr) :   0.4480 

-------
TIMINGS
-------

Total SCF time: 0 days 0 hours 19 min 54 sec 

Total time                  ....    1194.876 sec
Sum of individual times     ....    1159.427 sec  ( 97.0%)

Fock matrix formation       ....     604.684 sec  ( 50.6%)
  Split-RI-J                ....     227.035 sec  ( 37.5% of F)
  XC integration            ....     292.629 sec  ( 48.4% of F)
    Basis function eval.    ....      33.168 sec  ( 11.3% of XC)
    Density eval.           ....     126.840 sec  ( 43.3% of XC)
    XC-Functional eval.     ....       4.736 sec  (  1.6% of XC)
    XC-Potential eval.      ....      91.511 sec  ( 31.3% of XC)
Diagonalization             ....     231.969 sec  ( 19.4%)
Density matrix formation    ....       9.459 sec  (  0.8%)
Population analysis         ....       3.448 sec  (  0.3%)
Initial guess               ....       0.820 sec  (  0.1%)
Orbital Transformation      ....       0.000 sec  (  0.0%)
Orbital Orthonormalization  ....       0.591 sec  (  0.0%)
DIIS solution               ....     302.901 sec  ( 25.4%)
Grid generation             ....       6.146 sec  (  0.5%)

Maximum memory used throughout the entire SCF-calculation: 122.0 MB

-------------------------   --------------------
FINAL SINGLE POINT ENERGY     -3217.501729227161
-------------------------   --------------------


                            ***************************************
                            *     ORCA property calculations      *
                            ***************************************

                                    ---------------------
                                    Active property flags
                                    ---------------------
   (+) Dipole Moment


------------------------------------------------------------------------------
                       ORCA ELECTRIC PROPERTIES CALCULATION
------------------------------------------------------------------------------

Dipole Moment Calculation                       ... on
Quadrupole Moment Calculation                   ... off
Polarizability Calculation                      ... off
GBWName                                         ... pbeSP_job2.gbw
Electron density                                ... pbeSP_job2.scfp
The origin for moment calculation is the CENTER OF MASS  = (15.250159, 15.945625 14.868308)

-------------
DIPOLE MOMENT
-------------
                                X             Y             Z
Electronic contribution:    -19.78851      -7.58576     -22.86777
Nuclear contribution   :     20.01394       7.68931      23.07469
                        -----------------------------------------
Total Dipole Moment    :      0.22543       0.10355       0.20693
                        -----------------------------------------
Magnitude (a.u.)       :      0.32305
Magnitude (Debye)      :      0.82112



--------------------
Rotational spectrum 
--------------------
 
Rotational constants in cm-1:     0.001045     0.000722     0.000691 
Rotational constants in MHz :    31.328228    21.640554    20.721864 

 Dipole components along the rotational axes: 
x,y,z [a.u.] :     0.320161     0.043077     0.000612 
x,y,z [Debye]:     0.813783     0.109493     0.001555 

 

Timings for individual modules:

Sum of individual times         ...     1229.928 sec (=  20.499 min)
GTO integral calculation        ...       33.925 sec (=   0.565 min)   2.8 %
SCF iterations                  ...     1196.002 sec (=  19.933 min)  97.2 %



                             ****ORCA TERMINATED NORMALLY****
TOTAL RUN TIME: 0 days 0 hours 44 minutes 55 seconds 223 msec
