
                                 *****************
                                 * O   R   C   A *
                                 *****************

                                            #,                                       
                                            ###                                      
                                            ####                                     
                                            #####                                    
                                            ######                                   
                                           ########,                                 
                                     ,,################,,,,,                         
                               ,,#################################,,                 
                          ,,##########################################,,             
                       ,#########################################, ''#####,          
                    ,#############################################,,   '####,        
                  ,##################################################,,,,####,       
                ,###########''''           ''''###############################       
              ,#####''   ,,,,##########,,,,          '''####'''          '####       
            ,##' ,,,,###########################,,,                        '##       
           ' ,,###''''                  '''############,,,                           
         ,,##''                                '''############,,,,        ,,,,,,###''
      ,#''                                            '''#######################'''  
     '                                                          ''''####''''         
             ,#######,   #######,   ,#######,      ##                                
            ,#'     '#,  ##    ##  ,#'     '#,    #''#        ######   ,####,        
            ##       ##  ##   ,#'  ##            #'  '#       #        #'  '#        
            ##       ##  #######   ##           ,######,      #####,   #    #        
            '#,     ,#'  ##    ##  '#,     ,#' ,#      #,         ##   #,  ,#        
             '#######'   ##     ##  '#######'  #'      '#     #####' # '####'        



                  #######################################################
                  #                        -***-                        #
                  #          Department of theory and spectroscopy      #
                  #    Directorship and core code : Frank Neese         #
                  #        Max Planck Institute fuer Kohlenforschung    #
                  #                Kaiser Wilhelm Platz 1               #
                  #                 D-45470 Muelheim/Ruhr               #
                  #                      Germany                        #
                  #                                                     #
                  #                  All rights reserved                #
                  #                        -***-                        #
                  #######################################################


                         Program Version 5.0.3 -  RELEASE  -


 With contributions from (in alphabetic order):
   Daniel Aravena         : Magnetic Suceptibility
   Michael Atanasov       : Ab Initio Ligand Field Theory (pilot matlab implementation)
   Alexander A. Auer      : GIAO ZORA, VPT2 properties, NMR spectrum
   Ute Becker             : Parallelization
   Giovanni Bistoni       : ED, misc. LED, open-shell LED, HFLD
   Martin Brehm           : Molecular dynamics
   Dmytro Bykov           : SCF Hessian
   Vijay G. Chilkuri      : MRCI spin determinant printing, contributions to CSF-ICE
   Dipayan Datta          : RHF DLPNO-CCSD density
   Achintya Kumar Dutta   : EOM-CC, STEOM-CC
   Dmitry Ganyushin       : Spin-Orbit,Spin-Spin,Magnetic field MRCI
   Miquel Garcia          : C-PCM and meta-GGA Hessian, CC/C-PCM, Gaussian charge scheme
   Yang Guo               : DLPNO-NEVPT2, F12-NEVPT2, CIM, IAO-localization
   Andreas Hansen         : Spin unrestricted coupled pair/coupled cluster methods
   Benjamin Helmich-Paris : MC-RPA, TRAH-SCF, COSX integrals
   Lee Huntington         : MR-EOM, pCC
   Robert Izsak           : Overlap fitted RIJCOSX, COSX-SCS-MP3, EOM
   Marcus Kettner         : VPT2
   Christian Kollmar      : KDIIS, OOCD, Brueckner-CCSD(T), CCSD density, CASPT2, CASPT2-K
   Simone Kossmann        : Meta GGA functionals, TD-DFT gradient, OOMP2, MP2 Hessian
   Martin Krupicka        : Initial AUTO-CI
   Lucas Lang             : DCDCAS
   Marvin Lechner         : AUTO-CI (C++ implementation), FIC-MRCC
   Dagmar Lenk            : GEPOL surface, SMD
   Dimitrios Liakos       : Extrapolation schemes; Compound Job, initial MDCI parallelization
   Dimitrios Manganas     : Further ROCIS development; embedding schemes
   Dimitrios Pantazis     : SARC Basis sets
   Anastasios Papadopoulos: AUTO-CI, single reference methods and gradients
   Taras Petrenko         : DFT Hessian,TD-DFT gradient, ASA, ECA, R-Raman, ABS, FL, XAS/XES, NRVS
   Peter Pinski           : DLPNO-MP2, DLPNO-MP2 Gradient
   Christoph Reimann      : Effective Core Potentials
   Marius Retegan         : Local ZFS, SOC
   Christoph Riplinger    : Optimizer, TS searches, QM/MM, DLPNO-CCSD(T), (RO)-DLPNO pert. Triples
   Tobias Risthaus        : Range-separated hybrids, TD-DFT gradient, RPA, STAB
   Michael Roemelt        : Original ROCIS implementation
   Masaaki Saitow         : Open-shell DLPNO-CCSD energy and density
   Barbara Sandhoefer     : DKH picture change effects
   Avijit Sen             : IP-ROCIS
   Kantharuban Sivalingam : CASSCF convergence, NEVPT2, FIC-MRCI
   Bernardo de Souza      : ESD, SOC TD-DFT
   Georgi Stoychev        : AutoAux, RI-MP2 NMR, DLPNO-MP2 response
   Willem Van den Heuvel  : Paramagnetic NMR
   Boris Wezisla          : Elementary symmetry handling
   Frank Wennmohs         : Technical directorship


 We gratefully acknowledge several colleagues who have allowed us to
 interface, adapt or use parts of their codes:
   Stefan Grimme, W. Hujo, H. Kruse, P. Pracht,  : VdW corrections, initial TS optimization,
                  C. Bannwarth, S. Ehlert          DFT functionals, gCP, sTDA/sTD-DF
   Ed Valeev, F. Pavosevic, A. Kumar             : LibInt (2-el integral package), F12 methods
   Garnet Chan, S. Sharma, J. Yang, R. Olivares  : DMRG
   Ulf Ekstrom                                   : XCFun DFT Library
   Mihaly Kallay                                 : mrcc  (arbitrary order and MRCC methods)
   Jiri Pittner, Ondrej Demel                    : Mk-CCSD
   Frank Weinhold                                : gennbo (NPA and NBO analysis)
   Christopher J. Cramer and Donald G. Truhlar   : smd solvation model
   Lars Goerigk                                  : TD-DFT with DH, B97 family of functionals
   V. Asgeirsson, H. Jonsson                     : NEB implementation
   FAccTs GmbH                                   : IRC, NEB, NEB-TS, DLPNO-Multilevel, CI-OPT
                                                   MM, QMMM, 2- and 3-layer-ONIOM, Crystal-QMMM,
                                                   LR-CPCM, SF, NACMEs, symmetry and pop. for TD-DFT,
                                                   nearIR, NL-DFT gradient (VV10), updates on ESD,
                                                   ML-optimized integration grids
   S Lehtola, MJT Oliveira, MAL Marques          : LibXC Library
   Liviu Ungur et al                             : ANISO software


 Your calculation uses the libint2 library for the computation of 2-el integrals
 For citations please refer to: http://libint.valeyev.net

 Your ORCA version has been built with support for libXC version: 5.1.0
 For citations please refer to: https://tddft.org/programs/libxc/

 This ORCA versions uses:
   CBLAS   interface :  Fast vector & matrix operations
   LAPACKE interface :  Fast linear algebra routines
   SCALAPACK package :  Parallel linear algebra routines
   Shared memory     :  Shared parallel matrices
   BLAS/LAPACK       :  OpenBLAS 0.3.15  USE64BITINT DYNAMIC_ARCH NO_AFFINITY Sandybridge SINGLE_THREADED
        Core in use  :  Sandybridge
   Copyright (c) 2011-2014, The OpenBLAS Project




***************************************
The coordinates will be read from file: pbe.xyz
***************************************


================================================================================

cite the ECPs for Au [Def2-ECP] as follows:
Ce-Yb(ecp-28): M. Dolg, H. Stoll, H.Preuss, J. Chem. Phys., 1989, 90, 1730-1734.
Y-Cd(ecp-28), Hf-Hg(ecp-46): D. Andrae,U. Haeussermann, M. Dolg, H. Stoll, H. Preuss, Theor. Chim. Acta, 1990, 77, 123-141.
In-Sb(ecp-28), Tl-Bi(ecp-46): B. Metz, H. Stoll, M. Dolg, J. Chem. Phys., 2000, 113, 2563-2569.
Te-Xe(ecp-28), Po-Rn(ecp-46): K. A. Peterson, D. Figgen, E. Goll, H. Stoll, M. Dolg, J. Chem. Phys., 2003, 119, 11113-11123.
Rb(ecp-28), Cs(ecp-46): T. Leininger, A. Nicklass, W. Kuechle, H. Stoll, M. Dolg, A. Bergner, Chem. Phys. Lett., 1996, 255, 274-280.
Sr(ecp-28), Ba(ecp-46): M. Kaupp, P. V. Schleyer, H. Stoll and H. Preuss, J. Chem. Phys., 1991, 94, 1360-1366.
La(ecp-46): M. Dolg, H. Stoll, A. Savin, H. Preuss, Theor. Chim. Acta, 1989, 75, 173-194.
Lu(ecp-28): X. Cao, M. Dolg, J. Chem. Phys., 2001, 115, 7348-7355.

ECP parameters for Au [Def2-ECP] have been obtained from:
TURBOMOLE (7.0.2)

----- Orbital basis set information -----
Your calculation utilizes the basis: def2-TZVP
   F. Weigend and R. Ahlrichs, Phys. Chem. Chem. Phys. 7, 3297 (2005).

----- AuxJ basis set information -----
Your calculation utilizes the auxiliary basis: def2/J
   F. Weigend, Phys. Chem. Chem. Phys. 8, 1057 (2006).

----- AuxC basis set information -----
Your calculation utilizes the auxiliary basis: def2-TZVP/C
  H-La, Hf-Rn : A. Hellweg, C. Hattig, S. Hofener and W. Klopper, Theor. Chem. Acc. 117, 587 (2007).
        Ce-Lu : J. Chmela and M. E. Harding, Mol. Phys. (2018).

================================================================================
                                        WARNINGS
                       Please study these warnings very carefully!
================================================================================


IMPORTANT NOTE: CASSCF must signal convergence for a subsequent CASPT2/NEVPT2! 
                Set maxiter=1 to run CASPT2/NEVPT2 with arbitrary orbitals.


INFO   : the flag for use of the SHARK integral package has been found!

================================================================================
                                       INPUT FILE
================================================================================
NAME = nevpt2.inp
|  1> !SC-NEVPT2 def2-TZVP def2-TZVP/C
|  2> !MOREAD RIJCOSX def2/J
|  3> %maxcore 4000
|  4> %moinp "casscf.gbw"
|  5> %pal nprocs 6 end 
|  6> 
|  7> %casscf
|  8>  mult 6,4
|  9>  bweight 1,1
| 10>  nroots 1,24
| 11>  nel 5
| 12>  norb 5
| 13>  ptsettings
| 14>   d4tpre 1e-14 # default = 1e-10
| 15>   d3tpre 1e-14
| 16>  end
| 17>  rel           
| 18>    dosoc true   
| 19>    gtensor true 
| 20>  end           
| 21> end
| 22> 
| 23> 
| 24> *xyzfile 0 6 pbe.xyz
| 25> 
| 26> 
| 27>                          ****END OF INPUT****
================================================================================

                       ****************************
                       * Single Point Calculation *
                       ****************************

---------------------------------
CARTESIAN COORDINATES (ANGSTROEM)
---------------------------------
  Au     9.326877    7.658931    8.189430
  Au     8.762021    7.295466    5.545611
  Au     6.317129    7.079788    4.290942
  Au     4.969423    7.026647   10.175521
  Au     7.605943    5.558655    8.849821
  Au     7.039236    5.187380    6.164281
  Au     4.017135    6.416059    5.663252
  Au     9.193222    9.868782    6.505574
  Au     7.322984    9.639048    4.501853
  Au     6.606929   10.824436    6.917203
  Au     8.279638   10.264202    9.070360
  Au     5.600501    9.623573    9.311146
  Au     3.892976   10.796169    7.493490
  Au     3.728672    8.016067    7.904370
  Au     4.800196    9.111570    5.507743
  Au     7.583450    7.899661   10.310206
  Mn     5.198419    5.750440    7.902485

----------------------------
CARTESIAN COORDINATES (A.U.)
----------------------------
  NO LB      ZA    FRAG     MASS         X           Y           Z
   0 Au   19.0000*   0   196.966   17.625243   14.473282   15.475779
   1 Au   19.0000*   0   196.966   16.557820   13.786433   10.479687
   2 Au   19.0000*   0   196.966   11.937644   13.378861    8.108705
   3 Au   19.0000*   0   196.966    9.390849   13.278439   19.228948
   4 Au   19.0000*   0   196.966   14.373150   10.504336   16.723738
   5 Au   19.0000*   0   196.966   13.302228    9.802728   11.648803
   6 Au   19.0000*   0   196.966    7.591285   12.124595   10.701995
   7 Au   19.0000*   0   196.966   17.372673   18.649295   12.293753
   8 Au   19.0000*   0   196.966   13.838434   18.215161    8.507268
   9 Au   19.0000*   0   196.966   12.485287   20.455219   13.071619
  10 Au   19.0000*   0   196.966   15.646249   19.396531   17.140495
  11 Au   19.0000*   0   196.966   10.583412   18.185917   17.595515
  12 Au   19.0000*   0   196.966    7.356659   20.401803   14.160644
  13 Au   19.0000*   0   196.966    7.046169   15.148171   14.937095
  14 Au   19.0000*   0   196.966    9.071057   17.218373   10.408125
  15 Au   19.0000*   0   196.966   14.330644   14.928197   19.483465
  16 Mn   25.0000    0    54.940    9.823589   10.866757   14.933533
* core charge reduced due to ECP

--------------------------------
INTERNAL COORDINATES (ANGSTROEM)
--------------------------------
 Au     0   0   0     0.000000000000     0.00000000     0.00000000
 Au     1   0   0     2.727809297962     0.00000000     0.00000000
 Au     2   1   0     2.756484702580   129.43825045     0.00000000
 Au     1   2   3     4.830294591743   101.20204181     9.75951341
 Au     1   2   3     2.794438952391    90.07891047    49.81460148
 Au     3   2   1     2.758993629619    60.82148544   297.48345407
 Au     3   2   1     2.759301084367   122.12482110   340.14270138
 Au     2   1   3     2.780182849950    60.65268070    94.75602274
 Au     8   2   1     2.750539875096    64.25898170   214.75018671
 Au     9   8   2     2.784204609641    60.48445756   124.12642440
 Au     8   2   1     2.751203009423   113.79217572   325.36030814
 Au    11   8   2     2.765169638980   111.69189302   304.67901724
 Au    12  11   8     2.755810669217   116.37968802   307.97429492
 Au     7   3   2     2.768726478167   110.51203280    50.21510708
 Au    13  12  11     2.757556059245    90.64049940    74.13444536
 Au     1   2   3     2.755935426983   128.79080514     0.19160110
 Mn     6   3   2     2.593645386978    96.91418124   114.99012523

---------------------------
INTERNAL COORDINATES (A.U.)
---------------------------
 Au     0   0   0     0.000000000000     0.00000000     0.00000000
 Au     1   0   0     5.154812518712     0.00000000     0.00000000
 Au     2   1   0     5.209001180220   129.43825045     0.00000000
 Au     1   2   3     9.127933924556   101.20204181     9.75951341
 Au     1   2   3     5.280724317981    90.07891047    49.81460148
 Au     3   2   1     5.213742365213    60.82148544   297.48345407
 Au     3   2   1     5.214323370486   122.12482110   340.14270138
 Au     2   1   3     5.253784188631    60.65268070    94.75602274
 Au     8   2   1     5.197767084362    64.25898170   214.75018671
 Au     9   8   2     5.261384213022    60.48445756   124.12642440
 Au     8   2   1     5.199020226629   113.79217572   325.36030814
 Au    11   8   2     5.225413331506   111.69189302   304.67901724
 Au    12  11   8     5.207727441759   116.37968802   307.97429492
 Au     7   3   2     5.232134783472   110.51203280    50.21510708
 Au    13  12  11     5.211025750908    90.64049940    74.13444536
 Au     1   2   3     5.207963199770   128.79080514     0.19160110
 Mn     6   3   2     4.901279469896    96.91418124   114.99012523

---------------------
BASIS SET INFORMATION
---------------------
There are 2 groups of distinct atoms

 Group   1 Type Au  : 8s7p6d1f contracted to 6s4p3d1f pattern {311111/4111/411/1}
 Group   2 Type Mn  : 17s11p7d1f contracted to 6s4p4d1f pattern {842111/6311/4111/1}

Atom   0Au   basis set group =>   1
Atom   1Au   basis set group =>   1
Atom   2Au   basis set group =>   1
Atom   3Au   basis set group =>   1
Atom   4Au   basis set group =>   1
Atom   5Au   basis set group =>   1
Atom   6Au   basis set group =>   1
Atom   7Au   basis set group =>   1
Atom   8Au   basis set group =>   1
Atom   9Au   basis set group =>   1
Atom  10Au   basis set group =>   1
Atom  11Au   basis set group =>   1
Atom  12Au   basis set group =>   1
Atom  13Au   basis set group =>   1
Atom  14Au   basis set group =>   1
Atom  15Au   basis set group =>   1
Atom  16Mn   basis set group =>   2
---------------------------------
AUXILIARY/J BASIS SET INFORMATION
---------------------------------
There are 2 groups of distinct atoms

 Group   1 Type Au  : 11s5p5d3f3g contracted to 8s5p5d2f3g pattern {41111111/11111/11111/21/111}
 Group   2 Type Mn  : 19s5p5d3f3g contracted to 8s5p5d2f3g pattern {121111111/11111/11111/21/111}

Atom   0Au   basis set group =>   1
Atom   1Au   basis set group =>   1
Atom   2Au   basis set group =>   1
Atom   3Au   basis set group =>   1
Atom   4Au   basis set group =>   1
Atom   5Au   basis set group =>   1
Atom   6Au   basis set group =>   1
Atom   7Au   basis set group =>   1
Atom   8Au   basis set group =>   1
Atom   9Au   basis set group =>   1
Atom  10Au   basis set group =>   1
Atom  11Au   basis set group =>   1
Atom  12Au   basis set group =>   1
Atom  13Au   basis set group =>   1
Atom  14Au   basis set group =>   1
Atom  15Au   basis set group =>   1
Atom  16Mn   basis set group =>   2
---------------------------------
AUXILIARY/C BASIS SET INFORMATION
---------------------------------
There are 2 groups of distinct atoms

 Group   1 Type Au  : 8s8p7d5f3g2h contracted to 8s8p7d5f3g2h pattern {11111111/11111111/1111111/11111/111/11}
 Group   2 Type Mn  : 11s9p8d6f5g2h contracted to 9s8p8d6f5g2h pattern {311111111/21111111/11111111/111111/11111/11}

Atom   0Au   basis set group =>   1
Atom   1Au   basis set group =>   1
Atom   2Au   basis set group =>   1
Atom   3Au   basis set group =>   1
Atom   4Au   basis set group =>   1
Atom   5Au   basis set group =>   1
Atom   6Au   basis set group =>   1
Atom   7Au   basis set group =>   1
Atom   8Au   basis set group =>   1
Atom   9Au   basis set group =>   1
Atom  10Au   basis set group =>   1
Atom  11Au   basis set group =>   1
Atom  12Au   basis set group =>   1
Atom  13Au   basis set group =>   1
Atom  14Au   basis set group =>   1
Atom  15Au   basis set group =>   1
Atom  16Mn   basis set group =>   2
-------------------------
ECP PARAMETER INFORMATION
-------------------------

 Group 1, Type Au ECP Def2-ECP (replacing 60 core electrons, lmax=3)

Atom   0Au   ECP group =>   1
Atom   1Au   ECP group =>   1
Atom   2Au   ECP group =>   1
Atom   3Au   ECP group =>   1
Atom   4Au   ECP group =>   1
Atom   5Au   ECP group =>   1
Atom   6Au   ECP group =>   1
Atom   7Au   ECP group =>   1
Atom   8Au   ECP group =>   1
Atom   9Au   ECP group =>   1
Atom  10Au   ECP group =>   1
Atom  11Au   ECP group =>   1
Atom  12Au   ECP group =>   1
Atom  13Au   ECP group =>   1
Atom  14Au   ECP group =>   1
Atom  15Au   ECP group =>   1



           ************************************************************
           *        Program running with 6 parallel MPI-processes     *
           *              working on a common directory               *
           ************************************************************
------------------------------------------------------------------------------
                           ORCA GTO INTEGRAL CALCULATION
                           -- RI-GTO INTEGRALS CHOSEN --
------------------------------------------------------------------------------
------------------------------------------------------------------------------
                   ___                                                        
                  /   \      - P O W E R E D   B Y -                         
                 /     \                                                     
                 |  |  |   _    _      __       _____    __    __             
                 |  |  |  | |  | |    /  \     |  _  \  |  |  /  |          
                  \  \/   | |  | |   /    \    | | | |  |  | /  /          
                 / \  \   | |__| |  /  /\  \   | |_| |  |  |/  /          
                |  |  |   |  __  | /  /__\  \  |    /   |      \           
                |  |  |   | |  | | |   __   |  |    \   |  |\   \          
                \     /   | |  | | |  |  |  |  | |\  \  |  | \   \       
                 \___/    |_|  |_| |__|  |__|  |_| \__\ |__|  \__/        
                                                                              
                      - O R C A' S   B I G   F R I E N D -                    
                                      &                                       
                       - I N T E G R A L  F E E D E R -                       
                                                                              
 v1 FN, 2020, v2 2021                                                         
------------------------------------------------------------------------------


Reading SHARK input file nevpt2.SHARKINP.tmp ... ok
----------------------
SHARK INTEGRAL PACKAGE
----------------------

Number of atoms                             ...     17
Number of basis functions                   ...    685
Number of shells                            ...    239
Maximum angular momentum                    ...      3
Integral batch strategy                     ... SHARK/LIBINT Hybrid
RI-J (if used) integral strategy            ... SPLIT-RIJ (Revised 2003 algorithm where possible)
Printlevel                                  ...      1
Contraction scheme used                     ... SEGMENTED contraction
Coulomb Range Separation                    ... NOT USED
Exchange Range Separation                   ... NOT USED
Finite Nucleus Model                        ... NOT USED
Auxiliary Coulomb fitting basis             ... AVAILABLE
   # of basis functions in Aux-J            ...   1513
   # of shells in Aux-J                     ...    391
   Maximum angular momentum in Aux-J        ...      4
Auxiliary J/K fitting basis                 ... NOT available
Auxiliary Correlation fitting basis         ... AVAILABLE
   # of basis functions in Aux-C            ...   2598
   # of shells in Aux-C                     ...    566
   Maximum angular momentum in Aux-C        ...      5
Auxiliary 'external' fitting basis          ... NOT available
Integral threshold                          ...     1.000000e-10
Primitive cut-off                           ...     1.000000e-11
Primitive pair pre-selection threshold      ...     1.000000e-11

Calculating pre-screening integrals         ... done (  0.3 sec) Dimension = 239
Organizing shell pair data                  ... done (  1.3 sec)
Shell pair information
Total number of shell pairs                 ...     28680
Shell pairs after pre-screening             ...     21732
Total number of primitive shell pairs       ...     75765
Primitive shell pairs kept                  ...     40465
          la=0 lb=0:   3465 shell pairs
          la=1 lb=0:   4939 shell pairs
          la=1 lb=1:   1858 shell pairs
          la=2 lb=0:   4316 shell pairs
          la=2 lb=1:   3061 shell pairs
          la=2 lb=2:   1280 shell pairs
          la=3 lb=0:   1093 shell pairs
          la=3 lb=1:    846 shell pairs
          la=3 lb=2:    764 shell pairs
          la=3 lb=3:    110 shell pairs

Calculating one electron integrals          ... done (  0.1 sec)
Calculating ECP integrals                   ... done ( 18.2 sec)
Calculating RI/J V-Matrix + Cholesky decomp.... done (  0.3 sec)
Calculating RI/C V-Matrix + Cholesky decomp.... done (  1.1 sec)
Calculating Nuclear repulsion               ... done (  0.0 sec) ENN=   6745.993811599041 Eh

SHARK setup successfully completed in  22.4 seconds

Maximum memory used throughout the entire GTOINT-calculation: 60.2 MB


           ************************************************************
           *        Program running with 6 parallel MPI-processes     *
           *              working on a common directory               *
           ************************************************************
-------------------------------------------------------------------------------
                                 ORCA SCF
-------------------------------------------------------------------------------

------------
SCF SETTINGS
------------
Hamiltonian:
 Ab initio Hamiltonian  Method          .... Hartree-Fock(GTOs)
 RI-approximation to the Coulomb term is turned on
   Number of AuxJ basis functions       .... 1513
   RIJ-COSX (HFX calculated with COS-X)).... on


General Settings:
 Integral files         IntName         .... nevpt2
 Hartree-Fock type      HFTyp           .... CASSCF
 Total Charge           Charge          ....    0
 Multiplicity           Mult            ....    6
 Number of Electrons    NEL             ....  329
 Basis Dimension        Dim             ....  685
 Nuclear Repulsion      ENuc            ....   6745.9938115990 Eh


Diagonalization of the overlap matrix:
Smallest eigenvalue                        ... 5.603e-04
Time for diagonalization                   ...    0.221 sec
Threshold for overlap eigenvalues          ... 1.000e-08
Number of eigenvalues below threshold      ... 0
Time for construction of square roots      ...    0.110 sec
Total time needed                          ...    0.335 sec

---------------------
INITIAL GUESS: MOREAD
---------------------
Guess MOs are being read from file: casscf.gbw
Input Geometry matches current geometry (good)
Input basis set matches current basis set (good)
MOs were renormalized
Gram-Schmidt orthogonalization of all MOs with pivot on actives
                      ------------------
                      INITIAL GUESS DONE (  14.4 sec)
                      ------------------
--------------------
COSX GRID GENERATION
--------------------

GRIDX 1
-------
General Integration Accuracy     IntAcc      ... 3.816
Radial Grid Type                 RadialGrid  ... OptM3 with GC (2021)
Angular Grid (max. ang.)         AngularGrid ... 1 (Lebedev-50)
Angular grid pruning method      GridPruning ... 4 (adaptive)
Weight generation scheme         WeightScheme... Becke
Basis function cutoff            BFCut       ... 1.0000e-10
Integration weight cutoff        WCut        ... 1.0000e-14
Angular grids for H and He will be reduced by one unit
Partially contracted basis set               ... on
Rotationally invariant grid construction     ... off

Total number of grid points                  ...    19537
Total number of batches                      ...      312
Average number of points per batch           ...       62
Average number of grid points per atom       ...     1149
UseSFitting                                  ... on

GRIDX 2
-------
General Integration Accuracy     IntAcc      ... 4.020
Radial Grid Type                 RadialGrid  ... OptM3 with GC (2021)
Angular Grid (max. ang.)         AngularGrid ... 2 (Lebedev-110)
Angular grid pruning method      GridPruning ... 4 (adaptive)
Weight generation scheme         WeightScheme... Becke
Basis function cutoff            BFCut       ... 1.0000e-10
Integration weight cutoff        WCut        ... 1.0000e-14
Angular grids for H and He will be reduced by one unit
Partially contracted basis set               ... on
Rotationally invariant grid construction     ... off

Total number of grid points                  ...    59368
Total number of batches                      ...      934
Average number of points per batch           ...       63
Average number of grid points per atom       ...     3492
UseSFitting                                  ... on

GRIDX 3
-------
General Integration Accuracy     IntAcc      ... 4.338
Radial Grid Type                 RadialGrid  ... OptM3 with GC (2021)
Angular Grid (max. ang.)         AngularGrid ... 3 (Lebedev-194)
Angular grid pruning method      GridPruning ... 4 (adaptive)
Weight generation scheme         WeightScheme... Becke
Basis function cutoff            BFCut       ... 1.0000e-10
Integration weight cutoff        WCut        ... 1.0000e-14
Angular grids for H and He will be reduced by one unit
Partially contracted basis set               ... on
Rotationally invariant grid construction     ... off

Total number of grid points                  ...   107549
Total number of batches                      ...     1689
Average number of points per batch           ...       63
Average number of grid points per atom       ...     6326
UseSFitting                                  ... on

Time for X-Grid setup             =    4.499 sec



 ... the calculation is a CASSCF calculation -I'm leaving here GOOD LUCK!!!



           ************************************************************
           *        Program running with 6 parallel MPI-processes     *
           *              working on a common directory               *
           ************************************************************
-------------------------------------------------------------------------------
                              ORCA-CASSCF
-------------------------------------------------------------------------------

Setting up the integral package       ... done
Setting up the integral package (RI)  ... done
Building the CAS space                ... done (1 configurations for Mult=6)
Building the CAS space                ... done (21 configurations for Mult=4)

 CASSCF (estimated) memory needed     ... 192.6 MB
 NEVPT2 (estimated) memory needed     ... 763.8 MB


SYSTEM-SPECIFIC SETTINGS:
Number of active electrons          ...    5
Number of active orbitals           ...    5
Total number of electrons           ...  329
Total number of orbitals            ...  685
Total number aux. functions         ... 2598

Determined orbital ranges:
   Internal       0 -  161 ( 162 orbitals)
   Active       162 -  166 (   5 orbitals)
   External     167 -  684 ( 518 orbitals)
Number of rotation parameters      ...  87316

CI-STEP:
CI strategy                         ... General CI
Number of multiplicity blocks       ...    2
BLOCK  1 WEIGHT=   0.5000
  Multiplicity                      ...    6
  #(Configurations)                 ...    1
  #(CSFs)                           ...    1
  #(Roots)                          ...    1
    ROOT=0 WEIGHT=    0.500000

BLOCK  2 WEIGHT=   0.5000
  Multiplicity                      ...    4
  #(Configurations)                 ...   21
  #(CSFs)                           ...   24
  #(Roots)                          ...   24
    ROOT=0 WEIGHT=    0.020833
    ROOT=1 WEIGHT=    0.020833
    ROOT=2 WEIGHT=    0.020833
    ROOT=3 WEIGHT=    0.020833
    ROOT=4 WEIGHT=    0.020833
    ROOT=5 WEIGHT=    0.020833
    ROOT=6 WEIGHT=    0.020833
    ROOT=7 WEIGHT=    0.020833
    ROOT=8 WEIGHT=    0.020833
    ROOT=9 WEIGHT=    0.020833
    ROOT=10 WEIGHT=    0.020833
    ROOT=11 WEIGHT=    0.020833
    ROOT=12 WEIGHT=    0.020833
    ROOT=13 WEIGHT=    0.020833
    ROOT=14 WEIGHT=    0.020833
    ROOT=15 WEIGHT=    0.020833
    ROOT=16 WEIGHT=    0.020833
    ROOT=17 WEIGHT=    0.020833
    ROOT=18 WEIGHT=    0.020833
    ROOT=19 WEIGHT=    0.020833
    ROOT=20 WEIGHT=    0.020833
    ROOT=21 WEIGHT=    0.020833
    ROOT=22 WEIGHT=    0.020833
    ROOT=23 WEIGHT=    0.020833

  PrintLevel                        ...    1
  N(GuessMat)                       ...       512
  MaxDim(CI)                        ...        10
  MaxIter(CI)                       ...        64
  Energy Tolerance CI               ...  1.00e-08
  Residual Tolerance CI             ...  1.00e-08
  Shift(CI)                         ...  1.00e-04

INTEGRAL-TRANSFORMATION-STEP:
  Algorithm                         ... RI-MO

ORBITAL-IMPROVEMENT-STEP:
  Algorithm                         ... SuperCI(PT)
  Default Parametrization           ... CAYLEY
  Act-Act rotations                 ... depends on algorithm used

  Note: SuperCI(PT) will ignore FreezeIE, FreezeAct and FreezeGrad. In general Default settings are encouraged.
        In conjunction with ShiftUp, ShiftDn or GradScaling the performance of SuperCI(PT) is less optimal.  

  MaxRot                            ... 2.00e-01 
  Max. no of vectors (DIIS)         ... 15
  DThresh (cut-off) metric          ... 1.00e-06
  Switch step at gradient           ...  3.00e-02 
  Switch step at iteration          ...        50   
  Switch step to                    ... SuperCI(PT)    

SCF-SETTINGS:
  Incremental                       ... off
  RIJCOSX approximation             ... on
  UseFinalGrid                      ... on
  RI-JK approximation               ... off
  AO integral handling              ... DIRECT
  Integral Neglect Thresh           ...  1.00e-10
  Primitive cutoff TCut             ...  1.00e-11
  Energy convergence tolerance      ...  1.00e-07
  Orbital gradient convergence      ...  1.00e-03
  Max. number of iterations         ...        75  

PT2-SETTINGS:
  A PT2 calculation will be performed on top of the CASSCF wave function (PT2 = SC-NEVPT2)   
 CI step strategy                   ... General CI
  D4C handling                      ... on the fly 
  CI truncation for D4C at          ...  1.00e-14
  CI truncation for D3  at          ...  1.00e-14
  Orbitals                          ... canonical for each state 
  Last  frozen  orbital             ... 4
  First deleted orbital             ... 685
  RI Step                           ... store IJV(array) (MC_ONDISK during integral transformation) 

PROPERTIES-SETTINGS:
  Spin orbit coupling               ... true
  GTensor                           ... true
  QDPT diagonal energies            ... NEVPT2 energies 

FINAL ORBITALS:
  Active   Orbitals                 ... natural 
  Internal Orbitals                 ... canonical 
  External Orbitals                 ... canonical 

------------------
CAS-SCF ITERATIONS
------------------


MACRO-ITERATION   1: 
   --- Inactive Energy E0 = -3296.11553381 Eh
CI-ITERATION   0: 
 -3306.909411443   0.000000000000 (    0.00)
   CI-PROBLEM SOLVED
   DENSITIES MADE
CI-ITERATION   0: 
 -3306.771853579   0.000000000000 (    0.00)
 -3306.771540380   0.000000000000
 -3306.771065252   0.000000000000
 -3306.770959137   0.000000000000
 -3306.770751963   0.000000000000
 -3306.770389234   0.000000000000
 -3306.770314065   0.000000000000
 -3306.770078918   0.000000000000
 -3306.770067655   0.000000000000
 -3306.749833598   0.000000000000
 -3306.749728678   0.000000000000
 -3306.749438631   0.000000000000
 -3306.737320633   0.000000000000
 -3306.736702735   0.000000000000
 -3306.736028561   0.000000000000
 -3306.735996270   0.000000000000
 -3306.735458611   0.000000000000
 -3306.676380556   0.000000000000
 -3306.675955537   0.000000000000
 -3306.675881646   0.000000000000
 -3306.675616808   0.000000000000
 -3306.675425109   0.000000000000
 -3306.675084124   0.000000000000
 -3306.674887436   0.000000000000
   CI-PROBLEM SOLVED
   DENSITIES MADE

                 <<<<<<<<<<<<<<<<<<INITIAL CI STATE CHECK>>>>>>>>>>>>>>>>>>

BLOCK  1 MULT= 6 NROOTS= 1 
ROOT   0:  E=   -3306.9094114430 Eh
      1.00000 [     0]: 11111

BLOCK  2 MULT= 4 NROOTS=24 
ROOT   0:  E=   -3306.7718535786 Eh
      0.33322 [     3]: 20111
      0.25023 [    16]: 10112
      0.20135 [    17]: 02111
      0.15909 [     4]: 12110
      0.02230 [    14]: 10211
      0.01440 [     6]: 12011
      0.00635 [     2]: 21011
      0.00414 [    15]: 10121
ROOT   1:  E=   -3306.7715403797 Eh  0.009 eV     68.7 cm**-1
      0.76801 [    10]: 11111
      0.09561 [     0]: 21110
      0.08595 [    20]: 01112
      0.01303 [     7]: 11210
      0.01246 [    13]: 11012
      0.00877 [     2]: 21011
      0.00694 [    18]: 01211
      0.00290 [    14]: 10211
ROOT   2:  E=   -3306.7710652523 Eh  0.021 eV    173.0 cm**-1
      0.40146 [    10]: 11111
      0.28413 [    14]: 10211
      0.18606 [     6]: 12011
      0.02692 [    15]: 10121
      0.02203 [    16]: 10112
      0.01764 [     5]: 12101
      0.01458 [     4]: 12110
      0.01324 [     1]: 21101
      0.00829 [    19]: 01121
      0.00638 [     7]: 11210
      0.00514 [    13]: 11012
      0.00489 [    20]: 01112
      0.00404 [     0]: 21110
ROOT   3:  E=   -3306.7709591373 Eh  0.024 eV    196.3 cm**-1
      0.17862 [    16]: 10112
      0.16356 [     4]: 12110
      0.12592 [     3]: 20111
      0.09110 [     7]: 11210
      0.08509 [    10]: 11111
      0.08160 [    17]: 02111
      0.06808 [    18]: 01211
      0.06688 [    13]: 11012
      0.06513 [     2]: 21011
      0.01363 [     9]: 11120
      0.01166 [    11]: 11102
      0.00808 [    14]: 10211
      0.00807 [     6]: 12011
      0.00799 [     0]: 21110
      0.00783 [    20]: 01112
      0.00722 [    19]: 01121
      0.00710 [     1]: 21101
ROOT   4:  E=   -3306.7707519631 Eh  0.030 eV    241.8 cm**-1
      0.24382 [    15]: 10121
      0.16769 [     5]: 12101
      0.15328 [    18]: 01211
      0.14028 [     2]: 21011
      0.08026 [     7]: 11210
      0.06333 [    13]: 11012
      0.04562 [    10]: 11111
      0.02571 [    14]: 10211
      0.01633 [     6]: 12011
      0.01356 [    19]: 01121
      0.01269 [     1]: 21101
      0.01127 [     9]: 11120
      0.00868 [    20]: 01112
      0.00806 [    11]: 11102
      0.00759 [     0]: 21110
ROOT   5:  E=   -3306.7703892335 Eh  0.040 eV    321.4 cm**-1
      0.31045 [    10]: 11111
      0.27683 [     9]: 11120
      0.19525 [    11]: 11102
      0.09481 [     0]: 21110
      0.07920 [    20]: 01112
      0.00942 [    12]: 11021
      0.00931 [     6]: 12011
      0.00663 [    14]: 10211
      0.00570 [     8]: 11201
      0.00344 [     7]: 11210
      0.00306 [     2]: 21011
ROOT   6:  E=   -3306.7703140653 Eh  0.042 eV    337.9 cm**-1
      0.33031 [    19]: 01121
      0.25820 [     1]: 21101
      0.13070 [    10]: 11111
      0.04646 [    18]: 01211
      0.03850 [     2]: 21011
      0.03608 [     7]: 11210
      0.03310 [    13]: 11012
      0.02899 [     0]: 21110
      0.02830 [     9]: 11120
      0.02770 [    20]: 01112
      0.02010 [    11]: 11102
      0.00545 [     6]: 12011
      0.00497 [    12]: 11021
      0.00488 [    14]: 10211
      0.00441 [     8]: 11201
ROOT   7:  E=   -3306.7700789178 Eh  0.048 eV    389.5 cm**-1
      0.32353 [    12]: 11021
      0.29252 [     8]: 11201
      0.17949 [    10]: 11111
      0.06007 [     7]: 11210
      0.05350 [    13]: 11012
      0.01801 [    18]: 01211
      0.01633 [     2]: 21011
      0.01049 [     9]: 11120
      0.00972 [    11]: 11102
      0.00848 [     3]: 20111
      0.00806 [    17]: 02111
      0.00658 [    16]: 10112
      0.00487 [     4]: 12110
      0.00267 [    20]: 01112
      0.00256 [     0]: 21110
ROOT   8:  E=   -3306.7700676552 Eh  0.049 eV    392.0 cm**-1
      0.62243 [    10]: 11111
      0.09150 [     8]: 11201
      0.08956 [    12]: 11021
      0.04776 [     0]: 21110
      0.04641 [    20]: 01112
      0.03476 [     9]: 11120
      0.03073 [    11]: 11102
      0.01014 [    13]: 11012
      0.00962 [     7]: 11210
      0.00524 [     2]: 21011
      0.00509 [    18]: 01211
      0.00287 [    19]: 01121
      0.00265 [     1]: 21101
ROOT   9:  E=   -3306.7498335978 Eh  0.599 eV   4832.8 cm**-1
      0.16704 [    19]: 01121
      0.15135 [    14]: 10211
      0.10968 [     9]: 11120
      0.09716 [     1]: 21101
      0.08495 [     0]: 21110
      0.08136 [    11]: 11102
      0.07736 [    20]: 01112
      0.06229 [    10]: 11111
      0.03479 [    18]: 01211
      0.03288 [     2]: 21011
      0.03187 [     6]: 12011
      0.01983 [    13]: 11012
      0.01424 [    16]: 10112
      0.01397 [    15]: 10121
      0.00523 [    12]: 11021
      0.00430 [     7]: 11210
      0.00386 [     4]: 12110
      0.00361 [     8]: 11201
      0.00311 [     5]: 12101
ROOT  10:  E=   -3306.7497286780 Eh  0.602 eV   4855.9 cm**-1
      0.26570 [     4]: 12110
      0.20961 [    16]: 10112
      0.19311 [    17]: 02111
      0.07256 [     3]: 20111
      0.05703 [     7]: 11210
      0.04549 [    13]: 11012
      0.03721 [    18]: 01211
      0.02976 [     6]: 12011
      0.02662 [     2]: 21011
      0.01562 [    14]: 10211
      0.00929 [    12]: 11021
      0.00854 [     9]: 11120
      0.00726 [    15]: 10121
      0.00658 [     8]: 11201
      0.00623 [    11]: 11102
      0.00322 [    20]: 01112
ROOT  11:  E=   -3306.7494386311 Eh  0.610 eV   4919.5 cm**-1
      0.27680 [    12]: 11021
      0.20842 [     8]: 11201
      0.12985 [     3]: 20111
      0.09293 [    18]: 01211
      0.06870 [    17]: 02111
      0.04980 [     7]: 11210
      0.04917 [     9]: 11120
      0.03735 [    16]: 10112
      0.02319 [    11]: 11102
      0.01775 [     2]: 21011
      0.01433 [    19]: 01121
      0.01016 [    13]: 11012
      0.00857 [    10]: 11111
      0.00638 [    20]: 01112
      0.00379 [     1]: 21101
ROOT  12:  E=   -3306.7373206334 Eh  0.940 eV   7579.1 cm**-1
      0.57919 [    10]: 11111
      0.17578 [     0]: 21110
      0.16188 [    20]: 01112
      0.01272 [    12]: 11021
      0.01232 [     2]: 21011
      0.01139 [     8]: 11201
      0.00986 [    18]: 01211
      0.00967 [    13]: 11012
      0.00881 [     7]: 11210
      0.00656 [    19]: 01121
      0.00542 [     9]: 11120
      0.00330 [     1]: 21101
      0.00306 [    11]: 11102
ROOT  13:  E=   -3306.7367027347 Eh  0.957 eV   7714.7 cm**-1
      0.31587 [    15]: 10121
      0.17758 [     5]: 12101
      0.12568 [     2]: 21011
      0.10999 [    18]: 01211
      0.06797 [    13]: 11012
      0.06563 [     7]: 11210
      0.03526 [    10]: 11111
      0.03284 [    14]: 10211
      0.01337 [     6]: 12011
      0.01197 [     1]: 21101
      0.01057 [    19]: 01121
      0.00711 [     0]: 21110
      0.00626 [    11]: 11102
      0.00602 [     9]: 11120
      0.00602 [    20]: 01112
      0.00273 [    17]: 02111
ROOT  14:  E=   -3306.7360285613 Eh  0.975 eV   7862.7 cm**-1
      0.16174 [    10]: 11111
      0.14063 [    17]: 02111
      0.10300 [     4]: 12110
      0.09204 [     8]: 11201
      0.08923 [     3]: 20111
      0.08106 [    13]: 11012
      0.07762 [     2]: 21011
      0.06017 [    16]: 10112
      0.04783 [    18]: 01211
      0.04699 [     7]: 11210
      0.04566 [    11]: 11102
      0.01357 [     1]: 21101
      0.01299 [     9]: 11120
      0.00756 [     0]: 21110
      0.00735 [    19]: 01121
      0.00547 [    20]: 01112
      0.00400 [     6]: 12011
ROOT  15:  E=   -3306.7359962698 Eh  0.976 eV   7869.8 cm**-1
      0.24901 [    10]: 11111
      0.12583 [     9]: 11120
      0.11961 [    19]: 01121
      0.08795 [     1]: 21101
      0.08604 [     7]: 11210
      0.07271 [    13]: 11012
      0.07230 [    11]: 11102
      0.05085 [    12]: 11021
      0.04421 [     8]: 11201
      0.03741 [    20]: 01112
      0.03493 [     0]: 21110
      0.01032 [    18]: 01211
      0.00826 [     2]: 21011
ROOT  16:  E=   -3306.7354586106 Eh  0.990 eV   7987.8 cm**-1
      0.35763 [    10]: 11111
      0.21327 [     6]: 12011
      0.12128 [    14]: 10211
      0.10396 [     1]: 21101
      0.08547 [    11]: 11102
      0.02617 [    20]: 01112
      0.01998 [     5]: 12101
      0.01632 [     4]: 12110
      0.01137 [    15]: 10121
      0.00932 [    16]: 10112
      0.00760 [     7]: 11210
      0.00751 [     9]: 11120
      0.00702 [     2]: 21011
      0.00471 [    19]: 01121
      0.00403 [     8]: 11201
ROOT  17:  E=   -3306.6763805565 Eh  2.598 eV  20953.9 cm**-1
      0.24534 [    17]: 02111
      0.19032 [     3]: 20111
      0.12608 [     4]: 12110
      0.10040 [    16]: 10112
      0.05844 [     5]: 12101
      0.04113 [    12]: 11021
      0.04085 [     8]: 11201
      0.03767 [    15]: 10121
      0.03752 [     2]: 21011
      0.03529 [    18]: 01211
      0.02188 [     6]: 12011
      0.01578 [    14]: 10211
      0.01133 [    13]: 11012
      0.01012 [     7]: 11210
      0.00731 [    11]: 11102
      0.00706 [     9]: 11120
      0.00496 [     1]: 21101
      0.00470 [    19]: 01121
ROOT  18:  E=   -3306.6759555372 Eh  2.610 eV  21047.2 cm**-1
      0.50014 [     5]: 12101
      0.30283 [    15]: 10121
      0.03758 [     6]: 12011
      0.02734 [    17]: 02111
      0.02352 [     4]: 12110
      0.02260 [     3]: 20111
      0.02252 [    14]: 10211
      0.01652 [    16]: 10112
      0.01388 [     2]: 21011
      0.01032 [     7]: 11210
      0.00768 [    13]: 11012
      0.00708 [    18]: 01211
ROOT  19:  E=   -3306.6758816460 Eh  2.612 eV  21063.4 cm**-1
      0.27640 [    20]: 01112
      0.25853 [     0]: 21110
      0.20447 [     6]: 12011
      0.14147 [    14]: 10211
      0.02194 [     5]: 12101
      0.01956 [    18]: 01211
      0.01738 [     2]: 21011
      0.01504 [    15]: 10121
      0.01478 [     4]: 12110
      0.01022 [    11]: 11102
      0.01019 [    16]: 10112
      0.00677 [     9]: 11120
ROOT  20:  E=   -3306.6756168075 Eh  2.619 eV  21121.5 cm**-1
      0.34020 [     1]: 21101
      0.26452 [    19]: 01121
      0.11068 [    11]: 11102
      0.07191 [     9]: 11120
      0.04740 [     0]: 21110
      0.04081 [    20]: 01112
      0.02708 [     6]: 12011
      0.01824 [    14]: 10211
      0.01540 [     8]: 11201
      0.01472 [     2]: 21011
      0.01263 [    13]: 11012
      0.01052 [    18]: 01211
      0.00937 [    12]: 11021
      0.00887 [     7]: 11210
ROOT  21:  E=   -3306.6754251092 Eh  2.624 eV  21163.6 cm**-1
      0.24701 [    11]: 11102
      0.19316 [     9]: 11120
      0.16850 [     6]: 12011
      0.11641 [    14]: 10211
      0.07063 [    20]: 01112
      0.06137 [     0]: 21110
      0.02232 [    13]: 11012
      0.01839 [     8]: 11201
      0.01795 [     5]: 12101
      0.01499 [     7]: 11210
      0.01281 [     4]: 12110
      0.01236 [    12]: 11021
      0.01231 [    15]: 10121
      0.01118 [    19]: 01121
      0.00884 [    16]: 10112
      0.00806 [     1]: 21101
ROOT  22:  E=   -3306.6750841243 Eh  2.633 eV  21238.4 cm**-1
      0.31540 [     2]: 21011
      0.27495 [    18]: 01211
      0.07874 [     4]: 12110
      0.06507 [    16]: 10112
      0.04824 [     8]: 11201
      0.04698 [    12]: 11021
      0.02652 [     1]: 21101
      0.02610 [     0]: 21110
      0.02291 [    19]: 01121
      0.02271 [    20]: 01112
      0.01642 [     7]: 11210
      0.01407 [    13]: 11012
      0.01023 [     9]: 11120
      0.00970 [    11]: 11102
      0.00638 [     3]: 20111
      0.00447 [    17]: 02111
      0.00411 [     6]: 12011
      0.00373 [    14]: 10211
ROOT  23:  E=   -3306.6748874361 Eh  2.639 eV  21281.6 cm**-1
      0.37901 [    13]: 11012
      0.31101 [     7]: 11210
      0.10796 [     8]: 11201
      0.10396 [    12]: 11021
      0.02345 [    17]: 02111
      0.01719 [     3]: 20111
      0.01058 [    11]: 11102
      0.00764 [     2]: 21011
      0.00710 [     4]: 12110
      0.00700 [    16]: 10112
      0.00694 [     9]: 11120
      0.00556 [     5]: 12101
      0.00518 [    18]: 01211

                 <<<<<<<<<<<<<<<<<<INITIAL CI STATE CHECK>>>>>>>>>>>>>>>>>>

   E(CAS)= -3306.821304869 Eh DE=    0.000000e+00
   --- Energy gap subspaces: Ext-Act = 0.139   Act-Int = 0.057
   N(occ)=  1.00000 1.00000 1.00000 1.00000 1.00000
   ||g|| =     8.210165e-04 Max(G)=    1.066093e-04 Rot=592,21
                     ---- THE CAS-SCF GRADIENT HAS CONVERGED ----
                            --- FINALIZING ORBITALS ---
                    ---- DOING ONE FINAL ITERATION FOR PRINTING ----
   --- Forming Natural Orbitals
   --- Canonicalize Internal Space
   --- Canonicalize External Space

MACRO-ITERATION   2: 
   --- Inactive Energy E0 = -3296.11553381 Eh
   --- All densities will be recomputed
CI-ITERATION   0: 
 -3306.909411443   0.000000000000 (    0.00)
   CI-PROBLEM SOLVED
   DENSITIES MADE
CI-ITERATION   0: 
 -3306.771853579   0.000000000000 (    0.00)
 -3306.771540380   0.000000000000
 -3306.771065252   0.000000000000
 -3306.770959137   0.000000000000
 -3306.770751963   0.000000000000
 -3306.770389234   0.000000000000
 -3306.770314066   0.000000000000
 -3306.770078918   0.000000000000
 -3306.770067655   0.000000000000
 -3306.749833598   0.000000000000
 -3306.749728678   0.000000000000
 -3306.749438631   0.000000000000
 -3306.737320634   0.000000000000
 -3306.736702735   0.000000000000
 -3306.736028561   0.000000000000
 -3306.735996270   0.000000000000
 -3306.735458611   0.000000000000
 -3306.676380557   0.000000000000
 -3306.675955537   0.000000000000
 -3306.675881646   0.000000000000
 -3306.675616808   0.000000000000
 -3306.675425109   0.000000000000
 -3306.675084124   0.000000000000
 -3306.674887436   0.000000000000
   CI-PROBLEM SOLVED
   DENSITIES MADE
   E(CAS)= -3306.821304870 Eh DE=   -1.846274e-10
   --- Energy gap subspaces: Ext-Act = 0.141   Act-Int = 0.059
   N(occ)=  1.00000 1.00000 1.00000 1.00000 1.00000
   ||g|| =     8.210165e-04 Max(G)=    1.066093e-04 Rot=592,21
--------------
CASSCF RESULTS
--------------

Final CASSCF energy       : -3306.821304870 Eh  -89983.1824 eV

----------------
ORBITAL ENERGIES
----------------

  NO   OCC          E(Eh)            E(eV) 
   0   2.0000    -240.566096     -6546.1363 
   1   2.0000     -29.145940      -793.1013 
   2   2.0000     -24.850416      -676.2142 
   3   2.0000     -24.849904      -676.2003 
   4   2.0000     -24.849732      -676.1956 
   5   2.0000      -4.728978      -128.6820 
   6   2.0000      -4.725835      -128.5965 
   7   2.0000      -4.725760      -128.5945 
   8   2.0000      -4.715894      -128.3260 
   9   2.0000      -4.714115      -128.2776 
  10   2.0000      -4.713831      -128.2699 
  11   2.0000      -4.713650      -128.2649 
  12   2.0000      -4.713549      -128.2622 
  13   2.0000      -4.710614      -128.1823 
  14   2.0000      -4.708900      -128.1357 
  15   2.0000      -4.708869      -128.1349 
  16   2.0000      -4.707031      -128.0848 
  17   2.0000      -4.705314      -128.0381 
  18   2.0000      -4.705279      -128.0371 
  19   2.0000      -4.697075      -127.8139 
  20   2.0000      -4.696790      -127.8062 
  21   2.0000      -3.849919      -104.7616 
  22   2.0000      -2.767947       -75.3197 
  23   2.0000      -2.766964       -75.2929 
  24   2.0000      -2.763398       -75.1959 
  25   2.0000      -2.762961       -75.1840 
  26   2.0000      -2.762510       -75.1717 
  27   2.0000      -2.761025       -75.1313 
  28   2.0000      -2.760834       -75.1261 
  29   2.0000      -2.759295       -75.0842 
  30   2.0000      -2.758219       -75.0550 
  31   2.0000      -2.756460       -75.0071 
  32   2.0000      -2.754683       -74.9587 
  33   2.0000      -2.754226       -74.9463 
  34   2.0000      -2.752631       -74.9029 
  35   2.0000      -2.751769       -74.8794 
  36   2.0000      -2.751303       -74.8668 
  37   2.0000      -2.751118       -74.8617 
  38   2.0000      -2.750135       -74.8350 
  39   2.0000      -2.749803       -74.8259 
  40   2.0000      -2.749486       -74.8173 
  41   2.0000      -2.748893       -74.8012 
  42   2.0000      -2.748609       -74.7935 
  43   2.0000      -2.748288       -74.7847 
  44   2.0000      -2.748065       -74.7786 
  45   2.0000      -2.747225       -74.7558 
  46   2.0000      -2.747109       -74.7526 
  47   2.0000      -2.746935       -74.7479 
  48   2.0000      -2.746419       -74.7339 
  49   2.0000      -2.745779       -74.7164 
  50   2.0000      -2.745378       -74.7055 
  51   2.0000      -2.743983       -74.6676 
  52   2.0000      -2.743912       -74.6657 
  53   2.0000      -2.743375       -74.6510 
  54   2.0000      -2.743149       -74.6449 
  55   2.0000      -2.742676       -74.6320 
  56   2.0000      -2.742237       -74.6201 
  57   2.0000      -2.742042       -74.6148 
  58   2.0000      -2.740655       -74.5770 
  59   2.0000      -2.740405       -74.5702 
  60   2.0000      -2.739798       -74.5537 
  61   2.0000      -2.739371       -74.5421 
  62   2.0000      -2.739300       -74.5401 
  63   2.0000      -2.738737       -74.5248 
  64   2.0000      -2.736113       -74.4534 
  65   2.0000      -2.732923       -74.3666 
  66   2.0000      -2.732507       -74.3553 
  67   2.0000      -2.730778       -74.3082 
  68   2.0000      -2.730633       -74.3043 
  69   2.0000      -2.728974       -74.2592 
  70   2.0000      -2.516087       -68.4662 
  71   2.0000      -2.515759       -68.4573 
  72   2.0000      -2.515008       -68.4368 
  73   2.0000      -0.562914       -15.3177 
  74   2.0000      -0.558178       -15.1888 
  75   2.0000      -0.557790       -15.1782 
  76   2.0000      -0.552753       -15.0412 
  77   2.0000      -0.550996       -14.9934 
  78   2.0000      -0.548360       -14.9216 
  79   2.0000      -0.546706       -14.8766 
  80   2.0000      -0.544257       -14.8100 
  81   2.0000      -0.541802       -14.7432 
  82   2.0000      -0.541447       -14.7335 
  83   2.0000      -0.540594       -14.7103 
  84   2.0000      -0.540497       -14.7077 
  85   2.0000      -0.537055       -14.6140 
  86   2.0000      -0.532933       -14.5018 
  87   2.0000      -0.532779       -14.4977 
  88   2.0000      -0.532331       -14.4855 
  89   2.0000      -0.530868       -14.4456 
  90   2.0000      -0.530851       -14.4452 
  91   2.0000      -0.528339       -14.3768 
  92   2.0000      -0.526776       -14.3343 
  93   2.0000      -0.526357       -14.3229 
  94   2.0000      -0.523764       -14.2523 
  95   2.0000      -0.521877       -14.2010 
  96   2.0000      -0.518833       -14.1182 
  97   2.0000      -0.518323       -14.1043 
  98   2.0000      -0.514683       -14.0052 
  99   2.0000      -0.513145       -13.9634 
 100   2.0000      -0.511541       -13.9197 
 101   2.0000      -0.508105       -13.8262 
 102   2.0000      -0.505269       -13.7491 
 103   2.0000      -0.502838       -13.6829 
 104   2.0000      -0.501127       -13.6364 
 105   2.0000      -0.500362       -13.6156 
 106   2.0000      -0.496100       -13.4996 
 107   2.0000      -0.494976       -13.4690 
 108   2.0000      -0.493270       -13.4225 
 109   2.0000      -0.492169       -13.3926 
 110   2.0000      -0.488202       -13.2846 
 111   2.0000      -0.486483       -13.2379 
 112   2.0000      -0.484082       -13.1725 
 113   2.0000      -0.483398       -13.1539 
 114   2.0000      -0.482421       -13.1273 
 115   2.0000      -0.481887       -13.1128 
 116   2.0000      -0.474226       -12.9044 
 117   2.0000      -0.471298       -12.8247 
 118   2.0000      -0.466683       -12.6991 
 119   2.0000      -0.462483       -12.5848 
 120   2.0000      -0.461194       -12.5497 
 121   2.0000      -0.460788       -12.5387 
 122   2.0000      -0.458665       -12.4809 
 123   2.0000      -0.455554       -12.3962 
 124   2.0000      -0.455134       -12.3848 
 125   2.0000      -0.453435       -12.3386 
 126   2.0000      -0.449744       -12.2381 
 127   2.0000      -0.447104       -12.1663 
 128   2.0000      -0.444213       -12.0876 
 129   2.0000      -0.443763       -12.0754 
 130   2.0000      -0.441243       -12.0068 
 131   2.0000      -0.440808       -11.9950 
 132   2.0000      -0.439897       -11.9702 
 133   2.0000      -0.439561       -11.9611 
 134   2.0000      -0.438317       -11.9272 
 135   2.0000      -0.430649       -11.7185 
 136   2.0000      -0.430580       -11.7167 
 137   2.0000      -0.430045       -11.7021 
 138   2.0000      -0.428700       -11.6655 
 139   2.0000      -0.425571       -11.5804 
 140   2.0000      -0.425251       -11.5717 
 141   2.0000      -0.422693       -11.5021 
 142   2.0000      -0.421495       -11.4695 
 143   2.0000      -0.420450       -11.4410 
 144   2.0000      -0.417867       -11.3707 
 145   2.0000      -0.412751       -11.2315 
 146   2.0000      -0.411376       -11.1941 
 147   2.0000      -0.411221       -11.1899 
 148   2.0000      -0.408111       -11.1053 
 149   2.0000      -0.407938       -11.1006 
 150   2.0000      -0.402784       -10.9603 
 151   2.0000      -0.395896       -10.7729 
 152   2.0000      -0.391957       -10.6657 
 153   2.0000      -0.379607       -10.3296 
 154   2.0000      -0.369932       -10.0664 
 155   2.0000      -0.368654       -10.0316 
 156   2.0000      -0.364903        -9.9295 
 157   2.0000      -0.268742        -7.3128 
 158   2.0000      -0.259853        -7.0710 
 159   2.0000      -0.241918        -6.5829 
 160   2.0000      -0.234109        -6.3704 
 161   2.0000      -0.229655        -6.2492 
 162   1.0000      -0.169833        -4.6214 
 163   1.0000      -0.166356        -4.5268 
 164   1.0000      -0.171038        -4.6542 
 165   1.0000      -0.169918        -4.6237 
 166   1.0000      -0.167808        -4.5663 
 167   0.0000      -0.025176        -0.6851 
 168   0.0000      -0.020284        -0.5520 
 169   0.0000      -0.015009        -0.4084 
 170   0.0000      -0.012398        -0.3374 
 171   0.0000      -0.004138        -0.1126 
 172   0.0000      -0.003063        -0.0834 
 173   0.0000      -0.000443        -0.0121 
 174   0.0000       0.008366         0.2276 
 175   0.0000       0.036302         0.9878 
 176   0.0000       0.042152         1.1470 
 177   0.0000       0.042360         1.1527 
 178   0.0000       0.077582         2.1111 
 179   0.0000       0.079258         2.1567 
 180   0.0000       0.092083         2.5057 
 181   0.0000       0.094205         2.5635 
 182   0.0000       0.094232         2.5642 
 183   0.0000       0.097174         2.6442 
 184   0.0000       0.099283         2.7016 
 185   0.0000       0.104224         2.8361 
 186   0.0000       0.104692         2.8488 
 187   0.0000       0.111619         3.0373 
 188   0.0000       0.112108         3.0506 
 189   0.0000       0.115135         3.1330 
 190   0.0000       0.118443         3.2230 
 191   0.0000       0.118643         3.2284 
 192   0.0000       0.130860         3.5609 
 193   0.0000       0.139788         3.8038 
 194   0.0000       0.143461         3.9038 
 195   0.0000       0.148282         4.0350 
 196   0.0000       0.153136         4.1670 
 197   0.0000       0.156709         4.2643 
 198   0.0000       0.159884         4.3507 
 199   0.0000       0.170776         4.6470 
 200   0.0000       0.171509         4.6670 
 201   0.0000       0.177594         4.8326 
 202   0.0000       0.180641         4.9155 
 203   0.0000       0.181938         4.9508 
 204   0.0000       0.182662         4.9705 
 205   0.0000       0.184459         5.0194 
 206   0.0000       0.187143         5.0924 
 207   0.0000       0.187593         5.1047 
 208   0.0000       0.190918         5.1951 
 209   0.0000       0.198015         5.3883 
 210   0.0000       0.198114         5.3909 
 211   0.0000       0.205917         5.6033 
 212   0.0000       0.207051         5.6341 
 213   0.0000       0.222722         6.0606 
 214   0.0000       0.231282         6.2935 
 215   0.0000       0.232190         6.3182 
 216   0.0000       0.234874         6.3912 
 217   0.0000       0.239269         6.5108 
 218   0.0000       0.239474         6.5164 
 219   0.0000       0.243454         6.6247 
 220   0.0000       0.244538         6.6542 
 221   0.0000       0.250960         6.8290 
 222   0.0000       0.256223         6.9722 
 223   0.0000       0.269330         7.3288 
 224   0.0000       0.270815         7.3693 
 225   0.0000       0.275116         7.4863 
 226   0.0000       0.281582         7.6622 
 227   0.0000       0.298924         8.1341 
 228   0.0000       0.310186         8.4406 
 229   0.0000       0.312128         8.4934 
 230   0.0000       0.324515         8.8305 
 231   0.0000       0.330220         8.9857 
 232   0.0000       0.356331         9.6963 
 233   0.0000       0.356814         9.7094 
 234   0.0000       0.362130         9.8541 
 235   0.0000       0.374464        10.1897 
 236   0.0000       0.377042        10.2598 
 237   0.0000       0.379593        10.3292 
 238   0.0000       0.385548        10.4913 
 239   0.0000       0.387775        10.5519 
 240   0.0000       0.401490        10.9251 
 241   0.0000       0.402405        10.9500 
 242   0.0000       0.404691        11.0122 
 243   0.0000       0.405847        11.0437 
 244   0.0000       0.411791        11.2054 
 245   0.0000       0.412302        11.2193 
 246   0.0000       0.414915        11.2904 
 247   0.0000       0.423465        11.5231 
 248   0.0000       0.431303        11.7363 
 249   0.0000       0.433783        11.8038 
 250   0.0000       0.438879        11.9425 
 251   0.0000       0.445602        12.1254 
 252   0.0000       0.450943        12.2708 
 253   0.0000       0.465064        12.6550 
 254   0.0000       0.465749        12.6737 
 255   0.0000       0.471405        12.8276 
 256   0.0000       0.473035        12.8719 
 257   0.0000       0.476571        12.9682 
 258   0.0000       0.494247        13.4491 
 259   0.0000       0.495191        13.4748 
 260   0.0000       0.496601        13.5132 
 261   0.0000       0.503505        13.7011 
 262   0.0000       0.503688        13.7060 
 263   0.0000       0.510668        13.8960 
 264   0.0000       0.513454        13.9718 
 265   0.0000       0.519210        14.1284 
 266   0.0000       0.520748        14.1703 
 267   0.0000       0.521095        14.1797 
 268   0.0000       0.526664        14.3313 
 269   0.0000       0.526866        14.3367 
 270   0.0000       0.530648        14.4397 
 271   0.0000       0.536284        14.5930 
 272   0.0000       0.537996        14.6396 
 273   0.0000       0.545292        14.8382 
 274   0.0000       0.545355        14.8399 
 275   0.0000       0.548967        14.9381 
 276   0.0000       0.550359        14.9760 
 277   0.0000       0.557654        15.1745 
 278   0.0000       0.558331        15.1930 
 279   0.0000       0.564775        15.3683 
 280   0.0000       0.573227        15.5983 
 281   0.0000       0.573413        15.6034 
 282   0.0000       0.577436        15.7128 
 283   0.0000       0.577943        15.7266 
 284   0.0000       0.581379        15.8201 
 285   0.0000       0.587403        15.9840 
 286   0.0000       0.593763        16.1571 
 287   0.0000       0.595723        16.2105 
 288   0.0000       0.606711        16.5095 
 289   0.0000       0.613302        16.6888 
 290   0.0000       0.620777        16.8922 
 291   0.0000       0.634486        17.2652 
 292   0.0000       0.636117        17.3096 
 293   0.0000       0.639878        17.4120 
 294   0.0000       0.644579        17.5399 
 295   0.0000       0.645947        17.5771 
 296   0.0000       0.647978        17.6324 
 297   0.0000       0.651100        17.7173 
 298   0.0000       0.654755        17.8168 
 299   0.0000       0.655707        17.8427 
 300   0.0000       0.659175        17.9371 
 301   0.0000       0.663170        18.0458 
 302   0.0000       0.664709        18.0877 
 303   0.0000       0.667973        18.1765 
 304   0.0000       0.672275        18.2935 
 305   0.0000       0.675057        18.3692 
 306   0.0000       0.678906        18.4740 
 307   0.0000       0.683061        18.5870 
 308   0.0000       0.684775        18.6337 
 309   0.0000       0.691088        18.8055 
 310   0.0000       0.693977        18.8841 
 311   0.0000       0.704538        19.1714 
 312   0.0000       0.707391        19.2491 
 313   0.0000       0.707936        19.2639 
 314   0.0000       0.711759        19.3680 
 315   0.0000       0.717775        19.5317 
 316   0.0000       0.721784        19.6407 
 317   0.0000       0.725574        19.7439 
 318   0.0000       0.733278        19.9535 
 319   0.0000       0.737594        20.0710 
 320   0.0000       0.751650        20.4534 
 321   0.0000       0.764041        20.7906 
 322   0.0000       0.769490        20.9389 
 323   0.0000       0.771256        20.9869 
 324   0.0000       0.777494        21.1567 
 325   0.0000       0.804036        21.8789 
 326   0.0000       0.824234        22.4286 
 327   0.0000       0.840007        22.8577 
 328   0.0000       0.886040        24.1104 
 329   0.0000       0.907689        24.6995 
 330   0.0000       0.925965        25.1968 
 331   0.0000       0.945023        25.7154 
 332   0.0000       0.945923        25.7399 
 333   0.0000       0.959497        26.1092 
 334   0.0000       0.974526        26.5182 
 335   0.0000       0.983682        26.7673 
 336   0.0000       0.998687        27.1756 
 337   0.0000       1.000651        27.2291 
 338   0.0000       1.011090        27.5131 
 339   0.0000       1.024003        27.8645 
 340   0.0000       1.035301        28.1720 
 341   0.0000       1.042638        28.3716 
 342   0.0000       1.056018        28.7357 
 343   0.0000       1.057383        28.7729 
 344   0.0000       1.061405        28.8823 
 345   0.0000       1.078553        29.3489 
 346   0.0000       1.086746        29.5719 
 347   0.0000       1.088942        29.6316 
 348   0.0000       1.093764        29.7628 
 349   0.0000       1.102953        30.0129 
 350   0.0000       1.106371        30.1059 
 351   0.0000       1.113389        30.2969 
 352   0.0000       1.117902        30.4197 
 353   0.0000       1.131246        30.7828 
 354   0.0000       1.135036        30.8859 
 355   0.0000       1.140199        31.0264 
 356   0.0000       1.145159        31.1614 
 357   0.0000       1.159256        31.5450 
 358   0.0000       1.169975        31.8366 
 359   0.0000       1.183212        32.1968 
 360   0.0000       1.187564        32.3152 
 361   0.0000       1.197765        32.5928 
 362   0.0000       1.205400        32.8006 
 363   0.0000       1.206268        32.8242 
 364   0.0000       1.223703        33.2987 
 365   0.0000       1.226270        33.3685 
 366   0.0000       1.233024        33.5523 
 367   0.0000       1.237266        33.6677 
 368   0.0000       1.240956        33.7681 
 369   0.0000       1.245931        33.9035 
 370   0.0000       1.263085        34.3703 
 371   0.0000       1.271568        34.6011 
 372   0.0000       1.274135        34.6710 
 373   0.0000       1.281155        34.8620 
 374   0.0000       1.284126        34.9428 
 375   0.0000       1.292523        35.1713 
 376   0.0000       1.299315        35.3562 
 377   0.0000       1.312133        35.7049 
 378   0.0000       1.321663        35.9643 
 379   0.0000       1.343722        36.5645 
 380   0.0000       1.373007        37.3614 
 381   0.0000       1.546355        42.0785 
 382   0.0000       1.552904        42.2567 
 383   0.0000       1.584192        43.1081 
 384   0.0000       1.589918        43.2639 
 385   0.0000       1.593467        43.3604 
 386   0.0000       1.597221        43.4626 
 387   0.0000       1.611536        43.8521 
 388   0.0000       1.611641        43.8550 
 389   0.0000       1.624769        44.2122 
 390   0.0000       1.637423        44.5565 
 391   0.0000       1.640641        44.6441 
 392   0.0000       1.649062        44.8733 
 393   0.0000       1.667874        45.3852 
 394   0.0000       1.673781        45.5459 
 395   0.0000       1.679525        45.7022 
 396   0.0000       1.683282        45.8044 
 397   0.0000       1.687013        45.9059 
 398   0.0000       1.690490        46.0006 
 399   0.0000       1.700263        46.2665 
 400   0.0000       1.706926        46.4478 
 401   0.0000       1.712621        46.6028 
 402   0.0000       1.719090        46.7788 
 403   0.0000       1.721478        46.8438 
 404   0.0000       1.721932        46.8562 
 405   0.0000       1.729157        47.0527 
 406   0.0000       1.734361        47.1944 
 407   0.0000       1.741671        47.3933 
 408   0.0000       1.752092        47.6769 
 409   0.0000       1.756198        47.7886 
 410   0.0000       1.759869        47.8885 
 411   0.0000       1.763403        47.9846 
 412   0.0000       1.763708        47.9929 
 413   0.0000       1.769758        48.1576 
 414   0.0000       1.774530        48.2874 
 415   0.0000       1.784108        48.5480 
 416   0.0000       1.788348        48.6634 
 417   0.0000       1.791383        48.7460 
 418   0.0000       1.794440        48.8292 
 419   0.0000       1.802360        49.0447 
 420   0.0000       1.804571        49.1049 
 421   0.0000       1.809785        49.2468 
 422   0.0000       1.810051        49.2540 
 423   0.0000       1.820618        49.5415 
 424   0.0000       1.821624        49.5689 
 425   0.0000       1.822426        49.5907 
 426   0.0000       1.824376        49.6438 
 427   0.0000       1.825401        49.6717 
 428   0.0000       1.828220        49.7484 
 429   0.0000       1.833247        49.8852 
 430   0.0000       1.834853        49.9289 
 431   0.0000       1.840094        50.0715 
 432   0.0000       1.841428        50.1078 
 433   0.0000       1.842209        50.1291 
 434   0.0000       1.845052        50.2064 
 435   0.0000       1.847635        50.2767 
 436   0.0000       1.848530        50.3011 
 437   0.0000       1.852290        50.4034 
 438   0.0000       1.853365        50.4326 
 439   0.0000       1.856825        50.5268 
 440   0.0000       1.857120        50.5348 
 441   0.0000       1.860170        50.6178 
 442   0.0000       1.860746        50.6335 
 443   0.0000       1.862272        50.6750 
 444   0.0000       1.865899        50.7737 
 445   0.0000       1.866749        50.7968 
 446   0.0000       1.868118        50.8341 
 447   0.0000       1.869575        50.8737 
 448   0.0000       1.871798        50.9342 
 449   0.0000       1.873115        50.9701 
 450   0.0000       1.873594        50.9831 
 451   0.0000       1.875798        51.0431 
 452   0.0000       1.875908        51.0460 
 453   0.0000       1.879857        51.1535 
 454   0.0000       1.880393        51.1681 
 455   0.0000       1.883224        51.2451 
 456   0.0000       1.884166        51.2708 
 457   0.0000       1.886359        51.3304 
 458   0.0000       1.886773        51.3417 
 459   0.0000       1.888071        51.3770 
 460   0.0000       1.891434        51.4685 
 461   0.0000       1.892150        51.4880 
 462   0.0000       1.893668        51.5293 
 463   0.0000       1.894845        51.5614 
 464   0.0000       1.897104        51.6228 
 465   0.0000       1.898027        51.6479 
 466   0.0000       1.899592        51.6905 
 467   0.0000       1.899664        51.6925 
 468   0.0000       1.902539        51.7707 
 469   0.0000       1.903411        51.7945 
 470   0.0000       1.904329        51.8194 
 471   0.0000       1.905426        51.8493 
 472   0.0000       1.906409        51.8760 
 473   0.0000       1.907486        51.9053 
 474   0.0000       1.909624        51.9635 
 475   0.0000       1.909826        51.9690 
 476   0.0000       1.911043        52.0021 
 477   0.0000       1.913642        52.0728 
 478   0.0000       1.913803        52.0772 
 479   0.0000       1.915437        52.1217 
 480   0.0000       1.917227        52.1704 
 481   0.0000       1.921237        52.2795 
 482   0.0000       1.921859        52.2964 
 483   0.0000       1.923212        52.3333 
 484   0.0000       1.923288        52.3353 
 485   0.0000       1.925417        52.3933 
 486   0.0000       1.927381        52.4467 
 487   0.0000       1.930161        52.5223 
 488   0.0000       1.931138        52.5489 
 489   0.0000       1.932223        52.5785 
 490   0.0000       1.936577        52.6969 
 491   0.0000       1.937953        52.7344 
 492   0.0000       1.940132        52.7937 
 493   0.0000       1.944373        52.9091 
 494   0.0000       1.944757        52.9195 
 495   0.0000       1.947387        52.9911 
 496   0.0000       1.947575        52.9962 
 497   0.0000       1.948049        53.0091 
 498   0.0000       1.953115        53.1469 
 499   0.0000       1.955470        53.2110 
 500   0.0000       1.957677        53.2711 
 501   0.0000       1.960658        53.3522 
 502   0.0000       1.961120        53.3648 
 503   0.0000       1.963013        53.4163 
 504   0.0000       1.967991        53.5518 
 505   0.0000       1.970364        53.6163 
 506   0.0000       1.971040        53.6347 
 507   0.0000       1.972135        53.6645 
 508   0.0000       1.974488        53.7286 
 509   0.0000       1.974876        53.7391 
 510   0.0000       1.978115        53.8272 
 511   0.0000       1.978256        53.8311 
 512   0.0000       1.981521        53.9199 
 513   0.0000       1.981681        53.9243 
 514   0.0000       1.985869        54.0382 
 515   0.0000       1.992255        54.2120 
 516   0.0000       1.992528        54.2194 
 517   0.0000       1.994867        54.2831 
 518   0.0000       1.998959        54.3944 
 519   0.0000       2.000092        54.4253 
 520   0.0000       2.002107        54.4801 
 521   0.0000       2.003285        54.5122 
 522   0.0000       2.005529        54.5732 
 523   0.0000       2.010978        54.7215 
 524   0.0000       2.013292        54.7844 
 525   0.0000       2.017414        54.8966 
 526   0.0000       2.022113        55.0245 
 527   0.0000       2.026302        55.1385 
 528   0.0000       2.028334        55.1938 
 529   0.0000       2.034616        55.3647 
 530   0.0000       2.039473        55.4969 
 531   0.0000       2.050072        55.7853 
 532   0.0000       2.051176        55.8153 
 533   0.0000       2.058925        56.0262 
 534   0.0000       2.062464        56.1225 
 535   0.0000       2.074288        56.4442 
 536   0.0000       2.074930        56.4617 
 537   0.0000       2.083132        56.6849 
 538   0.0000       2.092142        56.9301 
 539   0.0000       2.093863        56.9769 
 540   0.0000       2.100268        57.1512 
 541   0.0000       2.109283        57.3965 
 542   0.0000       2.123585        57.7857 
 543   0.0000       2.131096        57.9901 
 544   0.0000       2.141955        58.2856 
 545   0.0000       2.157084        58.6972 
 546   0.0000       2.159700        58.7684 
 547   0.0000       2.167472        58.9799 
 548   0.0000       2.173543        59.1451 
 549   0.0000       2.175230        59.1910 
 550   0.0000       2.176368        59.2220 
 551   0.0000       2.183160        59.4068 
 552   0.0000       2.184189        59.4348 
 553   0.0000       2.207115        60.0587 
 554   0.0000       2.211270        60.1717 
 555   0.0000       2.215007        60.2734 
 556   0.0000       2.216823        60.3228 
 557   0.0000       2.228773        60.6480 
 558   0.0000       2.235876        60.8413 
 559   0.0000       2.239339        60.9355 
 560   0.0000       2.244640        61.0798 
 561   0.0000       2.249444        61.2105 
 562   0.0000       2.252524        61.2943 
 563   0.0000       2.255894        61.3860 
 564   0.0000       2.273776        61.8726 
 565   0.0000       2.274353        61.8883 
 566   0.0000       2.279210        62.0205 
 567   0.0000       2.285299        62.1861 
 568   0.0000       2.288192        62.2649 
 569   0.0000       2.310317        62.8669 
 570   0.0000       2.310829        62.8809 
 571   0.0000       2.344795        63.8051 
 572   0.0000       2.348803        63.9142 
 573   0.0000       2.387233        64.9599 
 574   0.0000       2.419170        65.8290 
 575   0.0000       2.446681        66.5776 
 576   0.0000       2.568772        69.8998 
 577   0.0000       2.756786        75.0160 
 578   0.0000       2.768333        75.3302 
 579   0.0000       2.796983        76.1098 
 580   0.0000       2.847420        77.4822 
 581   0.0000       2.873117        78.1815 
 582   0.0000       2.934870        79.8619 
 583   0.0000       2.953014        80.3556 
 584   0.0000       2.971328        80.8539 
 585   0.0000       2.972147        80.8762 
 586   0.0000       3.013606        82.0044 
 587   0.0000       3.020576        82.1941 
 588   0.0000       3.031034        82.4786 
 589   0.0000       3.051179        83.0268 
 590   0.0000       3.064877        83.3995 
 591   0.0000       3.103346        84.4463 
 592   0.0000       3.177206        86.4562 
 593   0.0000       3.746697       101.9528 
 594   0.0000       3.751852       102.0931 
 595   0.0000       3.752412       102.1083 
 596   0.0000       3.754785       102.1729 
 597   0.0000       3.757330       102.2422 
 598   0.0000       3.765608       102.4674 
 599   0.0000       3.769774       102.5808 
 600   0.0000       3.804402       103.5230 
 601   0.0000       3.859700       105.0278 
 602   0.0000       3.872482       105.3756 
 603   0.0000       3.903826       106.2285 
 604   0.0000       3.981284       108.3363 
 605   0.0000      24.169398       657.6828 
 606   0.0000      24.579286       668.8364 
 607   0.0000      24.766489       673.9304 
 608   0.0000      24.880836       677.0420 
 609   0.0000      24.967359       679.3964 
 610   0.0000      25.175615       685.0633 
 611   0.0000      25.245145       686.9553 
 612   0.0000      25.260806       687.3815 
 613   0.0000      25.421506       691.7543 
 614   0.0000      25.488522       693.5779 
 615   0.0000      25.556613       695.4308 
 616   0.0000      25.575323       695.9399 
 617   0.0000      25.683573       698.8855 
 618   0.0000      25.753815       700.7969 
 619   0.0000      25.867800       703.8986 
 620   0.0000      25.902910       704.8540 
 621   0.0000      26.002494       707.5638 
 622   0.0000      26.133493       711.1285 
 623   0.0000      26.149201       711.5559 
 624   0.0000      26.196195       712.8347 
 625   0.0000      26.206132       713.1051 
 626   0.0000      26.287226       715.3118 
 627   0.0000      26.367356       717.4922 
 628   0.0000      26.395297       718.2526 
 629   0.0000      26.592833       723.6278 
 630   0.0000      26.665883       725.6156 
 631   0.0000      26.695590       726.4239 
 632   0.0000      26.814145       729.6500 
 633   0.0000      26.977278       734.0890 
 634   0.0000      27.012299       735.0420 
 635   0.0000      27.039667       735.7868 
 636   0.0000      27.099716       737.4208 
 637   0.0000      27.154999       738.9251 
 638   0.0000      27.397643       745.5278 
 639   0.0000      27.453407       747.0452 
 640   0.0000      27.542136       749.4596 
 641   0.0000      27.644475       752.2444 
 642   0.0000      27.713413       754.1203 
 643   0.0000      27.753539       755.2122 
 644   0.0000      27.860705       758.1283 
 645   0.0000      27.896197       759.0941 
 646   0.0000      27.923064       759.8252 
 647   0.0000      28.218070       767.8527 
 648   0.0000      28.310123       770.3576 
 649   0.0000      28.412998       773.1570 
 650   0.0000      28.552652       776.9572 
 651   0.0000      28.563514       777.2527 
 652   0.0000      29.046219       790.3878 
 653   0.0000      44.462309      1209.8809 
 654   0.0000      44.641004      1214.7435 
 655   0.0000      44.662318      1215.3235 
 656   0.0000      44.692743      1216.1514 
 657   0.0000      44.728228      1217.1170 
 658   0.0000      44.759584      1217.9702 
 659   0.0000      44.804571      1219.1944 
 660   0.0000      44.816230      1219.5116 
 661   0.0000      44.819101      1219.5897 
 662   0.0000      44.826477      1219.7905 
 663   0.0000      44.842876      1220.2367 
 664   0.0000      44.858422      1220.6597 
 665   0.0000      44.872859      1221.0526 
 666   0.0000      44.879730      1221.2395 
 667   0.0000      44.912770      1222.1386 
 668   0.0000      44.933526      1222.7034 
 669   0.0000     205.359980      5588.1292 
 670   0.0000     205.430949      5590.0603 
 671   0.0000     205.439803      5590.3012 
 672   0.0000     205.452887      5590.6573 
[...]
 3 96   43770.2    228.5   0.000000000   0.00000   0.00000   0.00000   0.00001
 3 97   43770.2    228.5   0.000000000   0.00000   0.00001   0.00001   0.00000
 3 98   43870.8    227.9   0.000000000   0.00000   0.00001   0.00001   0.00002
 3 99   43870.8    227.9   0.000000000   0.00000   0.00002   0.00003   0.00001
 3 100   43877.1    227.9   0.000000000   0.00000   0.00001   0.00001   0.00001
 3 101   43877.1    227.9   0.000000000   0.00000   0.00004   0.00001   0.00001
 4  5       0.0      0.0   0.000000000   0.00000   0.00000   0.00000   0.00000
 4  6   26658.2    375.1   0.000000000   0.00000   0.00003   0.00002   0.00001
 4  7   26658.2    375.1   0.000000000   0.00000   0.00001   0.00002   0.00005
 4  8   26660.8    375.1   0.000000000   0.00000   0.00011   0.00015   0.00020
 4  9   26660.8    375.1   0.000000000   0.00000   0.00001   0.00008   0.00020
 4 10   26835.9    372.6   0.000000000   0.00000   0.00000   0.00001   0.00002
 4 11   26835.9    372.6   0.000000000   0.00000   0.00001   0.00001   0.00001
 4 12   26838.8    372.6   0.000000000   0.00000   0.00006   0.00004   0.00023
 4 13   26838.8    372.6   0.000000000   0.00000   0.00024   0.00013   0.00011
 4 14   26983.0    370.6   0.000000005   0.00000   0.00150   0.00011   0.00045
 4 15   26983.0    370.6   0.000000001   0.00000   0.00003   0.00007   0.00061
 4 16   26987.5    370.5   0.000000000   0.00000   0.00027   0.00004   0.00017
 4 17   26987.5    370.5   0.000000000   0.00000   0.00025   0.00003   0.00007
 4 18   27035.1    369.9   0.000000000   0.00000   0.00007   0.00002   0.00008
 4 19   27035.1    369.9   0.000000000   0.00000   0.00017   0.00004   0.00006
 4 20   27040.5    369.8   0.000000000   0.00000   0.00006   0.00002   0.00020
 4 21   27040.5    369.8   0.000000002   0.00000   0.00102   0.00009   0.00024
 4 22   27076.6    369.3   0.000000001   0.00000   0.00054   0.00040   0.00024
 4 23   27076.6    369.3   0.000000000   0.00000   0.00015   0.00011   0.00035
 4 24   27082.8    369.2   0.000000000   0.00000   0.00027   0.00005   0.00009
 4 25   27082.8    369.2   0.000000000   0.00000   0.00009   0.00003   0.00011
 4 26   27187.0    367.8   0.000000000   0.00000   0.00034   0.00020   0.00009
 4 27   27187.0    367.8   0.000000000   0.00000   0.00005   0.00002   0.00010
 4 28   27188.5    367.8   0.000000001   0.00000   0.00064   0.00039   0.00024
 4 29   27188.5    367.8   0.000000000   0.00000   0.00027   0.00017   0.00015
 4 30   27224.7    367.3   0.000000000   0.00000   0.00001   0.00002   0.00008
 4 31   27224.7    367.3   0.000000001   0.00000   0.00016   0.00054   0.00012
 4 32   27227.2    367.3   0.000000000   0.00000   0.00003   0.00010   0.00002
 4 33   27227.2    367.3   0.000000000   0.00000   0.00004   0.00015   0.00004
 4 34   27288.8    366.5   0.000000000   0.00000   0.00003   0.00010   0.00005
 4 35   27288.8    366.5   0.000000000   0.00000   0.00009   0.00031   0.00005
 4 36   27290.7    366.4   0.000000000   0.00000   0.00005   0.00025   0.00020
 4 37   27290.7    366.4   0.000000006   0.00000   0.00044   0.00154   0.00029
 4 38   27299.4    366.3   0.000000000   0.00000   0.00004   0.00008   0.00003
 4 39   27299.4    366.3   0.000000000   0.00000   0.00014   0.00029   0.00007
 4 40   27301.9    366.3   0.000000000   0.00000   0.00002   0.00011   0.00004
 4 41   27301.9    366.3   0.000000000   0.00000   0.00008   0.00024   0.00005
 4 42   29488.6    339.1   0.000000000   0.00000   0.00004   0.00003   0.00005
 4 43   29488.6    339.1   0.000000000   0.00000   0.00015   0.00014   0.00006
 4 44   29560.0    338.3   0.000000000   0.00000   0.00009   0.00004   0.00005
 4 45   29560.0    338.3   0.000000000   0.00000   0.00013   0.00004   0.00003
 4 46   29621.6    337.6   0.000000000   0.00000   0.00008   0.00003   0.00002
 4 47   29621.6    337.6   0.000000000   0.00000   0.00015   0.00002   0.00005
 4 48   29747.4    336.2   0.000000000   0.00000   0.00001   0.00002   0.00002
 4 49   29747.4    336.2   0.000000000   0.00000   0.00003   0.00007   0.00002
 4 50   29786.0    335.7   0.000000000   0.00000   0.00002   0.00004   0.00001
 4 51   29786.0    335.7   0.000000000   0.00000   0.00004   0.00008   0.00002
 4 52   29856.7    334.9   0.000000000   0.00000   0.00010   0.00016   0.00004
 4 53   29856.7    334.9   0.000000002   0.00000   0.00045   0.00073   0.00020
 4 54   32116.7    311.4   0.000000000   0.00000   0.00001   0.00002   0.00002
 4 55   32116.7    311.4   0.000000000   0.00000   0.00002   0.00004   0.00001
 4 56   32149.1    311.1   0.000000000   0.00000   0.00020   0.00023   0.00002
 4 57   32149.1    311.1   0.000000000   0.00000   0.00003   0.00002   0.00003
 4 58   32314.2    309.5   0.000000000   0.00000   0.00000   0.00006   0.00003
 4 59   32314.2    309.5   0.000000000   0.00000   0.00005   0.00027   0.00002
 4 60   32347.6    309.1   0.000000000   0.00000   0.00004   0.00005   0.00001
 4 61   32347.6    309.1   0.000000000   0.00000   0.00012   0.00014   0.00005
 4 62   32456.5    308.1   0.000000001   0.00000   0.00029   0.00040   0.00008
 4 63   32456.5    308.1   0.000000012   0.00000   0.00124   0.00174   0.00051
 4 64   32515.7    307.5   0.000000000   0.00000   0.00014   0.00020   0.00007
 4 65   32515.7    307.5   0.000000001   0.00000   0.00039   0.00053   0.00015
 4 66   32552.4    307.2   0.000000000   0.00000   0.00011   0.00018   0.00005
 4 67   32552.4    307.2   0.000000001   0.00000   0.00034   0.00046   0.00012
 4 68   32638.0    306.4   0.000000000   0.00000   0.00008   0.00003   0.00000
 4 69   32638.0    306.4   0.000000000   0.00000   0.00019   0.00032   0.00008
 4 70   32750.7    305.3   0.000000000   0.00000   0.00006   0.00003   0.00002
 4 71   32750.7    305.3   0.000000000   0.00000   0.00010   0.00008   0.00005
 4 72   32804.5    304.8   0.000000001   0.00000   0.00038   0.00017   0.00013
 4 73   32804.5    304.8   0.000000000   0.00000   0.00005   0.00003   0.00018
 4 74   43361.6    230.6   0.000000000   0.00000   0.00001   0.00000   0.00000
 4 75   43361.6    230.6   0.000000000   0.00000   0.00003   0.00001   0.00001
 4 76   43368.7    230.6   0.000000000   0.00000   0.00001   0.00001   0.00001
 4 77   43368.7    230.6   0.000000000   0.00000   0.00001   0.00000   0.00000
 4 78   43526.1    229.7   0.000000000   0.00000   0.00004   0.00002   0.00001
 4 79   43526.1    229.7   0.000000000   0.00000   0.00001   0.00000   0.00002
 4 80   43545.9    229.6   0.000000000   0.00000   0.00007   0.00004   0.00002
 4 81   43545.9    229.6   0.000000000   0.00000   0.00003   0.00002   0.00003
 4 82   43577.7    229.5   0.000000000   0.00000   0.00001   0.00001   0.00001
 4 83   43577.7    229.5   0.000000000   0.00000   0.00005   0.00002   0.00001
 4 84   43621.6    229.2   0.000000000   0.00000   0.00001   0.00001   0.00000
 4 85   43621.6    229.2   0.000000000   0.00000   0.00002   0.00002   0.00001
 4 86   43666.0    229.0   0.000000000   0.00000   0.00000   0.00001   0.00000
 4 87   43666.0    229.0   0.000000000   0.00000   0.00001   0.00001   0.00000
 4 88   43675.7    229.0   0.000000000   0.00000   0.00000   0.00000   0.00001
 4 89   43675.7    229.0   0.000000000   0.00000   0.00001   0.00001   0.00001
 4 90   43702.6    228.8   0.000000000   0.00000   0.00001   0.00000   0.00002
 4 91   43702.6    228.8   0.000000000   0.00000   0.00002   0.00001   0.00001
 4 92   43716.2    228.7   0.000000000   0.00000   0.00002   0.00001   0.00003
 4 93   43716.2    228.7   0.000000000   0.00000   0.00007   0.00003   0.00003
 4 94   43757.7    228.5   0.000000000   0.00000   0.00001   0.00001   0.00000
 4 95   43757.7    228.5   0.000000000   0.00000   0.00000   0.00000   0.00000
 4 96   43770.2    228.5   0.000000000   0.00000   0.00001   0.00002   0.00001
 4 97   43770.2    228.5   0.000000000   0.00000   0.00001   0.00001   0.00002
 4 98   43870.8    227.9   0.000000000   0.00000   0.00001   0.00001   0.00000
 4 99   43870.8    227.9   0.000000000   0.00000   0.00000   0.00000   0.00001
 4 100   43877.1    227.9   0.000000000   0.00000   0.00003   0.00004   0.00002
 4 101   43877.1    227.9   0.000000000   0.00000   0.00001   0.00002   0.00002
 5  6   26658.2    375.1   0.000000000   0.00000   0.00001   0.00002   0.00005
 5  7   26658.2    375.1   0.000000000   0.00000   0.00003   0.00002   0.00001
 5  8   26660.8    375.1   0.000000000   0.00000   0.00001   0.00008   0.00020
 5  9   26660.8    375.1   0.000000000   0.00000   0.00011   0.00015   0.00020
 5 10   26835.9    372.6   0.000000000   0.00000   0.00001   0.00001   0.00001
 5 11   26835.9    372.6   0.000000000   0.00000   0.00000   0.00001   0.00002
 5 12   26838.8    372.6   0.000000000   0.00000   0.00024   0.00013   0.00011
 5 13   26838.8    372.6   0.000000000   0.00000   0.00006   0.00004   0.00023
 5 14   26983.0    370.6   0.000000001   0.00000   0.00003   0.00007   0.00061
 5 15   26983.0    370.6   0.000000005   0.00000   0.00150   0.00011   0.00045
 5 16   26987.5    370.5   0.000000000   0.00000   0.00025   0.00003   0.00007
 5 17   26987.5    370.5   0.000000000   0.00000   0.00027   0.00004   0.00017
 5 18   27035.1    369.9   0.000000000   0.00000   0.00017   0.00004   0.00006
 5 19   27035.1    369.9   0.000000000   0.00000   0.00007   0.00002   0.00008
 5 20   27040.5    369.8   0.000000002   0.00000   0.00102   0.00009   0.00024
 5 21   27040.5    369.8   0.000000000   0.00000   0.00006   0.00002   0.00020
 5 22   27076.6    369.3   0.000000000   0.00000   0.00015   0.00011   0.00035
 5 23   27076.6    369.3   0.000000001   0.00000   0.00054   0.00040   0.00024
 5 24   27082.8    369.2   0.000000000   0.00000   0.00009   0.00003   0.00011
 5 25   27082.8    369.2   0.000000000   0.00000   0.00027   0.00005   0.00009
 5 26   27187.0    367.8   0.000000000   0.00000   0.00005   0.00002   0.00010
 5 27   27187.0    367.8   0.000000000   0.00000   0.00034   0.00020   0.00009
 5 28   27188.5    367.8   0.000000000   0.00000   0.00027   0.00017   0.00015
 5 29   27188.5    367.8   0.000000001   0.00000   0.00064   0.00039   0.00024
 5 30   27224.7    367.3   0.000000001   0.00000   0.00016   0.00054   0.00012
 5 31   27224.7    367.3   0.000000000   0.00000   0.00001   0.00002   0.00008
 5 32   27227.2    367.3   0.000000000   0.00000   0.00004   0.00015   0.00004
 5 33   27227.2    367.3   0.000000000   0.00000   0.00003   0.00010   0.00002
 5 34   27288.8    366.5   0.000000000   0.00000   0.00009   0.00031   0.00005
 5 35   27288.8    366.5   0.000000000   0.00000   0.00003   0.00010   0.00005
 5 36   27290.7    366.4   0.000000006   0.00000   0.00044   0.00154   0.00029
 5 37   27290.7    366.4   0.000000000   0.00000   0.00005   0.00025   0.00020
 5 38   27299.4    366.3   0.000000000   0.00000   0.00014   0.00029   0.00007
 5 39   27299.4    366.3   0.000000000   0.00000   0.00004   0.00008   0.00003
 5 40   27301.9    366.3   0.000000000   0.00000   0.00008   0.00024   0.00005
 5 41   27301.9    366.3   0.000000000   0.00000   0.00002   0.00011   0.00004
 5 42   29488.6    339.1   0.000000000   0.00000   0.00015   0.00014   0.00006
 5 43   29488.6    339.1   0.000000000   0.00000   0.00004   0.00003   0.00005
 5 44   29560.0    338.3   0.000000000   0.00000   0.00013   0.00004   0.00003
 5 45   29560.0    338.3   0.000000000   0.00000   0.00009   0.00004   0.00005
 5 46   29621.6    337.6   0.000000000   0.00000   0.00015   0.00002   0.00005
 5 47   29621.6    337.6   0.000000000   0.00000   0.00008   0.00003   0.00002
 5 48   29747.4    336.2   0.000000000   0.00000   0.00003   0.00007   0.00002
 5 49   29747.4    336.2   0.000000000   0.00000   0.00001   0.00002   0.00002
 5 50   29786.0    335.7   0.000000000   0.00000   0.00004   0.00008   0.00002
 5 51   29786.0    335.7   0.000000000   0.00000   0.00002   0.00004   0.00001
 5 52   29856.7    334.9   0.000000002   0.00000   0.00045   0.00073   0.00020
 5 53   29856.7    334.9   0.000000000   0.00000   0.00010   0.00016   0.00004
 5 54   32116.7    311.4   0.000000000   0.00000   0.00002   0.00004   0.00001
 5 55   32116.7    311.4   0.000000000   0.00000   0.00001   0.00002   0.00002
 5 56   32149.1    311.1   0.000000000   0.00000   0.00003   0.00002   0.00003
 5 57   32149.1    311.1   0.000000000   0.00000   0.00020   0.00023   0.00002
 5 58   32314.2    309.5   0.000000000   0.00000   0.00005   0.00027   0.00002
 5 59   32314.2    309.5   0.000000000   0.00000   0.00000   0.00006   0.00003
 5 60   32347.6    309.1   0.000000000   0.00000   0.00012   0.00014   0.00005
 5 61   32347.6    309.1   0.000000000   0.00000   0.00004   0.00005   0.00001
 5 62   32456.5    308.1   0.000000012   0.00000   0.00124   0.00174   0.00051
 5 63   32456.5    308.1   0.000000001   0.00000   0.00029   0.00040   0.00008
 5 64   32515.7    307.5   0.000000001   0.00000   0.00039   0.00053   0.00015
 5 65   32515.7    307.5   0.000000000   0.00000   0.00014   0.00020   0.00007
 5 66   32552.4    307.2   0.000000001   0.00000   0.00034   0.00046   0.00012
 5 67   32552.4    307.2   0.000000000   0.00000   0.00011   0.00018   0.00005
 5 68   32638.0    306.4   0.000000000   0.00000   0.00019   0.00032   0.00008
 5 69   32638.0    306.4   0.000000000   0.00000   0.00008   0.00003   0.00000
 5 70   32750.7    305.3   0.000000000   0.00000   0.00010   0.00008   0.00005
 5 71   32750.7    305.3   0.000000000   0.00000   0.00006   0.00003   0.00002
 5 72   32804.5    304.8   0.000000000   0.00000   0.00005   0.00003   0.00018
 5 73   32804.5    304.8   0.000000001   0.00000   0.00038   0.00017   0.00013
 5 74   43361.6    230.6   0.000000000   0.00000   0.00003   0.00001   0.00001
 5 75   43361.6    230.6   0.000000000   0.00000   0.00001   0.00000   0.00000
 5 76   43368.7    230.6   0.000000000   0.00000   0.00001   0.00000   0.00000
 5 77   43368.7    230.6   0.000000000   0.00000   0.00001   0.00001   0.00001
 5 78   43526.1    229.7   0.000000000   0.00000   0.00001   0.00000   0.00002
 5 79   43526.1    229.7   0.000000000   0.00000   0.00004   0.00002   0.00001
 5 80   43545.9    229.6   0.000000000   0.00000   0.00003   0.00002   0.00003
 5 81   43545.9    229.6   0.000000000   0.00000   0.00007   0.00004   0.00002
 5 82   43577.7    229.5   0.000000000   0.00000   0.00005   0.00002   0.00001
 5 83   43577.7    229.5   0.000000000   0.00000   0.00001   0.00001   0.00001
 5 84   43621.6    229.2   0.000000000   0.00000   0.00002   0.00002   0.00001
 5 85   43621.6    229.2   0.000000000   0.00000   0.00001   0.00001   0.00000
 5 86   43666.0    229.0   0.000000000   0.00000   0.00001   0.00001   0.00000
 5 87   43666.0    229.0   0.000000000   0.00000   0.00000   0.00001   0.00000
 5 88   43675.7    229.0   0.000000000   0.00000   0.00001   0.00001   0.00001
 5 89   43675.7    229.0   0.000000000   0.00000   0.00000   0.00000   0.00001
 5 90   43702.6    228.8   0.000000000   0.00000   0.00002   0.00001   0.00001
 5 91   43702.6    228.8   0.000000000   0.00000   0.00001   0.00000   0.00002
 5 92   43716.2    228.7   0.000000000   0.00000   0.00007   0.00003   0.00003
 5 93   43716.2    228.7   0.000000000   0.00000   0.00002   0.00001   0.00003
 5 94   43757.7    228.5   0.000000000   0.00000   0.00000   0.00000   0.00000
 5 95   43757.7    228.5   0.000000000   0.00000   0.00001   0.00001   0.00000
 5 96   43770.2    228.5   0.000000000   0.00000   0.00001   0.00001   0.00002
 5 97   43770.2    228.5   0.000000000   0.00000   0.00001   0.00002   0.00001
 5 98   43870.8    227.9   0.000000000   0.00000   0.00000   0.00000   0.00001
 5 99   43870.8    227.9   0.000000000   0.00000   0.00001   0.00001   0.00000
 5 100   43877.1    227.9   0.000000000   0.00000   0.00001   0.00002   0.00002
 5 101   43877.1    227.9   0.000000000   0.00000   0.00003   0.00004   0.00002

------------------------------------------------------------------------------
                           SOC CORRECTED DIPOLE MOMENTS
------------------------------------------------------------------------------
      TX        TY        TZ           |T|
   (Debye)   (Debye)   (Debye)      (Debye)
------------------------------------------------------------------------------
 -127.13593 -234.02081  58.35473    272.64365

--------------
CASSCF TIMINGS
--------------

Total time                       ...    10875.4 sec
Sum of individual times          ...    10877.3 sec (100.0%)

Calculation of AO operators
   F(Core) operator              ...      101.2 sec (  0.9%)
   G(Act) operator               ...       86.8 sec (  0.8%)
   J(AO) operators               ...        0.0 sec (  0.0%)
Calculation of MO transformed quantities
   J(MO) operators               ...       22.5 sec (  0.2%)
   (pq|rs) integrals             ...        0.0 sec (  0.0%)
   AO->MO one electron integrals ...        0.4 sec (  0.0%)
Configuration interaction steps
   CI-setup phase                ...        0.0 sec (  0.0%)
   CI-solution phase             ...        0.1 sec (  0.0%)
   Generation of densities       ...        0.0 sec (  0.0%)
Orbital improvement steps
   Orbital gradient              ...        0.1 sec (  0.0%)
PT2 
   NEVPT2 time                   ...    10604.9 sec ( 97.5%)
Properties                       ...       31.7 sec (  0.3%)
   SOC integral calculation      ...       29.6 sec (  0.3%)
   SSC RMEs (incl. integrals)    ...        0.0 sec (  0.0%)
   SOC RMEs                      ...        0.0 sec (  0.0%)

Maximum memory used throughout the entire CASSCF-calculation: 2365.2 MB

-------------------------   --------------------
FINAL SINGLE POINT ENERGY     -3314.754525390028
-------------------------   --------------------


                            ***************************************
                            *     ORCA property calculations      *
                            ***************************************

                                    ---------------------
                                    Active property flags
                                    ---------------------
   (+) Dipole Moment


------------------------------------------------------------------------------
                       ORCA ELECTRIC PROPERTIES CALCULATION
------------------------------------------------------------------------------

Dipole Moment Calculation                       ... on
Quadrupole Moment Calculation                   ... off
Polarizability Calculation                      ... off
GBWName                                         ... nevpt2.gbw
Electron density                                ... nevpt2.scfp
The origin for moment calculation is the CENTER OF MASS  = (12.362538, 15.540235 13.768168)

-------------
DIPOLE MOMENT
-------------
                                X             Y             Z
Electronic contribution:     48.89239      91.89213     -22.69898
Nuclear contribution   :    -50.01811     -92.06900      22.95805
                        -----------------------------------------
Total Dipole Moment    :     -1.12572      -0.17687       0.25907
                        -----------------------------------------
Magnitude (a.u.)       :      1.16861
Magnitude (Debye)      :      2.97037



--------------------
Rotational spectrum 
--------------------
 
Rotational constants in cm-1:     0.000822     0.000804     0.000775 
Rotational constants in MHz :    24.635340    24.093288    23.227279 

 Dipole components along the rotational axes: 
x,y,z [a.u.] :    -0.031758    -1.093186    -0.411802 
x,y,z [Debye]:    -0.080723    -2.778659    -1.046718 

 

Timings for individual modules:

Sum of individual times         ...    10969.276 sec (= 182.821 min)
GTO integral calculation        ...       23.419 sec (=   0.390 min)   0.2 %
SCF iterations                  ...       22.642 sec (=   0.377 min)   0.2 %
CASSCF iterations               ...    10923.214 sec (= 182.054 min)  99.6 %
                             ****ORCA TERMINATED NORMALLY****
TOTAL RUN TIME: 0 days 3 hours 2 minutes 53 seconds 247 msec
