
                                 *****************
                                 * O   R   C   A *
                                 *****************

                                            #,                                       
                                            ###                                      
                                            ####                                     
                                            #####                                    
                                            ######                                   
                                           ########,                                 
                                     ,,################,,,,,                         
                               ,,#################################,,                 
                          ,,##########################################,,             
                       ,#########################################, ''#####,          
                    ,#############################################,,   '####,        
                  ,##################################################,,,,####,       
                ,###########''''           ''''###############################       
              ,#####''   ,,,,##########,,,,          '''####'''          '####       
            ,##' ,,,,###########################,,,                        '##       
           ' ,,###''''                  '''############,,,                           
         ,,##''                                '''############,,,,        ,,,,,,###''
      ,#''                                            '''#######################'''  
     '                                                          ''''####''''         
             ,#######,   #######,   ,#######,      ##                                
            ,#'     '#,  ##    ##  ,#'     '#,    #''#        ######   ,####,        
            ##       ##  ##   ,#'  ##            #'  '#       #        #'  '#        
            ##       ##  #######   ##           ,######,      #####,   #    #        
            '#,     ,#'  ##    ##  '#,     ,#' ,#      #,         ##   #,  ,#        
             '#######'   ##     ##  '#######'  #'      '#     #####' # '####'        



                  #######################################################
                  #                        -***-                        #
                  #          Department of theory and spectroscopy      #
                  #    Directorship and core code : Frank Neese         #
                  #        Max Planck Institute fuer Kohlenforschung    #
                  #                Kaiser Wilhelm Platz 1               #
                  #                 D-45470 Muelheim/Ruhr               #
                  #                      Germany                        #
                  #                                                     #
                  #                  All rights reserved                #
                  #                        -***-                        #
                  #######################################################


                         Program Version 5.0.3 -  RELEASE  -


 With contributions from (in alphabetic order):
   Daniel Aravena         : Magnetic Suceptibility
   Michael Atanasov       : Ab Initio Ligand Field Theory (pilot matlab implementation)
   Alexander A. Auer      : GIAO ZORA, VPT2 properties, NMR spectrum
   Ute Becker             : Parallelization
   Giovanni Bistoni       : ED, misc. LED, open-shell LED, HFLD
   Martin Brehm           : Molecular dynamics
   Dmytro Bykov           : SCF Hessian
   Vijay G. Chilkuri      : MRCI spin determinant printing, contributions to CSF-ICE
   Dipayan Datta          : RHF DLPNO-CCSD density
   Achintya Kumar Dutta   : EOM-CC, STEOM-CC
   Dmitry Ganyushin       : Spin-Orbit,Spin-Spin,Magnetic field MRCI
   Miquel Garcia          : C-PCM and meta-GGA Hessian, CC/C-PCM, Gaussian charge scheme
   Yang Guo               : DLPNO-NEVPT2, F12-NEVPT2, CIM, IAO-localization
   Andreas Hansen         : Spin unrestricted coupled pair/coupled cluster methods
   Benjamin Helmich-Paris : MC-RPA, TRAH-SCF, COSX integrals
   Lee Huntington         : MR-EOM, pCC
   Robert Izsak           : Overlap fitted RIJCOSX, COSX-SCS-MP3, EOM
   Marcus Kettner         : VPT2
   Christian Kollmar      : KDIIS, OOCD, Brueckner-CCSD(T), CCSD density, CASPT2, CASPT2-K
   Simone Kossmann        : Meta GGA functionals, TD-DFT gradient, OOMP2, MP2 Hessian
   Martin Krupicka        : Initial AUTO-CI
   Lucas Lang             : DCDCAS
   Marvin Lechner         : AUTO-CI (C++ implementation), FIC-MRCC
   Dagmar Lenk            : GEPOL surface, SMD
   Dimitrios Liakos       : Extrapolation schemes; Compound Job, initial MDCI parallelization
   Dimitrios Manganas     : Further ROCIS development; embedding schemes
   Dimitrios Pantazis     : SARC Basis sets
   Anastasios Papadopoulos: AUTO-CI, single reference methods and gradients
   Taras Petrenko         : DFT Hessian,TD-DFT gradient, ASA, ECA, R-Raman, ABS, FL, XAS/XES, NRVS
   Peter Pinski           : DLPNO-MP2, DLPNO-MP2 Gradient
   Christoph Reimann      : Effective Core Potentials
   Marius Retegan         : Local ZFS, SOC
   Christoph Riplinger    : Optimizer, TS searches, QM/MM, DLPNO-CCSD(T), (RO)-DLPNO pert. Triples
   Tobias Risthaus        : Range-separated hybrids, TD-DFT gradient, RPA, STAB
   Michael Roemelt        : Original ROCIS implementation
   Masaaki Saitow         : Open-shell DLPNO-CCSD energy and density
   Barbara Sandhoefer     : DKH picture change effects
   Avijit Sen             : IP-ROCIS
   Kantharuban Sivalingam : CASSCF convergence, NEVPT2, FIC-MRCI
   Bernardo de Souza      : ESD, SOC TD-DFT
   Georgi Stoychev        : AutoAux, RI-MP2 NMR, DLPNO-MP2 response
   Willem Van den Heuvel  : Paramagnetic NMR
   Boris Wezisla          : Elementary symmetry handling
   Frank Wennmohs         : Technical directorship


 We gratefully acknowledge several colleagues who have allowed us to
 interface, adapt or use parts of their codes:
   Stefan Grimme, W. Hujo, H. Kruse, P. Pracht,  : VdW corrections, initial TS optimization,
                  C. Bannwarth, S. Ehlert          DFT functionals, gCP, sTDA/sTD-DF
   Ed Valeev, F. Pavosevic, A. Kumar             : LibInt (2-el integral package), F12 methods
   Garnet Chan, S. Sharma, J. Yang, R. Olivares  : DMRG
   Ulf Ekstrom                                   : XCFun DFT Library
   Mihaly Kallay                                 : mrcc  (arbitrary order and MRCC methods)
   Jiri Pittner, Ondrej Demel                    : Mk-CCSD
   Frank Weinhold                                : gennbo (NPA and NBO analysis)
   Christopher J. Cramer and Donald G. Truhlar   : smd solvation model
   Lars Goerigk                                  : TD-DFT with DH, B97 family of functionals
   V. Asgeirsson, H. Jonsson                     : NEB implementation
   FAccTs GmbH                                   : IRC, NEB, NEB-TS, DLPNO-Multilevel, CI-OPT
                                                   MM, QMMM, 2- and 3-layer-ONIOM, Crystal-QMMM,
                                                   LR-CPCM, SF, NACMEs, symmetry and pop. for TD-DFT,
                                                   nearIR, NL-DFT gradient (VV10), updates on ESD,
                                                   ML-optimized integration grids
   S Lehtola, MJT Oliveira, MAL Marques          : LibXC Library
   Liviu Ungur et al                             : ANISO software


 Your calculation uses the libint2 library for the computation of 2-el integrals
 For citations please refer to: http://libint.valeyev.net

 Your ORCA version has been built with support for libXC version: 5.1.0
 For citations please refer to: https://tddft.org/programs/libxc/

 This ORCA versions uses:
   CBLAS   interface :  Fast vector & matrix operations
   LAPACKE interface :  Fast linear algebra routines
   SCALAPACK package :  Parallel linear algebra routines
   Shared memory     :  Shared parallel matrices
   BLAS/LAPACK       :  OpenBLAS 0.3.15  USE64BITINT DYNAMIC_ARCH NO_AFFINITY Sandybridge SINGLE_THREADED
        Core in use  :  Sandybridge
   Copyright (c) 2011-2014, The OpenBLAS Project




***************************************
The coordinates will be read from file: pbe.xyz
***************************************


================================================================================

cite the ECPs for Au [Def2-ECP] as follows:
Ce-Yb(ecp-28): M. Dolg, H. Stoll, H.Preuss, J. Chem. Phys., 1989, 90, 1730-1734.
Y-Cd(ecp-28), Hf-Hg(ecp-46): D. Andrae,U. Haeussermann, M. Dolg, H. Stoll, H. Preuss, Theor. Chim. Acta, 1990, 77, 123-141.
In-Sb(ecp-28), Tl-Bi(ecp-46): B. Metz, H. Stoll, M. Dolg, J. Chem. Phys., 2000, 113, 2563-2569.
Te-Xe(ecp-28), Po-Rn(ecp-46): K. A. Peterson, D. Figgen, E. Goll, H. Stoll, M. Dolg, J. Chem. Phys., 2003, 119, 11113-11123.
Rb(ecp-28), Cs(ecp-46): T. Leininger, A. Nicklass, W. Kuechle, H. Stoll, M. Dolg, A. Bergner, Chem. Phys. Lett., 1996, 255, 274-280.
Sr(ecp-28), Ba(ecp-46): M. Kaupp, P. V. Schleyer, H. Stoll and H. Preuss, J. Chem. Phys., 1991, 94, 1360-1366.
La(ecp-46): M. Dolg, H. Stoll, A. Savin, H. Preuss, Theor. Chim. Acta, 1989, 75, 173-194.
Lu(ecp-28): X. Cao, M. Dolg, J. Chem. Phys., 2001, 115, 7348-7355.

ECP parameters for Au [Def2-ECP] have been obtained from:
TURBOMOLE (7.0.2)

----- Orbital basis set information -----
Your calculation utilizes the basis: def2-TZVP
   F. Weigend and R. Ahlrichs, Phys. Chem. Chem. Phys. 7, 3297 (2005).

----- AuxJ basis set information -----
Your calculation utilizes the auxiliary basis: def2/J
   F. Weigend, Phys. Chem. Chem. Phys. 8, 1057 (2006).

----- AuxC basis set information -----
Your calculation utilizes the auxiliary basis: def2-TZVP/C
  H-La, Hf-Rn : A. Hellweg, C. Hattig, S. Hofener and W. Klopper, Theor. Chem. Acc. 117, 587 (2007).
        Ce-Lu : J. Chmela and M. E. Harding, Mol. Phys. (2018).

================================================================================
                                        WARNINGS
                       Please study these warnings very carefully!
================================================================================


INFO   : the flag for use of the SHARK integral package has been found!

================================================================================
                                       INPUT FILE
================================================================================
NAME = casscf.inp
|  1> !CASSCF def2-TZVP def2-TZVP/C
|  2> !MOREAD RIJCOSX
|  3> %maxcore 6000
|  4> %moinp "pbe.qro"
|  5> %pal nprocs 16 end 
|  6> 
|  7> %casscf
|  8>  mult 6,4
|  9>  bweight 1,1
| 10>  nroots 1,24
| 11>  nel 5
| 12>  norb 5
| 13> end
| 14> 
| 15> 
| 16> *xyzfile 0 6 pbe.xyz
| 17> 
| 18> 
| 19>                          ****END OF INPUT****
================================================================================

                       ****************************
                       * Single Point Calculation *
                       ****************************

---------------------------------
CARTESIAN COORDINATES (ANGSTROEM)
---------------------------------
  Au     6.660335    8.755551    5.997116
  Au     6.483308    4.922548    7.873563
  Au     4.806663    7.130805    7.111022
  Au     5.837835    9.291813    8.569310
  Au     8.924034    5.135554    6.392931
  Au     6.498302    5.919715    5.295060
  Au     8.764176    7.443804    4.738932
  Au     9.184835    9.846622    6.076790
  Au    10.578068    5.805516    8.427982
  Au     8.187450    5.945035    9.781622
  Au    10.034161    8.017811   10.019368
  Au     5.599389    6.724497    9.830822
  Au     7.408497    8.602180   10.737484
  Au     8.583563   10.085586    8.707140
  Mn     8.629877    7.588111    7.581091

----------------------------
CARTESIAN COORDINATES (A.U.)
----------------------------
  NO LB      ZA    FRAG     MASS         X           Y           Z
   0 Au   19.0000*   0   196.966   12.586208   16.545594   11.332908
   1 Au   19.0000*   0   196.966   12.251677    9.302267   14.878877
   2 Au   19.0000*   0   196.966    9.083277   13.475269   13.437883
   3 Au   19.0000*   0   196.966   11.031910   17.558982   16.193649
   4 Au   19.0000*   0   196.966   16.863981    9.704791   12.080889
   5 Au   19.0000*   0   196.966   12.280012   11.186640   10.006212
   6 Au   19.0000*   0   196.966   16.561893   14.066751    8.955284
   7 Au   19.0000*   0   196.966   17.356823   18.607419   11.483468
   8 Au   19.0000*   0   196.966   19.989651   10.970835   15.926578
   9 Au   19.0000*   0   196.966   15.472038   11.234488   18.484586
  10 Au   19.0000*   0   196.966   18.961817   15.151466   18.933861
  11 Au   19.0000*   0   196.966   10.581311   12.707457   18.577561
  12 Au   19.0000*   0   196.966   14.000031   16.255764   20.290903
  13 Au   19.0000*   0   196.966   16.220582   19.058996   16.454109
  14 Mn   25.0000    0    54.940   16.308104   14.339452   14.326186
* core charge reduced due to ECP

--------------------------------
INTERNAL COORDINATES (ANGSTROEM)
--------------------------------
 Au     0   0   0     0.000000000000     0.00000000     0.00000000
 Au     1   0   0     4.271335426905     0.00000000     0.00000000
 Au     1   2   0     2.704936505569    41.55396282     0.00000000
 Au     1   2   3     2.753227549725    75.63967458    63.48701992
 Au     2   1   3     2.862653758883    70.77178545   161.95860653
 Au     3   1   2     2.761539575466    64.71216987   311.69463903
 Au     1   2   3     2.780262092597    78.85919227   209.55858689
 Au     1   2   3     2.751342705369   112.40620081   158.30849346
 Au     5   2   1     2.706678216335    98.65943655    98.15670380
 Au     9   5   2     2.750792838964    81.45760702   352.53875713
 Au     9   5   2     2.778955015872   120.53088975   304.33692424
 Au    10   9   5     2.703338788500   148.82452486   316.75430953
 Au    12  10   9     2.760543590344    64.83023701   271.16630977
 Au     8   1   2     2.708758565143    81.91925943   289.33450547
 Mn    14   8   1     2.739983787070    61.10304244    60.57981677

---------------------------
INTERNAL COORDINATES (A.U.)
---------------------------
 Au     0   0   0     0.000000000000     0.00000000     0.00000000
 Au     1   0   0     8.071654182967     0.00000000     0.00000000
 Au     1   2   0     5.111589205172    41.55396282     0.00000000
 Au     1   2   3     5.202846053347    75.63967458    63.48701992
 Au     2   1   3     5.409631620530    70.77178545   161.95860653
 Au     3   1   2     5.218553505616    64.71216987   311.69463903
 Au     1   2   3     5.253933935530    78.85919227   209.55858689
 Au     1   2   3     5.199284213709   112.40620081   158.30849346
 Au     5   2   1     5.114880561525    98.65943655    98.15670380
 Au     9   5   2     5.198245116793    81.45760702   352.53875713
 Au     9   5   2     5.251463918485   120.53088975   304.33692424
 Au    10   9   5     5.108569957472   148.82452486   316.75430953
 Au    12  10   9     5.216671366502    64.83023701   271.16630977
 Au     8   1   2     5.118811851033    81.91925943   289.33450547
 Mn    14   8   1     5.177818968946    61.10304244    60.57981677

---------------------
BASIS SET INFORMATION
---------------------
There are 2 groups of distinct atoms

 Group   1 Type Au  : 8s7p6d1f contracted to 6s4p3d1f pattern {311111/4111/411/1}
 Group   2 Type Mn  : 17s11p7d1f contracted to 6s4p4d1f pattern {842111/6311/4111/1}

Atom   0Au   basis set group =>   1
Atom   1Au   basis set group =>   1
Atom   2Au   basis set group =>   1
Atom   3Au   basis set group =>   1
Atom   4Au   basis set group =>   1
Atom   5Au   basis set group =>   1
Atom   6Au   basis set group =>   1
Atom   7Au   basis set group =>   1
Atom   8Au   basis set group =>   1
Atom   9Au   basis set group =>   1
Atom  10Au   basis set group =>   1
Atom  11Au   basis set group =>   1
Atom  12Au   basis set group =>   1
Atom  13Au   basis set group =>   1
Atom  14Mn   basis set group =>   2
---------------------------------
AUXILIARY/J BASIS SET INFORMATION
---------------------------------
There are 2 groups of distinct atoms

 Group   1 Type Au  : 11s5p5d3f3g contracted to 8s5p5d2f3g pattern {41111111/11111/11111/21/111}
 Group   2 Type Mn  : 19s5p5d3f3g contracted to 8s5p5d2f3g pattern {121111111/11111/11111/21/111}

Atom   0Au   basis set group =>   1
Atom   1Au   basis set group =>   1
Atom   2Au   basis set group =>   1
Atom   3Au   basis set group =>   1
Atom   4Au   basis set group =>   1
Atom   5Au   basis set group =>   1
Atom   6Au   basis set group =>   1
Atom   7Au   basis set group =>   1
Atom   8Au   basis set group =>   1
Atom   9Au   basis set group =>   1
Atom  10Au   basis set group =>   1
Atom  11Au   basis set group =>   1
Atom  12Au   basis set group =>   1
Atom  13Au   basis set group =>   1
Atom  14Mn   basis set group =>   2
---------------------------------
AUXILIARY/C BASIS SET INFORMATION
---------------------------------
There are 2 groups of distinct atoms

 Group   1 Type Au  : 8s8p7d5f3g2h contracted to 8s8p7d5f3g2h pattern {11111111/11111111/1111111/11111/111/11}
 Group   2 Type Mn  : 11s9p8d6f5g2h contracted to 9s8p8d6f5g2h pattern {311111111/21111111/11111111/111111/11111/11}

Atom   0Au   basis set group =>   1
Atom   1Au   basis set group =>   1
Atom   2Au   basis set group =>   1
Atom   3Au   basis set group =>   1
Atom   4Au   basis set group =>   1
Atom   5Au   basis set group =>   1
Atom   6Au   basis set group =>   1
Atom   7Au   basis set group =>   1
Atom   8Au   basis set group =>   1
Atom   9Au   basis set group =>   1
Atom  10Au   basis set group =>   1
Atom  11Au   basis set group =>   1
Atom  12Au   basis set group =>   1
Atom  13Au   basis set group =>   1
Atom  14Mn   basis set group =>   2
-------------------------
ECP PARAMETER INFORMATION
-------------------------

 Group 1, Type Au ECP Def2-ECP (replacing 60 core electrons, lmax=3)

Atom   0Au   ECP group =>   1
Atom   1Au   ECP group =>   1
Atom   2Au   ECP group =>   1
Atom   3Au   ECP group =>   1
Atom   4Au   ECP group =>   1
Atom   5Au   ECP group =>   1
Atom   6Au   ECP group =>   1
Atom   7Au   ECP group =>   1
Atom   8Au   ECP group =>   1
Atom   9Au   ECP group =>   1
Atom  10Au   ECP group =>   1
Atom  11Au   ECP group =>   1
Atom  12Au   ECP group =>   1
Atom  13Au   ECP group =>   1



           ************************************************************
           *        Program running with 16 parallel MPI-processes    *
           *              working on a common directory               *
           ************************************************************
------------------------------------------------------------------------------
                           ORCA GTO INTEGRAL CALCULATION
                           -- RI-GTO INTEGRALS CHOSEN --
------------------------------------------------------------------------------
------------------------------------------------------------------------------
                   ___                                                        
                  /   \      - P O W E R E D   B Y -                         
                 /     \                                                     
                 |  |  |   _    _      __       _____    __    __             
                 |  |  |  | |  | |    /  \     |  _  \  |  |  /  |          
                  \  \/   | |  | |   /    \    | | | |  |  | /  /          
                 / \  \   | |__| |  /  /\  \   | |_| |  |  |/  /          
                |  |  |   |  __  | /  /__\  \  |    /   |      \           
                |  |  |   | |  | | |   __   |  |    \   |  |\   \          
                \     /   | |  | | |  |  |  |  | |\  \  |  | \   \       
                 \___/    |_|  |_| |__|  |__|  |_| \__\ |__|  \__/        
                                                                              
                      - O R C A' S   B I G   F R I E N D -                    
                                      &                                       
                       - I N T E G R A L  F E E D E R -                       
                                                                              
 v1 FN, 2020, v2 2021                                                         
------------------------------------------------------------------------------


Reading SHARK input file casscf.SHARKINP.tmp ... ok
----------------------
SHARK INTEGRAL PACKAGE
----------------------

Number of atoms                             ...     15
Number of basis functions                   ...    605
Number of shells                            ...    211
Maximum angular momentum                    ...      3
Integral batch strategy                     ... SHARK/LIBINT Hybrid
RI-J (if used) integral strategy            ... SPLIT-RIJ (Revised 2003 algorithm where possible)
Printlevel                                  ...      1
Contraction scheme used                     ... SEGMENTED contraction
Coulomb Range Separation                    ... NOT USED
Exchange Range Separation                   ... NOT USED
Finite Nucleus Model                        ... NOT USED
Auxiliary Coulomb fitting basis             ... AVAILABLE
   # of basis functions in Aux-J            ...   1335
   # of shells in Aux-J                     ...    345
   Maximum angular momentum in Aux-J        ...      4
Auxiliary J/K fitting basis                 ... NOT available
Auxiliary Correlation fitting basis         ... AVAILABLE
   # of basis functions in Aux-C            ...   2296
   # of shells in Aux-C                     ...    500
   Maximum angular momentum in Aux-C        ...      5
Auxiliary 'external' fitting basis          ... NOT available
Integral threshold                          ...     1.000000e-10
Primitive cut-off                           ...     1.000000e-11
Primitive pair pre-selection threshold      ...     1.000000e-11

Calculating pre-screening integrals         ... done (  0.1 sec) Dimension = 211
Organizing shell pair data                  ... done (  0.7 sec)
Shell pair information
Total number of shell pairs                 ...     22366
Shell pairs after pre-screening             ...     17674
Total number of primitive shell pairs       ...     59609
Primitive shell pairs kept                  ...     33825
          la=0 lb=0:   2776 shell pairs
          la=1 lb=0:   4010 shell pairs
          la=1 lb=1:   1521 shell pairs
          la=2 lb=0:   3502 shell pairs
          la=2 lb=1:   2478 shell pairs
          la=2 lb=2:   1030 shell pairs
          la=3 lb=0:    912 shell pairs
          la=3 lb=1:    714 shell pairs
          la=3 lb=2:    634 shell pairs
          la=3 lb=3:     97 shell pairs

Calculating one electron integrals          ... done (  0.0 sec)
Calculating ECP integrals                   ... done ( 11.8 sec)
Calculating RI/J V-Matrix + Cholesky decomp.... done (  0.1 sec)
Calculating RI/C V-Matrix + Cholesky decomp.... done (  0.3 sec)
Calculating Nuclear repulsion               ... done (  0.0 sec) ENN=   5584.591347600531 Eh

SHARK setup successfully completed in  13.5 seconds

Maximum memory used throughout the entire GTOINT-calculation: 37.7 MB


           ************************************************************
           *        Program running with 16 parallel MPI-processes    *
           *              working on a common directory               *
           ************************************************************
-------------------------------------------------------------------------------
                                 ORCA SCF
-------------------------------------------------------------------------------

------------
SCF SETTINGS
------------
Hamiltonian:
 Ab initio Hamiltonian  Method          .... Hartree-Fock(GTOs)
 RI-approximation to the Coulomb term is turned on
   Number of AuxJ basis functions       .... 1335
   RIJ-COSX (HFX calculated with COS-X)).... on


General Settings:
 Integral files         IntName         .... casscf
 Hartree-Fock type      HFTyp           .... CASSCF
 Total Charge           Charge          ....    0
 Multiplicity           Mult            ....    6
 Number of Electrons    NEL             ....  291
 Basis Dimension        Dim             ....  605
 Nuclear Repulsion      ENuc            ....   5584.5913476005 Eh


Diagonalization of the overlap matrix:
Smallest eigenvalue                        ... 5.422e-04
Time for diagonalization                   ...    0.114 sec
Threshold for overlap eigenvalues          ... 1.000e-08
Number of eigenvalues below threshold      ... 0
Time for construction of square roots      ...    0.064 sec
Total time needed                          ...    0.182 sec

---------------------
INITIAL GUESS: MOREAD
---------------------
Guess MOs are being read from file: pbe.qro
Input Geometry matches current geometry (good)
Input basis set matches current basis set (good)
MOs were renormalized
Gram-Schmidt orthogonalization of all MOs with pivot on actives
                      ------------------
                      INITIAL GUESS DONE (   7.8 sec)
                      ------------------
--------------------
COSX GRID GENERATION
--------------------

GRIDX 1
-------
General Integration Accuracy     IntAcc      ... 3.816
Radial Grid Type                 RadialGrid  ... OptM3 with GC (2021)
Angular Grid (max. ang.)         AngularGrid ... 1 (Lebedev-50)
Angular grid pruning method      GridPruning ... 4 (adaptive)
Weight generation scheme         WeightScheme... Becke
Basis function cutoff            BFCut       ... 1.0000e-10
Integration weight cutoff        WCut        ... 1.0000e-14
Angular grids for H and He will be reduced by one unit
Partially contracted basis set               ... on
Rotationally invariant grid construction     ... off

Total number of grid points                  ...    17379
Total number of batches                      ...      279
Average number of points per batch           ...       62
Average number of grid points per atom       ...     1159
UseSFitting                                  ... on

GRIDX 2
-------
General Integration Accuracy     IntAcc      ... 4.020
Radial Grid Type                 RadialGrid  ... OptM3 with GC (2021)
Angular Grid (max. ang.)         AngularGrid ... 2 (Lebedev-110)
Angular grid pruning method      GridPruning ... 4 (adaptive)
Weight generation scheme         WeightScheme... Becke
Basis function cutoff            BFCut       ... 1.0000e-10
Integration weight cutoff        WCut        ... 1.0000e-14
Angular grids for H and He will be reduced by one unit
Partially contracted basis set               ... on
Rotationally invariant grid construction     ... off

Total number of grid points                  ...    52670
Total number of batches                      ...      829
Average number of points per batch           ...       63
Average number of grid points per atom       ...     3511
UseSFitting                                  ... on

GRIDX 3
-------
General Integration Accuracy     IntAcc      ... 4.338
Radial Grid Type                 RadialGrid  ... OptM3 with GC (2021)
Angular Grid (max. ang.)         AngularGrid ... 3 (Lebedev-194)
Angular grid pruning method      GridPruning ... 4 (adaptive)
Weight generation scheme         WeightScheme... Becke
Basis function cutoff            BFCut       ... 1.0000e-10
Integration weight cutoff        WCut        ... 1.0000e-14
Angular grids for H and He will be reduced by one unit
Partially contracted basis set               ... on
Rotationally invariant grid construction     ... off

Total number of grid points                  ...    95728
Total number of batches                      ...     1505
Average number of points per batch           ...       63
Average number of grid points per atom       ...     6382
UseSFitting                                  ... on

Time for X-Grid setup             =    1.310 sec



 ... the calculation is a CASSCF calculation -I'm leaving here GOOD LUCK!!!



           ************************************************************
           *        Program running with 16 parallel MPI-processes    *
           *              working on a common directory               *
           ************************************************************
-------------------------------------------------------------------------------
                              ORCA-CASSCF
-------------------------------------------------------------------------------

Setting up the integral package       ... done
Setting up the integral package (RI)  ... done
Building the CAS space                ... done (1 configurations for Mult=6)
Building the CAS space                ... done (21 configurations for Mult=4)

SYSTEM-SPECIFIC SETTINGS:
Number of active electrons          ...    5
Number of active orbitals           ...    5
Total number of electrons           ...  291
Total number of orbitals            ...  605
Total number aux. functions         ... 2296

Determined orbital ranges:
   Internal       0 -  142 ( 143 orbitals)
   Active       143 -  147 (   5 orbitals)
   External     148 -  604 ( 457 orbitals)
Number of rotation parameters      ...  68351

CI-STEP:
CI strategy                         ... General CI
Number of multiplicity blocks       ...    2
BLOCK  1 WEIGHT=   0.5000
  Multiplicity                      ...    6
  #(Configurations)                 ...    1
  #(CSFs)                           ...    1
  #(Roots)                          ...    1
    ROOT=0 WEIGHT=    0.500000

BLOCK  2 WEIGHT=   0.5000
  Multiplicity                      ...    4
  #(Configurations)                 ...   21
  #(CSFs)                           ...   24
  #(Roots)                          ...   24
    ROOT=0 WEIGHT=    0.020833
    ROOT=1 WEIGHT=    0.020833
    ROOT=2 WEIGHT=    0.020833
    ROOT=3 WEIGHT=    0.020833
    ROOT=4 WEIGHT=    0.020833
    ROOT=5 WEIGHT=    0.020833
    ROOT=6 WEIGHT=    0.020833
    ROOT=7 WEIGHT=    0.020833
    ROOT=8 WEIGHT=    0.020833
    ROOT=9 WEIGHT=    0.020833
    ROOT=10 WEIGHT=    0.020833
    ROOT=11 WEIGHT=    0.020833
    ROOT=12 WEIGHT=    0.020833
    ROOT=13 WEIGHT=    0.020833
    ROOT=14 WEIGHT=    0.020833
    ROOT=15 WEIGHT=    0.020833
    ROOT=16 WEIGHT=    0.020833
    ROOT=17 WEIGHT=    0.020833
    ROOT=18 WEIGHT=    0.020833
    ROOT=19 WEIGHT=    0.020833
    ROOT=20 WEIGHT=    0.020833
    ROOT=21 WEIGHT=    0.020833
    ROOT=22 WEIGHT=    0.020833
    ROOT=23 WEIGHT=    0.020833

  PrintLevel                        ...    1
  N(GuessMat)                       ...       512
  MaxDim(CI)                        ...        10
  MaxIter(CI)                       ...        64
  Energy Tolerance CI               ...  1.00e-08
  Residual Tolerance CI             ...  1.00e-08
  Shift(CI)                         ...  1.00e-04

INTEGRAL-TRANSFORMATION-STEP:
  Algorithm                         ... RI-MO

ORBITAL-IMPROVEMENT-STEP:
  Algorithm                         ... SuperCI(PT)
  Default Parametrization           ... CAYLEY
  Act-Act rotations                 ... depends on algorithm used

  Note: SuperCI(PT) will ignore FreezeIE, FreezeAct and FreezeGrad. In general Default settings are encouraged.
        In conjunction with ShiftUp, ShiftDn or GradScaling the performance of SuperCI(PT) is less optimal.  

  MaxRot                            ... 2.00e-01 
  Max. no of vectors (DIIS)         ... 15
  DThresh (cut-off) metric          ... 1.00e-06
  Switch step at gradient           ...  3.00e-02 
  Switch step at iteration          ...        50   
  Switch step to                    ... SuperCI(PT)    

SCF-SETTINGS:
  Incremental                       ... off
  RIJCOSX approximation             ... on
  UseFinalGrid                      ... on
  RI-JK approximation               ... off
  AO integral handling              ... DIRECT
  Integral Neglect Thresh           ...  1.00e-10
  Primitive cutoff TCut             ...  1.00e-11
  Energy convergence tolerance      ...  1.00e-07
  Orbital gradient convergence      ...  1.00e-03
  Max. number of iterations         ...        75  


FINAL ORBITALS:
  Active   Orbitals                 ... natural 
  Internal Orbitals                 ... canonical 
  External Orbitals                 ... canonical 

------------------
CAS-SCF ITERATIONS
------------------


MACRO-ITERATION   1: 
   --- Inactive Energy E0 = -3027.73465557 Eh
CI-ITERATION   0: 
 -3036.795604595   0.000000000000 (    0.00)
   CI-PROBLEM SOLVED
   DENSITIES MADE
CI-ITERATION   0: 
 -3036.688290794   0.000000000000 (    0.00)
 -3036.686572375   0.000000000000
 -3036.686358754   0.000000000000
 -3036.685067509   0.000000000000
 -3036.684085476   0.000000000000
 -3036.681894022   0.000000000000
 -3036.681477660   0.000000000000
 -3036.681067090   0.000000000000
 -3036.680912086   0.000000000000
 -3036.669401099   0.000000000000
 -3036.666336559   0.000000000000
 -3036.665178882   0.000000000000
 -3036.658253682   0.000000000000
 -3036.657357009   0.000000000000
 -3036.654870802   0.000000000000
 -3036.653847079   0.000000000000
 -3036.652843071   0.000000000000
 -3036.615614204   0.000000000000
 -3036.611082276   0.000000000000
 -3036.608006763   0.000000000000
 -3036.605466862   0.000000000000
 -3036.604654583   0.000000000000
 -3036.601275158   0.000000000000
 -3036.601188284   0.000000000000
   CI-PROBLEM SOLVED
   DENSITIES MADE

                 <<<<<<<<<<<<<<<<<<INITIAL CI STATE CHECK>>>>>>>>>>>>>>>>>>

BLOCK  1 MULT= 6 NROOTS= 1 
ROOT   0:  E=   -3036.7956045951 Eh
      1.00000 [     0]: 11111

BLOCK  2 MULT= 4 NROOTS=24 
ROOT   0:  E=   -3036.6882907937 Eh
      0.82278 [    10]: 11111
      0.10234 [     9]: 11120
      0.05053 [    11]: 11102
      0.01336 [    14]: 10211
      0.00676 [     6]: 12011
ROOT   1:  E=   -3036.6865723748 Eh  0.047 eV    377.1 cm**-1
      0.40271 [     9]: 11120
      0.38555 [    11]: 11102
      0.19163 [    10]: 11111
      0.00710 [     7]: 11210
      0.00390 [    13]: 11012
ROOT   2:  E=   -3036.6863587544 Eh  0.053 eV    424.0 cm**-1
      0.42533 [     7]: 11210
      0.24584 [    13]: 11012
      0.12652 [    15]: 10121
      0.12042 [     5]: 12101
      0.03373 [    17]: 02111
      0.01574 [     3]: 20111
      0.01278 [    18]: 01211
      0.00667 [    11]: 11102
      0.00657 [     9]: 11120
      0.00337 [    10]: 11111
ROOT   3:  E=   -3036.6850675087 Eh  0.088 eV    707.4 cm**-1
      0.33950 [     8]: 11201
      0.22497 [    12]: 11021
      0.20715 [     4]: 12110
      0.17221 [    16]: 10112
      0.01722 [    17]: 02111
      0.01408 [     5]: 12101
      0.00835 [    18]: 01211
      0.00627 [     3]: 20111
      0.00564 [     2]: 21011
ROOT   4:  E=   -3036.6840854757 Eh  0.114 eV    923.0 cm**-1
      0.83542 [    10]: 11111
      0.04331 [     1]: 21101
      0.03465 [    19]: 01121
      0.01977 [     9]: 11120
      0.01815 [     0]: 21110
      0.01756 [     6]: 12011
      0.01183 [    20]: 01112
      0.01035 [    11]: 11102
      0.00880 [    14]: 10211
ROOT   5:  E=   -3036.6818940223 Eh  0.174 eV   1403.9 cm**-1
      0.28914 [    14]: 10211
      0.22906 [     6]: 12011
      0.11899 [     0]: 21110
      0.09892 [     1]: 21101
      0.09195 [    20]: 01112
      0.08793 [    10]: 11111
      0.08099 [    19]: 01121
ROOT   6:  E=   -3036.6814776604 Eh  0.185 eV   1495.3 cm**-1
      0.53773 [    18]: 01211
      0.32587 [     2]: 21011
      0.04115 [     4]: 12110
      0.03296 [     5]: 12101
      0.01474 [    16]: 10112
      0.01388 [    17]: 02111
      0.01284 [    15]: 10121
      0.01106 [     8]: 11201
      0.00377 [    13]: 11012
      0.00371 [     3]: 20111
ROOT   7:  E=   -3036.6810670901 Eh  0.197 eV   1585.4 cm**-1
      0.27796 [    17]: 02111
      0.25527 [     3]: 20111
      0.17028 [     5]: 12101
      0.12228 [    15]: 10121
      0.07309 [     4]: 12110
      0.05868 [    16]: 10112
      0.01670 [     7]: 11210
      0.00975 [     2]: 21011
      0.00764 [    13]: 11012
      0.00555 [    18]: 01211
ROOT   8:  E=   -3036.6809120856 Eh  0.201 eV   1619.4 cm**-1
      0.67108 [    10]: 11111
      0.09164 [     0]: 21110
      0.07047 [    20]: 01112
      0.06332 [     1]: 21101
      0.05545 [    19]: 01121
      0.02721 [     6]: 12011
      0.01789 [    14]: 10211
ROOT   9:  E=   -3036.6694010995 Eh  0.514 eV   4145.8 cm**-1
      0.43293 [    11]: 11102
      0.36495 [     9]: 11120
      0.09179 [     6]: 12011
      0.06944 [    14]: 10211
      0.01612 [     1]: 21101
      0.00991 [     0]: 21110
      0.00908 [    20]: 01112
      0.00493 [    10]: 11111
ROOT  10:  E=   -3036.6663365589 Eh  0.597 eV   4818.4 cm**-1
      0.26952 [     3]: 20111
      0.16344 [     4]: 12110
      0.14132 [     5]: 12101
      0.11361 [     7]: 11210
      0.06843 [     8]: 11201
      0.06752 [     2]: 21011
      0.04841 [    13]: 11012
      0.03865 [    15]: 10121
      0.02643 [    17]: 02111
      0.02470 [    16]: 10112
      0.02058 [    18]: 01211
      0.01732 [    12]: 11021
ROOT  11:  E=   -3036.6651788815 Eh  0.629 eV   5072.5 cm**-1
      0.41262 [     2]: 21011
      0.13829 [     5]: 12101
      0.09904 [    18]: 01211
      0.09649 [     4]: 12110
      0.08281 [     8]: 11201
      0.07669 [     3]: 20111
      0.05691 [     7]: 11210
      0.01351 [    13]: 11012
      0.01159 [    15]: 10121
      0.00636 [    17]: 02111
      0.00548 [    16]: 10112
ROOT  12:  E=   -3036.6582536815 Eh  0.817 eV   6592.4 cm**-1
      0.98389 [    10]: 11111
      0.00647 [     6]: 12011
      0.00556 [    14]: 10211
      0.00272 [    19]: 01121
ROOT  13:  E=   -3036.6573570091 Eh  0.842 eV   6789.2 cm**-1
      0.19941 [    15]: 10121
      0.11891 [    16]: 10112
      0.11416 [    18]: 01211
      0.11376 [    13]: 11012
      0.10800 [    12]: 11021
      0.07285 [     4]: 12110
      0.06797 [    17]: 02111
      0.06392 [     8]: 11201
      0.06176 [     5]: 12101
      0.06043 [     7]: 11210
      0.01656 [     2]: 21011
ROOT  14:  E=   -3036.6548708019 Eh  0.909 eV   7334.8 cm**-1
      0.25226 [    17]: 02111
      0.17015 [    16]: 10112
      0.13283 [    12]: 11021
      0.10046 [    13]: 11012
      0.09768 [    15]: 10121
      0.07269 [     8]: 11201
      0.05153 [    18]: 01211
      0.04157 [     3]: 20111
      0.03731 [     4]: 12110
      0.02266 [     7]: 11210
      0.02069 [     5]: 12101
ROOT  15:  E=   -3036.6538470790 Eh  0.937 eV   7559.5 cm**-1
      0.34220 [     0]: 21110
      0.21603 [    20]: 01112
      0.19559 [    14]: 10211
      0.17669 [     6]: 12011
      0.02901 [    10]: 11111
      0.02187 [     1]: 21101
      0.01220 [    19]: 01121
      0.00559 [     9]: 11120
ROOT  16:  E=   -3036.6528430708 Eh  0.965 eV   7779.9 cm**-1
      0.36581 [    10]: 11111
      0.33380 [     1]: 21101
      0.24071 [    19]: 01121
      0.02218 [     0]: 21110
      0.01527 [    20]: 01112
      0.01288 [    11]: 11102
      0.00489 [    14]: 10211
ROOT  17:  E=   -3036.6156142035 Eh  1.978 eV  15950.7 cm**-1
      0.41495 [    13]: 11012
      0.26811 [     7]: 11210
      0.05975 [    12]: 11021
      0.05526 [    15]: 10121
      0.05036 [     5]: 12101
      0.03892 [     8]: 11201
      0.02272 [    16]: 10112
      0.02062 [     2]: 21011
      0.02060 [    18]: 01211
      0.01987 [     3]: 20111
      0.01854 [    17]: 02111
      0.01019 [     4]: 12110
ROOT  18:  E=   -3036.6110822755 Eh  2.101 eV  16945.3 cm**-1
      0.41022 [    12]: 11021
      0.28938 [     8]: 11201
      0.14214 [    16]: 10112
      0.11007 [     4]: 12110
      0.02161 [    13]: 11012
      0.00815 [     7]: 11210
      0.00531 [     3]: 20111
      0.00472 [    17]: 02111
      0.00431 [     5]: 12101
ROOT  19:  E=   -3036.6080067633 Eh  2.185 eV  17620.3 cm**-1
      0.42739 [     6]: 12011
      0.37493 [    14]: 10211
      0.09221 [    11]: 11102
      0.08801 [     9]: 11120
      0.00786 [    20]: 01112
      0.00358 [    19]: 01121
      0.00332 [     0]: 21110
ROOT  20:  E=   -3036.6054668616 Eh  2.254 eV  18177.8 cm**-1
      0.25247 [    16]: 10112
      0.17471 [     4]: 12110
      0.13781 [     2]: 21011
      0.12689 [    18]: 01211
      0.10252 [    15]: 10121
      0.07820 [     5]: 12101
      0.04344 [    12]: 11021
      0.03107 [     8]: 11201
      0.01576 [    13]: 11012
      0.01314 [     7]: 11210
      0.01259 [    17]: 02111
      0.01074 [     3]: 20111
ROOT  21:  E=   -3036.6046545830 Eh  2.276 eV  18356.0 cm**-1
      0.56229 [    20]: 01112
      0.38542 [     0]: 21110
      0.01420 [    19]: 01121
      0.01354 [     1]: 21101
      0.01126 [    14]: 10211
      0.00721 [     6]: 12011
      0.00354 [    11]: 11102
ROOT  22:  E=   -3036.6012751579 Eh  2.368 eV  19097.7 cm**-1
      0.42907 [    19]: 01121
      0.31538 [     1]: 21101
      0.06457 [     3]: 20111
      0.05872 [    17]: 02111
      0.05043 [    15]: 10121
      0.03645 [     5]: 12101
      0.01121 [    20]: 01112
      0.00613 [    14]: 10211
      0.00553 [     0]: 21110
      0.00489 [     6]: 12011
      0.00432 [    16]: 10112
      0.00313 [     4]: 12110
      0.00298 [     9]: 11120
ROOT  23:  E=   -3036.6011882843 Eh  2.370 eV  19116.8 cm**-1
      0.22806 [     3]: 20111
      0.20875 [    17]: 02111
      0.17707 [    15]: 10121
      0.12833 [     5]: 12101
      0.12209 [    19]: 01121
      0.08947 [     1]: 21101
      0.01318 [    16]: 10112
      0.00953 [     4]: 12110
      0.00765 [    13]: 11012
      0.00434 [     7]: 11210
      0.00288 [    20]: 01112
      0.00261 [    14]: 10211

                 <<<<<<<<<<<<<<<<<<INITIAL CI STATE CHECK>>>>>>>>>>>>>>>>>>

   E(CAS)= -3036.724491924 Eh DE=    0.000000e+00
   --- Energy gap subspaces: Ext-Act = 0.066   Act-Int = 0.119
   N(occ)=  1.00000 1.00000 1.00000 1.00000 1.00000
   ||g|| =     2.585055e+00 Max(G)=   -4.513054e-01 Rot=522,1
   --- Orbital Update [SuperCI(PT)]
   --- Canonicalize Internal Space
   --- Canonicalize External Space
   --- SX_PT (Skipped TA=0 IT=0): ||X|| =      0.486015986 Max(X)(145,98) =     -0.075506991 
   --- SFit(Active Orbitals)

MACRO-ITERATION   2: 
   --- Inactive Energy E0 = -3026.77947958 Eh
CI-ITERATION   0: 
 -3037.199064431   0.000000000000 (    0.00)
   CI-PROBLEM SOLVED
   DENSITIES MADE
CI-ITERATION   0: 
 -3037.074283147   0.000000000000 (    0.00)
 -3037.074101796   0.000000000000
 -3037.072841793   0.000000000000
 -3037.072838134   0.000000000000
 -3037.072501041   0.000000000000
 -3037.072216479   0.000000000000
 -3037.071241104   0.000000000000
 -3037.069843237   0.000000000000
 -3037.069770535   0.000000000000
 -3037.053506987   0.000000000000
 -3037.052850344   0.000000000000
 -3037.051052866   0.000000000000
 -3037.041966641   0.000000000000
 -3037.040569147   0.000000000000
 -3037.039243903   0.000000000000
 -3037.036963022   0.000000000000
 -3037.035409553   0.000000000000
 -3036.986481146   0.000000000000
 -3036.984195586   0.000000000000
 -3036.982860126   0.000000000000
 -3036.980486376   0.000000000000
 -3036.979803314   0.000000000000
 -3036.978844627   0.000000000000
 -3036.978257935   0.000000000000
   CI-PROBLEM SOLVED
   DENSITIES MADE
   E(CAS)= -3037.117701566 Eh DE=   -3.932096e-01
   --- Energy gap subspaces: Ext-Act = 0.173   Act-Int = 0.008
   N(occ)=  1.00000 1.00000 1.00000 1.00000 1.00000
   ||g|| =     8.538939e-01 Max(G)=    4.809382e-02 Rot=196,147
   --- Orbital Update [SuperCI(PT)]
   --- Canonicalize Internal Space
   --- Canonicalize External Space
   --- SX_PT (Skipped TA=0 IT=0): ||X|| =      0.174313608 Max(X)(202,147) =      0.028795146 
   --- SFit(Active Orbitals)

MACRO-ITERATION   3: 
   --- Inactive Energy E0 = -3026.80472289 Eh
CI-ITERATION   0: 
 -3037.243996850   0.000000000000 (    0.00)
   CI-PROBLEM SOLVED
   DENSITIES MADE
CI-ITERATION   0: 
 -3037.109008774   0.000000000000 (    0.00)
 -3037.108836451   0.000000000000
 -3037.108546558   0.000000000000
 -3037.108412644   0.000000000000
 -3037.108134249   0.000000000000
 -3037.107749278   0.000000000000
 -3037.107347875   0.000000000000
 -3037.106497647   0.000000000000
 -3037.106419395   0.000000000000
 -3037.087920122   0.000000000000
 -3037.087289792   0.000000000000
 -3037.086589612   0.000000000000
 -3037.075274481   0.000000000000
 -3037.074388518   0.000000000000
 -3037.073561458   0.000000000000
 -3037.072321251   0.000000000000
 -3037.070993519   0.000000000000
 -3037.016267646   0.000000000000
 -3037.014596544   0.000000000000
 -3037.013759733   0.000000000000
 -3037.012496978   0.000000000000
 -3037.011742012   0.000000000000
 -3037.011464120   0.000000000000
 -3037.010729303   0.000000000000
   CI-PROBLEM SOLVED
   DENSITIES MADE
   E(CAS)= -3037.157214007 Eh DE=   -3.951244e-02
   --- Energy gap subspaces: Ext-Act = 0.074   Act-Int = 0.119
   N(occ)=  1.00000 1.00000 1.00000 1.00000 1.00000
   ||g|| =     5.117505e-01 Max(G)=    8.478118e-02 Rot=522,19
   --- Orbital Update [SuperCI(PT)]
   --- Canonicalize Internal Space
   --- Canonicalize External Space
   --- SX_PT (Skipped TA=0 IT=0): ||X|| =      0.121016678 Max(X)(147,141) =      0.030029835 
   --- SFit(Active Orbitals)

MACRO-ITERATION   4: 
   --- Inactive Energy E0 = -3026.54621262 Eh
CI-ITERATION   0: 
 -3037.258947065   0.000000000000 (    0.00)
   CI-PROBLEM SOLVED
   DENSITIES MADE
CI-ITERATION   0: 
 -3037.122848739   0.000000000000 (    0.00)
 -3037.122820396   0.000000000000
 -3037.122064246   0.000000000000
 -3037.121875414   0.000000000000
 -3037.121752699   0.000000000000
 -3037.121733866   0.000000000000
 -3037.121166254   0.000000000000
 -3037.120493448   0.000000000000
 -3037.120392079   0.000000000000
 -3037.101616636   0.000000000000
 -3037.100833914   0.000000000000
 -3037.099320000   0.000000000000
 -3037.089050062   0.000000000000
 -3037.087535340   0.000000000000
 -3037.087339525   0.000000000000
 -3037.085263923   0.000000000000
 -3037.084125404   0.000000000000
 -3037.027838203   0.000000000000
 -3037.026899458   0.000000000000
 -3037.026374863   0.000000000000
 -3037.025071355   0.000000000000
 -3037.024952494   0.000000000000
 -3037.024185951   0.000000000000
 -3037.023720558   0.000000000000
   CI-PROBLEM SOLVED
   DENSITIES MADE
   E(CAS)= -3037.171333425 Eh DE=   -1.411942e-02
   --- Energy gap subspaces: Ext-Act = 0.121   Act-Int = 0.069
   N(occ)=  1.00000 1.00000 1.00000 1.00000 1.00000
   ||g|| =     1.216039e-01 Max(G)=    8.456254e-03 Rot=150,141
   --- Orbital Update [SuperCI(PT)]
   --- Canonicalize Internal Space
   --- Canonicalize External Space
   --- SX_PT (Skipped TA=0 IT=0): ||X|| =      0.035309812 Max(X)(152,141) =     -0.011244560 
   --- SFit(Active Orbitals)

MACRO-ITERATION   5: 
   --- Inactive Energy E0 = -3026.50537974 Eh
CI-ITERATION   0: 
 -3037.259981495   0.000000000000 (    0.00)
   CI-PROBLEM SOLVED
   DENSITIES MADE
CI-ITERATION   0: 
 -3037.123392801   0.000000000000 (    0.00)
 -3037.123386426   0.000000000000
 -3037.122649716   0.000000000000
 -3037.122444690   0.000000000000
 -3037.122341888   0.000000000000
 -3037.122248756   0.000000000000
 -3037.121793973   0.000000000000
 -3037.121164151   0.000000000000
 -3037.121050824   0.000000000000
 -3037.102177795   0.000000000000
 -3037.101444976   0.000000000000
 -3037.099805680   0.000000000000
 -3037.089547850   0.000000000000
 -3037.087987778   0.000000000000
 -3037.087908251   0.000000000000
 -3037.085735608   0.000000000000
 -3037.084639240   0.000000000000
 -3037.027948194   0.000000000000
 -3037.027152831   0.000000000000
 -3037.026686533   0.000000000000
 -3037.025438294   0.000000000000
 -3037.025335356   0.000000000000
 -3037.024609400   0.000000000000
 -3037.024046386   0.000000000000
   CI-PROBLEM SOLVED
   DENSITIES MADE
   E(CAS)= -3037.172093610 Eh DE=   -7.601852e-04
   --- Energy gap subspaces: Ext-Act = 0.122   Act-Int = 0.068
   N(occ)=  1.00000 1.00000 1.00000 1.00000 1.00000
   ||g|| =     5.691490e-02 Max(G)=    5.415885e-03 Rot=153,140
   --- Orbital Update [SuperCI(PT)]
   --- Canonicalize Internal Space
   --- Canonicalize External Space
   --- SX_PT (Skipped TA=0 IT=0): ||X|| =      0.019062073 Max(X)(153,139) =      0.005238069 
   --- SFit(Active Orbitals)

MACRO-ITERATION   6: 
   --- Inactive Energy E0 = -3026.50399524 Eh
CI-ITERATION   0: 
 -3037.260527549   0.000000000000 (    0.00)
   CI-PROBLEM SOLVED
   DENSITIES MADE
CI-ITERATION   0: 
 -3037.123455163   0.000000000000 (    0.00)
 -3037.123443467   0.000000000000
 -3037.122748839   0.000000000000
 -3037.122536964   0.000000000000
 -3037.122453100   0.000000000000
 -3037.122322475   0.000000000000
 -3037.121944996   0.000000000000
 -3037.121355451   0.000000000000
 -3037.121236173   0.000000000000
 -3037.102245735   0.000000000000
 -3037.101525199   0.000000000000
 -3037.099867116   0.000000000000
 -3037.089544510   0.000000000000
 -3037.088020356   0.000000000000
 -3037.087967120   0.000000000000
 -3037.085794060   0.000000000000
 -3037.084754184   0.000000000000
 -3037.027678766   0.000000000000
 -3037.027009784   0.000000000000
 -3037.026579730   0.000000000000
 -3037.025428155   0.000000000000
 -3037.025259141   0.000000000000
 -3037.024607726   0.000000000000
 -3037.023976305   0.000000000000
   CI-PROBLEM SOLVED
   DENSITIES MADE
   E(CAS)= -3037.172383660 Eh DE=   -2.900502e-04
   --- Energy gap subspaces: Ext-Act = 0.119   Act-Int = 0.071
   N(occ)=  1.00000 1.00000 1.00000 1.00000 1.00000
   ||g|| =     2.522384e-02 Max(G)=    3.766060e-03 Rot=522,19
   --- Orbital Update [SuperCI(PT)]
   --- Canonicalize Internal Space
   --- Canonicalize External Space
   --- SX_PT (Skipped TA=0 IT=0): ||X|| =      0.007692677 Max(X)(148,140) =     -0.002971736 
   --- SFit(Active Orbitals)

MACRO-ITERATION   7: 
   --- Inactive Energy E0 = -3026.48939681 Eh
CI-ITERATION   0: 
 -3037.260565655   0.000000000000 (    0.00)
   CI-PROBLEM SOLVED
   DENSITIES MADE
CI-ITERATION   0: 
 -3037.123509003   0.000000000000 (    0.00)
 -3037.123496462   0.000000000000
 -3037.122804162   0.000000000000
 -3037.122587895   0.000000000000
 -3037.122510933   0.000000000000
 -3037.122365275   0.000000000000
 -3037.122014670   0.000000000000
 -3037.121432956   0.000000000000
 -3037.121309215   0.000000000000
 -3037.102330902   0.000000000000
 -3037.101617952   0.000000000000
 -3037.099917348   0.000000000000
 -3037.089606947   0.000000000000
 -3037.088102969   0.000000000000
 -3037.088029572   0.000000000000
 -3037.085845769   0.000000000000
 -3037.084827694   0.000000000000
 -3037.027703410   0.000000000000
 -3037.027078789   0.000000000000
 -3037.026665566   0.000000000000
 -3037.025542607   0.000000000000
 -3037.025328109   0.000000000000
 -3037.024712615   0.000000000000
 -3037.024031268   0.000000000000
   CI-PROBLEM SOLVED
   DENSITIES MADE
   E(CAS)= -3037.172436412 Eh DE=   -5.275235e-05
   --- Energy gap subspaces: Ext-Act = 0.122   Act-Int = 0.069
   N(occ)=  1.00000 1.00000 1.00000 1.00000 1.00000
   ||g|| =     1.373523e-02 Max(G)=    1.545630e-03 Rot=148,141
   --- Orbital Update [SuperCI(PT)]
   --- Canonicalize Internal Space
   --- Canonicalize External Space
   --- SX_PT (Skipped TA=0 IT=0): ||X|| =      0.004569899 Max(X)(148,141) =     -0.002085378 
   --- SFit(Active Orbitals)

MACRO-ITERATION   8: 
   --- Inactive Energy E0 = -3026.49467010 Eh
CI-ITERATION   0: 
 -3037.260577352   0.000000000000 (    0.00)
   CI-PROBLEM SOLVED
   DENSITIES MADE
CI-ITERATION   0: 
 -3037.123524151   0.000000000000 (    0.00)
 -3037.123513527   0.000000000000
 -3037.122822591   0.000000000000
 -3037.122610371   0.000000000000
 -3037.122531569   0.000000000000
 -3037.122390142   0.000000000000
 -3037.122040142   0.000000000000
 -3037.121459081   0.000000000000
 -3037.121334884   0.000000000000
 -3037.102356546   0.000000000000
 -3037.101658198   0.000000000000
 -3037.099949786   0.000000000000
 -3037.089624058   0.000000000000
 -3037.088133914   0.000000000000
 -3037.088057444   0.000000000000
 -3037.085876534   0.000000000000
 -3037.084870925   0.000000000000
 -3037.027735377   0.000000000000
 -3037.027119666   0.000000000000
 -3037.026706495   0.000000000000
 -3037.025587869   0.000000000000
 -3037.025363143   0.000000000000
 -3037.024762016   0.000000000000
 -3037.024073468   0.000000000000
   CI-PROBLEM SOLVED
   DENSITIES MADE
   E(CAS)= -3037.172457465 Eh DE=   -2.105293e-05
   --- Energy gap subspaces: Ext-Act = 0.121   Act-Int = 0.069
   N(occ)=  1.00000 1.00000 1.00000 1.00000 1.00000
   ||g|| =     7.116918e-03 Max(G)=    1.133259e-03 Rot=148,141
   --- Orbital Update [SuperCI(PT)]
   --- Canonicalize Internal Space
   --- Canonicalize External Space
   --- SX_PT (Skipped TA=0 IT=0): ||X|| =      0.002757983 Max(X)(148,141) =     -0.001514331 
   --- SFit(Active Orbitals)

MACRO-ITERATION   9: 
   --- Inactive Energy E0 = -3026.49209821 Eh
CI-ITERATION   0: 
 -3037.260590976   0.000000000000 (    0.00)
   CI-PROBLEM SOLVED
   DENSITIES MADE
CI-ITERATION   0: 
 -3037.123531167   0.000000000000 (    0.00)
 -3037.123523735   0.000000000000
 -3037.122826565   0.000000000000
 -3037.122617766   0.000000000000
 -3037.122537038   0.000000000000
 -3037.122396537   0.000000000000
 -3037.122044820   0.000000000000
 -3037.121462370   0.000000000000
 -3037.121337532   0.000000000000
 -3037.102366666   0.000000000000
 -3037.101675124   0.000000000000
 -3037.099948851   0.000000000000
 -3037.089630698   0.000000000000
 -3037.088139573   0.000000000000
 -3037.088059537   0.000000000000
 -3037.085868522   0.000000000000
 -3037.084871114   0.000000000000
 -3037.027732915   0.000000000000
 -3037.027119841   0.000000000000
 -3037.026705989   0.000000000000
 -3037.025585193   0.000000000000
 -3037.025352040   0.000000000000
 -3037.024756323   0.000000000000
 -3037.024060955   0.000000000000
   CI-PROBLEM SOLVED
   DENSITIES MADE
   E(CAS)= -3037.172465298 Eh DE=   -7.832527e-06
   --- Energy gap subspaces: Ext-Act = 0.121   Act-Int = 0.069
   N(occ)=  1.00000 1.00000 1.00000 1.00000 1.00000
   ||g|| =     6.023762e-03 Max(G)=    7.783407e-04 Rot=148,141
   --- Orbital Update [SuperCI(PT)]
   --- Canonicalize Internal Space
   --- Canonicalize External Space
   --- SX_PT (Skipped TA=0 IT=0): ||X|| =      0.001942342 Max(X)(148,141) =     -0.001051439 
   --- SFit(Active Orbitals)

MACRO-ITERATION  10: 
   --- Inactive Energy E0 = -3026.49601367 Eh
CI-ITERATION   0: 
 -3037.260589883   0.000000000000 (    0.00)
   CI-PROBLEM SOLVED
   DENSITIES MADE
CI-ITERATION   0: 
 -3037.123538836   0.000000000000 (    0.00)
 -3037.123534415   0.000000000000
 -3037.122832204   0.000000000000
 -3037.122627796   0.000000000000
 -3037.122544266   0.000000000000
 -3037.122406653   0.000000000000
 -3037.122050812   0.000000000000
 -3037.121467381   0.000000000000
 -3037.121342702   0.000000000000
 -3037.102378228   0.000000000000
 -3037.101692660   0.000000000000
 -3037.099955751   0.000000000000
 -3037.089641835   0.000000000000
 -3037.088148816   0.000000000000
 -3037.088069073   0.000000000000
 -3037.085872526   0.000000000000
 -3037.084881168   0.000000000000
 -3037.027748490   0.000000000000
 -3037.027134661   0.000000000000
 -3037.026719557   0.000000000000
 -3037.025595898   0.000000000000
 -3037.025360372   0.000000000000
 -3037.024765969   0.000000000000
 -3037.024071499   0.000000000000
   CI-PROBLEM SOLVED
   DENSITIES MADE
   E(CAS)= -3037.172469558 Eh DE=   -4.259800e-06
   --- Energy gap subspaces: Ext-Act = 0.121   Act-Int = 0.070
   N(occ)=  1.00000 1.00000 1.00000 1.00000 1.00000
   ||g|| =     3.238964e-03 Max(G)=    4.552335e-04 Rot=148,141
   --- Orbital Update [SuperCI(PT)]
   --- Canonicalize Internal Space
   --- Canonicalize External Space
   --- SX_PT (Skipped TA=0 IT=0): ||X|| =      0.001127615 Max(X)(148,141) =     -0.000652983 
   --- SFit(Active Orbitals)

MACRO-ITERATION  11: 
   --- Inactive Energy E0 = -3026.49395634 Eh
CI-ITERATION   0: 
 -3037.260583947   0.000000000000 (    0.00)
   CI-PROBLEM SOLVED
   DENSITIES MADE
CI-ITERATION   0: 
 -3037.123548871   0.000000000000 (    0.00)
 -3037.123545207   0.000000000000
 -3037.122837676   0.000000000000
 -3037.122635801   0.000000000000
 -3037.122551162   0.000000000000
 -3037.122413157   0.000000000000
 -3037.122055173   0.000000000000
 -3037.121472139   0.000000000000
 -3037.121347944   0.000000000000
 -3037.102385036   0.000000000000
 -3037.101701837   0.000000000000
 -3037.099957072   0.000000000000
 -3037.089653640   0.000000000000
 -3037.088155994   0.000000000000
 -3037.088077760   0.000000000000
 -3037.085877747   0.000000000000
 -3037.084890762   0.000000000000
 -3037.027761773   0.000000000000
 -3037.027147523   0.000000000000
 -3037.026731565   0.000000000000
 -3037.025609038   0.000000000000
 -3037.025370373   0.000000000000
 -3037.024778964   0.000000000000
 -3037.024083386   0.000000000000
   CI-PROBLEM SOLVED
   DENSITIES MADE
   E(CAS)= -3037.172470924 Eh DE=   -1.365969e-06
   --- Energy gap subspaces: Ext-Act = 0.121   Act-Int = 0.069
   N(occ)=  1.00000 1.00000 1.00000 1.00000 1.00000
   ||g|| =     2.231015e-03 Max(G)=    2.590651e-04 Rot=148,141
   --- Orbital Update [SuperCI(PT)]
   --- Canonicalize Internal Space
   --- Canonicalize External Space
   --- SX_PT (Skipped TA=0 IT=0): ||X|| =      0.000708623 Max(X)(148,141) =     -0.000359839 
   --- SFit(Active Orbitals)

MACRO-ITERATION  12: 
   --- Inactive Energy E0 = -3026.49469932 Eh
CI-ITERATION   0: 
 -3037.260585604   0.000000000000 (    0.00)
   CI-PROBLEM SOLVED
   DENSITIES MADE
CI-ITERATION   0: 
 -3037.123553724   0.000000000000 (    0.00)
 -3037.123549243   0.000000000000
 -3037.122838496   0.000000000000
 -3037.122638821   0.000000000000
 -3037.122553165   0.000000000000
 -3037.122414107   0.000000000000
 -3037.122054923   0.000000000000
 -3037.121471678   0.000000000000
 -3037.121347580   0.000000000000
 -3037.102387679   0.000000000000
 -3037.101706306   0.000000000000
 -3037.099952261   0.000000000000
 -3037.089658811   0.000000000000
 -3037.088156275   0.000000000000
 -3037.088077597   0.000000000000
 -3037.085871948   0.000000000000
 -3037.084888036   0.000000000000
 -3037.027759711   0.000000000000
 -3037.027145532   0.000000000000
 -3037.026729270   0.000000000000
 -3037.025606349   0.000000000000
 -3037.025365924   0.000000000000
 -3037.024774118   0.000000000000
 -3037.024078064   0.000000000000
   CI-PROBLEM SOLVED
   DENSITIES MADE
   E(CAS)= -3037.172471544 Eh DE=   -6.202113e-07
   --- Energy gap subspaces: Ext-Act = 0.121   Act-Int = 0.069
   N(occ)=  1.00000 1.00000 1.00000 1.00000 1.00000
   ||g|| =     6.965083e-04 Max(G)=    9.602204e-05 Rot=148,141
                     ---- THE CAS-SCF GRADIENT HAS CONVERGED ----
                            --- FINALIZING ORBITALS ---
                    ---- DOING ONE FINAL ITERATION FOR PRINTING ----
   --- Forming Natural Orbitals
   --- Canonicalize Internal Space
   --- Canonicalize External Space

MACRO-ITERATION  13: 
   --- Inactive Energy E0 = -3026.49469932 Eh
   --- All densities will be recomputed
CI-ITERATION   0: 
 -3037.260585604   0.000000000000 (    0.00)
   CI-PROBLEM SOLVED
   DENSITIES MADE
CI-ITERATION   0: 
 -3037.123553724   0.000000000000 (    0.00)
 -3037.123549242   0.000000000000
 -3037.122838495   0.000000000000
 -3037.122638821   0.000000000000
 -3037.122553165   0.000000000000
 -3037.122414107   0.000000000000
 -3037.122054923   0.000000000000
 -3037.121471678   0.000000000000
 -3037.121347580   0.000000000000
 -3037.102387679   0.000000000000
 -3037.101706306   0.000000000000
 -3037.099952261   0.000000000000
 -3037.089658811   0.000000000000
 -3037.088156275   0.000000000000
 -3037.088077597   0.000000000000
 -3037.085871948   0.000000000000
 -3037.084888035   0.000000000000
 -3037.027759711   0.000000000000
 -3037.027145531   0.000000000000
 -3037.026729270   0.000000000000
 -3037.025606349   0.000000000000
 -3037.025365924   0.000000000000
 -3037.024774118   0.000000000000
 -3037.024078064   0.000000000000
   CI-PROBLEM SOLVED
   DENSITIES MADE
   E(CAS)= -3037.172471544 Eh DE=    2.955858e-11
   --- Energy gap subspaces: Ext-Act = 0.110   Act-Int = 0.053
   N(occ)=  1.00000 1.00000 1.00000 1.00000 1.00000
   ||g|| =     6.965083e-04 Max(G)=    1.087576e-04 Rot=148,141
--------------
CASSCF RESULTS
--------------

Final CASSCF energy       : -3037.172471544 Eh  -82645.6646 eV

----------------
ORBITAL ENERGIES
----------------

  NO   OCC          E(Eh)            E(eV) 
   0   2.0000    -240.573676     -6546.3425 
   1   2.0000     -29.146816      -793.1252 
   2   2.0000     -24.852417      -676.2686 
   3   2.0000     -24.851583      -676.2460 
   4   2.0000     -24.851383      -676.2405 
   5   2.0000      -4.729352      -128.6922 
   6   2.0000      -4.729297      -128.6907 
   7   2.0000      -4.719204      -128.4161 
   8   2.0000      -4.719111      -128.4135 
   9   2.0000      -4.714942      -128.3001 
  10   2.0000      -4.714920      -128.2995 
  11   2.0000      -4.713460      -128.2598 
  12   2.0000      -4.713271      -128.2546 
  13   2.0000      -4.712664      -128.2381 
  14   2.0000      -4.712645      -128.2376 
  15   2.0000      -4.706135      -128.0605 
  16   2.0000      -4.706025      -128.0575 
  17   2.0000      -4.705442      -128.0416 
  18   2.0000      -4.705163      -128.0340 
  19   2.0000      -3.851365      -104.8010 
  20   2.0000      -2.768212       -75.3269 
  21   2.0000      -2.768150       -75.3252 
  22   2.0000      -2.765990       -75.2664 
  23   2.0000      -2.765908       -75.2642 
  24   2.0000      -2.763978       -75.2117 
  25   2.0000      -2.763951       -75.2109 
  26   2.0000      -2.757437       -75.0337 
  27   2.0000      -2.757348       -75.0313 
  28   2.0000      -2.756072       -74.9965 
  29   2.0000      -2.755781       -74.9886 
  30   2.0000      -2.752834       -74.9084 
  31   2.0000      -2.752568       -74.9012 
  32   2.0000      -2.752347       -74.8952 
  33   2.0000      -2.752257       -74.8927 
  34   2.0000      -2.752057       -74.8873 
  35   2.0000      -2.751102       -74.8613 
  36   2.0000      -2.750581       -74.8471 
  37   2.0000      -2.750421       -74.8428 
  38   2.0000      -2.750168       -74.8359 
  39   2.0000      -2.749884       -74.8282 
  40   2.0000      -2.749843       -74.8270 
  41   2.0000      -2.749262       -74.8112 
  42   2.0000      -2.749105       -74.8070 
  43   2.0000      -2.748318       -74.7855 
  44   2.0000      -2.748241       -74.7834 
  45   2.0000      -2.747160       -74.7540 
  46   2.0000      -2.746984       -74.7492 
  47   2.0000      -2.746751       -74.7429 
  48   2.0000      -2.745023       -74.6959 
  49   2.0000      -2.744725       -74.6878 
  50   2.0000      -2.743651       -74.6585 
  51   2.0000      -2.743139       -74.6446 
  52   2.0000      -2.741026       -74.5871 
  53   2.0000      -2.740866       -74.5828 
  54   2.0000      -2.740724       -74.5789 
  55   2.0000      -2.740662       -74.5772 
  56   2.0000      -2.740256       -74.5662 
  57   2.0000      -2.740146       -74.5632 
  58   2.0000      -2.739830       -74.5546 
  59   2.0000      -2.739448       -74.5442 
  60   2.0000      -2.738269       -74.5121 
  61   2.0000      -2.738080       -74.5069 
  62   2.0000      -2.519962       -68.5717 
  63   2.0000      -2.519657       -68.5633 
  64   2.0000      -2.518770       -68.5392 
  65   2.0000      -0.570690       -15.5293 
  66   2.0000      -0.560211       -15.2441 
  67   2.0000      -0.559667       -15.2293 
  68   2.0000      -0.554288       -15.0829 
  69   2.0000      -0.551875       -15.0173 
  70   2.0000      -0.550967       -14.9926 
  71   2.0000      -0.549616       -14.9558 
  72   2.0000      -0.545710       -14.8495 
  73   2.0000      -0.544947       -14.8288 
  74   2.0000      -0.543599       -14.7921 
  75   2.0000      -0.543293       -14.7837 
  76   2.0000      -0.539812       -14.6890 
  77   2.0000      -0.539060       -14.6686 
  78   2.0000      -0.535403       -14.5691 
  79   2.0000      -0.534531       -14.5453 
  80   2.0000      -0.533934       -14.5291 
  81   2.0000      -0.531650       -14.4669 
  82   2.0000      -0.525778       -14.3072 
  83   2.0000      -0.525553       -14.3010 
  84   2.0000      -0.523834       -14.2542 
  85   2.0000      -0.523023       -14.2322 
  86   2.0000      -0.518458       -14.1079 
  87   2.0000      -0.515523       -14.0281 
  88   2.0000      -0.514821       -14.0090 
  89   2.0000      -0.512630       -13.9494 
  90   2.0000      -0.509661       -13.8686 
  91   2.0000      -0.509144       -13.8545 
  92   2.0000      -0.508113       -13.8265 
  93   2.0000      -0.501071       -13.6348 
  94   2.0000      -0.499847       -13.6015 
  95   2.0000      -0.493699       -13.4342 
  96   2.0000      -0.491237       -13.3672 
  97   2.0000      -0.489548       -13.3213 
  98   2.0000      -0.487648       -13.2696 
  99   2.0000      -0.482324       -13.1247 
 100   2.0000      -0.478812       -13.0291 
 101   2.0000      -0.474329       -12.9072 
 102   2.0000      -0.471457       -12.8290 
 103   2.0000      -0.471060       -12.8182 
 104   2.0000      -0.470094       -12.7919 
 105   2.0000      -0.469353       -12.7717 
 106   2.0000      -0.464125       -12.6295 
 107   2.0000      -0.462554       -12.5867 
 108   2.0000      -0.460792       -12.5388 
 109   2.0000      -0.457341       -12.4449 
 110   2.0000      -0.455149       -12.3852 
 111   2.0000      -0.454729       -12.3738 
 112   2.0000      -0.453000       -12.3268 
 113   2.0000      -0.448992       -12.2177 
 114   2.0000      -0.446202       -12.1418 
 115   2.0000      -0.445658       -12.1270 
 116   2.0000      -0.441975       -12.0267 
 117   2.0000      -0.441735       -12.0202 
 118   2.0000      -0.438395       -11.9293 
 119   2.0000      -0.437775       -11.9125 
 120   2.0000      -0.436536       -11.8788 
 121   2.0000      -0.433871       -11.8062 
 122   2.0000      -0.431698       -11.7471 
 123   2.0000      -0.431479       -11.7411 
 124   2.0000      -0.426142       -11.5959 
 125   2.0000      -0.424394       -11.5484 
 126   2.0000      -0.424233       -11.5440 
 127   2.0000      -0.423023       -11.5110 
 128   2.0000      -0.418779       -11.3956 
 129   2.0000      -0.417862       -11.3706 
 130   2.0000      -0.415996       -11.3198 
 131   2.0000      -0.413741       -11.2585 
 132   2.0000      -0.406697       -11.0668 
 133   2.0000      -0.406295       -11.0558 
 134   2.0000      -0.398168       -10.8347 
 135   2.0000      -0.385381       -10.4867 
 136   2.0000      -0.373488       -10.1631 
 137   2.0000      -0.358946        -9.7674 
 138   2.0000      -0.348644        -9.4871 
 139   2.0000      -0.254257        -6.9187 
 140   2.0000      -0.246233        -6.7003 
 141   2.0000      -0.233443        -6.3523 
 142   2.0000      -0.226030        -6.1506 
 143   1.0000      -0.173466        -4.7202 
 144   1.0000      -0.173246        -4.7143 
 145   1.0000      -0.160388        -4.3644 
 146   1.0000      -0.165052        -4.4913 
 147   1.0000      -0.171947        -4.6789 
 148   0.0000      -0.049981        -1.3601 
 149   0.0000      -0.022798        -0.6204 
 150   0.0000      -0.000619        -0.0168 
 151   0.0000      -0.000053        -0.0014 
 152   0.0000       0.002520         0.0686 
 153   0.0000       0.008479         0.2307 
 154   0.0000       0.020647         0.5618 
 155   0.0000       0.036407         0.9907 
 156   0.0000       0.042309         1.1513 
 157   0.0000       0.043269         1.1774 
 158   0.0000       0.053893         1.4665 
 159   0.0000       0.059220         1.6115 
 160   0.0000       0.086162         2.3446 
 161   0.0000       0.091592         2.4923 
 162   0.0000       0.094461         2.5704 
 163   0.0000       0.099593         2.7101 
 164   0.0000       0.102235         2.7820 
 165   0.0000       0.104365         2.8399 
 166   0.0000       0.109619         2.9829 
 167   0.0000       0.114368         3.1121 
 168   0.0000       0.120084         3.2676 
 169   0.0000       0.123274         3.3545 
 170   0.0000       0.128730         3.5029 
 171   0.0000       0.135200         3.6790 
 172   0.0000       0.139710         3.8017 
 173   0.0000       0.142728         3.8838 
 174   0.0000       0.150453         4.0940 
 175   0.0000       0.151604         4.1254 
 176   0.0000       0.152240         4.1427 
 177   0.0000       0.154551         4.2056 
 178   0.0000       0.160523         4.3681 
 179   0.0000       0.161892         4.4053 
 180   0.0000       0.180142         4.9019 
 181   0.0000       0.182179         4.9573 
 182   0.0000       0.188238         5.1222 
 183   0.0000       0.188379         5.1261 
 184   0.0000       0.191069         5.1993 
 185   0.0000       0.191487         5.2106 
 186   0.0000       0.193089         5.2542 
 187   0.0000       0.197784         5.3820 
 188   0.0000       0.200734         5.4622 
 189   0.0000       0.208530         5.6744 
 190   0.0000       0.209695         5.7061 
 191   0.0000       0.219344         5.9687 
 192   0.0000       0.227019         6.1775 
 193   0.0000       0.243191         6.6176 
 194   0.0000       0.244909         6.6643 
 195   0.0000       0.250566         6.8182 
 196   0.0000       0.257943         7.0190 
 197   0.0000       0.258200         7.0260 
 198   0.0000       0.266127         7.2417 
 199   0.0000       0.277141         7.5414 
 200   0.0000       0.287374         7.8199 
 201   0.0000       0.293278         7.9805 
 202   0.0000       0.294932         8.0255 
 203   0.0000       0.300026         8.1641 
 204   0.0000       0.312295         8.4980 
 205   0.0000       0.335858         9.1392 
 206   0.0000       0.352583         9.5943 
 207   0.0000       0.359649         9.7866 
 208   0.0000       0.362548         9.8654 
 209   0.0000       0.372003        10.1227 
 210   0.0000       0.374786        10.1985 
 211   0.0000       0.387860        10.5542 
 212   0.0000       0.389903        10.6098 
 213   0.0000       0.409147        11.1334 
 214   0.0000       0.410444        11.1688 
 215   0.0000       0.413351        11.2479 
 216   0.0000       0.416509        11.3338 
 217   0.0000       0.419569        11.4170 
 218   0.0000       0.421691        11.4748 
 219   0.0000       0.423583        11.5263 
 220   0.0000       0.425087        11.5672 
 221   0.0000       0.428674        11.6648 
 222   0.0000       0.442224        12.0335 
 223   0.0000       0.444865        12.1054 
 224   0.0000       0.456210        12.4141 
 225   0.0000       0.460422        12.5287 
 226   0.0000       0.468915        12.7598 
 227   0.0000       0.475531        12.9398 
 228   0.0000       0.481737        13.1087 
 229   0.0000       0.484533        13.1848 
 230   0.0000       0.485922        13.2226 
 231   0.0000       0.492824        13.4104 
 232   0.0000       0.497726        13.5438 
 233   0.0000       0.498633        13.5685 
 234   0.0000       0.499370        13.5885 
 235   0.0000       0.500567        13.6211 
 236   0.0000       0.507530        13.8106 
 237   0.0000       0.516064        14.0428 
 238   0.0000       0.519352        14.1323 
 239   0.0000       0.524042        14.2599 
 240   0.0000       0.527952        14.3663 
 241   0.0000       0.533414        14.5149 
 242   0.0000       0.537630        14.6297 
 243   0.0000       0.540560        14.7094 
 244   0.0000       0.545744        14.8505 
 245   0.0000       0.548415        14.9231 
 246   0.0000       0.561945        15.2913 
 247   0.0000       0.568680        15.4746 
 248   0.0000       0.574120        15.6226 
 249   0.0000       0.574972        15.6458 
 250   0.0000       0.583072        15.8662 
 251   0.0000       0.588493        16.0137 
 252   0.0000       0.589791        16.0490 
 253   0.0000       0.593206        16.1420 
 254   0.0000       0.600340        16.3361 
 255   0.0000       0.601897        16.3784 
 256   0.0000       0.607451        16.5296 
 257   0.0000       0.610638        16.6163 
 258   0.0000       0.610818        16.6212 
 259   0.0000       0.612860        16.6768 
 260   0.0000       0.622420        16.9369 
 261   0.0000       0.630338        17.1524 
 262   0.0000       0.632276        17.2051 
 263   0.0000       0.638759        17.3815 
 264   0.0000       0.641256        17.4495 
 265   0.0000       0.653337        17.7782 
 266   0.0000       0.653954        17.7950 
 267   0.0000       0.660255        17.9664 
 268   0.0000       0.662506        18.0277 
 269   0.0000       0.674404        18.3515 
 270   0.0000       0.676006        18.3951 
 271   0.0000       0.680447        18.5159 
 272   0.0000       0.684500        18.6262 
 273   0.0000       0.692458        18.8427 
 274   0.0000       0.693310        18.8659 
 275   0.0000       0.700516        19.0620 
 276   0.0000       0.703641        19.1470 
 277   0.0000       0.705408        19.1951 
 278   0.0000       0.710873        19.3438 
 279   0.0000       0.713546        19.4166 
 280   0.0000       0.717919        19.5356 
 281   0.0000       0.722067        19.6484 
 282   0.0000       0.733764        19.9667 
 283   0.0000       0.734811        19.9952 
 284   0.0000       0.737120        20.0580 
 285   0.0000       0.739535        20.1238 
 286   0.0000       0.746607        20.3162 
 287   0.0000       0.766034        20.8448 
 288   0.0000       0.790219        21.5030 
 289   0.0000       0.794683        21.6244 
 290   0.0000       0.876315        23.8458 
 291   0.0000       0.899246        24.4697 
 292   0.0000       0.920997        25.0616 
 293   0.0000       0.947787        25.7906 
 294   0.0000       0.953454        25.9448 
 295   0.0000       0.961755        26.1707 
 296   0.0000       0.984733        26.7959 
 297   0.0000       0.989470        26.9248 
 298   0.0000       0.991030        26.9673 
 299   0.0000       1.000321        27.2201 
 300   0.0000       1.005423        27.3590 
 301   0.0000       1.023925        27.8624 
 302   0.0000       1.029273        28.0079 
 303   0.0000       1.043177        28.3863 
 304   0.0000       1.054890        28.7050 
 305   0.0000       1.056165        28.7397 
 306   0.0000       1.069065        29.0907 
 307   0.0000       1.084120        29.5004 
 308   0.0000       1.087583        29.5946 
 309   0.0000       1.096775        29.8448 
 310   0.0000       1.097639        29.8683 
 311   0.0000       1.118990        30.4493 
 312   0.0000       1.124448        30.5978 
 313   0.0000       1.128436        30.7063 
 314   0.0000       1.131295        30.7841 
 315   0.0000       1.143911        31.1274 
 316   0.0000       1.153713        31.3941 
 317   0.0000       1.161402        31.6033 
 318   0.0000       1.170208        31.8430 
 319   0.0000       1.171623        31.8815 
 320   0.0000       1.198746        32.6195 
 321   0.0000       1.200990        32.6806 
 322   0.0000       1.213005        33.0075 
 323   0.0000       1.214983        33.0614 
 324   0.0000       1.218014        33.1438 
 325   0.0000       1.226984        33.3879 
 326   0.0000       1.230912        33.4948 
 327   0.0000       1.247491        33.9459 
 328   0.0000       1.247822        33.9550 
 329   0.0000       1.272105        34.6157 
 330   0.0000       1.286368        35.0038 
 331   0.0000       1.286496        35.0073 
 332   0.0000       1.346181        36.6314 
 333   0.0000       1.362429        37.0736 
 334   0.0000       1.441107        39.2145 
 335   0.0000       1.442234        39.2452 
 336   0.0000       1.538092        41.8536 
 337   0.0000       1.561260        42.4840 
 338   0.0000       1.573730        42.8234 
 339   0.0000       1.588815        43.2339 
 340   0.0000       1.593576        43.3634 
 341   0.0000       1.611480        43.8506 
 342   0.0000       1.614163        43.9236 
 343   0.0000       1.630545        44.3694 
 344   0.0000       1.637589        44.5611 
 345   0.0000       1.645172        44.7674 
 346   0.0000       1.648042        44.8455 
 347   0.0000       1.657053        45.0907 
 348   0.0000       1.662125        45.2287 
 349   0.0000       1.673907        45.5493 
 350   0.0000       1.677488        45.6468 
 351   0.0000       1.686031        45.8792 
 352   0.0000       1.691113        46.0175 
 353   0.0000       1.691869        46.0381 
 354   0.0000       1.704122        46.3715 
 355   0.0000       1.711874        46.5825 
 356   0.0000       1.713793        46.6347 
 357   0.0000       1.721636        46.8481 
 358   0.0000       1.736024        47.2396 
 359   0.0000       1.749143        47.5966 
 360   0.0000       1.751897        47.6715 
 361   0.0000       1.752178        47.6792 
 362   0.0000       1.768143        48.1136 
 363   0.0000       1.769817        48.1592 
 364   0.0000       1.771545        48.2062 
 365   0.0000       1.782154        48.4949 
 366   0.0000       1.785882        48.5963 
 367   0.0000       1.788509        48.6678 
 368   0.0000       1.790839        48.7312 
 369   0.0000       1.793509        48.8039 
 370   0.0000       1.799085        48.9556 
 371   0.0000       1.800148        48.9845 
 372   0.0000       1.804730        49.1092 
 373   0.0000       1.810823        49.2750 
 374   0.0000       1.812633        49.3243 
 375   0.0000       1.815334        49.3977 
 376   0.0000       1.819854        49.5207 
 377   0.0000       1.822262        49.5863 
 378   0.0000       1.823868        49.6300 
 379   0.0000       1.828461        49.7550 
 380   0.0000       1.833084        49.8807 
 381   0.0000       1.834447        49.9179 
 382   0.0000       1.838181        50.0195 
 383   0.0000       1.841456        50.1086 
 384   0.0000       1.846057        50.2338 
 385   0.0000       1.852788        50.4169 
 386   0.0000       1.854944        50.4756 
 387   0.0000       1.859258        50.5930 
 388   0.0000       1.859323        50.5948 
 389   0.0000       1.861955        50.6664 
 390   0.0000       1.863801        50.7166 
 391   0.0000       1.865692        50.7681 
 392   0.0000       1.866717        50.7960 
 393   0.0000       1.867751        50.8241 
 394   0.0000       1.869790        50.8796 
 395   0.0000       1.869891        50.8823 
 396   0.0000       1.872452        50.9520 
 397   0.0000       1.874062        50.9958 
 398   0.0000       1.875328        51.0303 
 399   0.0000       1.875572        51.0369 
 400   0.0000       1.877605        51.0922 
 401   0.0000       1.878984        51.1297 
 402   0.0000       1.879487        51.1434 
 403   0.0000       1.880686        51.1761 
 404   0.0000       1.882424        51.2234 
 405   0.0000       1.887087        51.3502 
 406   0.0000       1.888151        51.3792 
 407   0.0000       1.888257        51.3821 
 408   0.0000       1.889262        51.4094 
 409   0.0000       1.890826        51.4520 
 410   0.0000       1.891055        51.4582 
 411   0.0000       1.894769        51.5593 
 412   0.0000       1.896797        51.6145 
 413   0.0000       1.898375        51.6574 
 414   0.0000       1.898975        51.6737 
 415   0.0000       1.900069        51.7035 
 416   0.0000       1.901971        51.7553 
 417   0.0000       1.902703        51.7752 
 418   0.0000       1.904061        51.8121 
 419   0.0000       1.905208        51.8433 
 420   0.0000       1.908501        51.9329 
 421   0.0000       1.908776        51.9404 
 422   0.0000       1.911177        52.0058 
 423   0.0000       1.913074        52.0574 
 424   0.0000       1.913371        52.0655 
 425   0.0000       1.915154        52.1140 
 426   0.0000       1.916776        52.1581 
 427   0.0000       1.919457        52.2311 
 428   0.0000       1.921067        52.2749 
[...]
      dyz     :     1.979393
      dx2y2   :     1.982618
      dxy     :     1.988831
      f0      :     0.000817  f :     0.003781
      f+1     :     0.000637
      f-1     :     0.000562
      f+2     :     0.000478
      f-2     :     0.000296
      f+3     :     0.000405
      f-3     :     0.000586
  8 Aus       :     2.573357  s :     2.573357
      pz      :     2.188998  p :     6.360133
      px      :     2.071468
      py      :     2.099667
      dz2     :     1.993624  d :     9.947744
      dxz     :     1.995390
      dyz     :     1.988337
      dx2y2   :     1.984913
      dxy     :     1.985481
      f0      :     0.000460  f :     0.003806
      f+1     :     0.000707
      f-1     :     0.000381
      f+2     :     0.000841
      f-2     :     0.000566
      f+3     :     0.000452
      f-3     :     0.000399
  9 Aus       :     2.419027  s :     2.419027
      pz      :     2.153128  p :     6.657150
      px      :     2.339925
      py      :     2.164096
      dz2     :     1.997340  d :     9.991735
      dxz     :     2.005834
      dyz     :     1.975288
      dx2y2   :     2.002119
      dxy     :     2.011155
      f0      :     0.000570  f :     0.005673
      f+1     :     0.000963
      f-1     :     0.000519
      f+2     :     0.000827
      f-2     :     0.000692
      f+3     :     0.001139
      f-3     :     0.000964
 10 Aus       :     2.546410  s :     2.546410
      pz      :     2.104265  p :     6.439364
      px      :     2.113425
      py      :     2.221673
      dz2     :     1.981622  d :     9.970945
      dxz     :     1.984681
      dyz     :     2.004902
      dx2y2   :     2.002477
      dxy     :     1.997264
      f0      :     0.000412  f :     0.003923
      f+1     :     0.000482
      f-1     :     0.000481
      f+2     :     0.000516
      f-2     :     0.000592
      f+3     :     0.000771
      f-3     :     0.000670
 11 Aus       :     2.464728  s :     2.464728
      pz      :     2.148991  p :     6.496151
      px      :     2.101309
      py      :     2.245851
      dz2     :     2.006858  d :    10.010981
      dxz     :     1.994731
      dyz     :     2.008415
      dx2y2   :     2.000282
      dxy     :     2.000696
      f0      :     0.000720  f :     0.004815
      f+1     :     0.000662
      f-1     :     0.000634
      f+2     :     0.000621
      f-2     :     0.000599
      f+3     :     0.000787
      f-3     :     0.000792
 12 Aus       :     2.489407  s :     2.489407
      pz      :     2.092678  p :     6.529761
      px      :     2.247807
      py      :     2.189277
      dz2     :     2.004356  d :    10.005433
      dxz     :     2.008035
      dyz     :     2.006000
      dx2y2   :     1.992643
      dxy     :     1.994398
      f0      :     0.000543  f :     0.004550
      f+1     :     0.000778
      f-1     :     0.000490
      f+2     :     0.000619
      f-2     :     0.000814
      f+3     :     0.000686
      f-3     :     0.000621
 13 Aus       :     2.566673  s :     2.566673
      pz      :     2.256603  p :     6.505282
      px      :     2.158772
      py      :     2.089907
      dz2     :     1.991661  d :     9.958662
      dxz     :     1.990710
      dyz     :     1.993029
      dx2y2   :     1.985392
      dxy     :     1.997870
      f0      :     0.000874  f :     0.004237
      f+1     :     0.000734
      f-1     :     0.000675
      f+2     :     0.000431
      f-2     :     0.000607
      f+3     :     0.000468
      f-3     :     0.000448
 14 Mns       :     6.269217  s :     6.269217
      pz      :     4.195738  p :    12.524345
      px      :     4.101090
      py      :     4.227517
      dz2     :     1.294182  d :     6.243596
      dxz     :     1.201767
      dyz     :     1.322900
      dx2y2   :     1.199041
      dxy     :     1.225706
      f0      :     0.000114  f :     0.000629
      f+1     :     0.000063
      f-1     :     0.000087
      f+2     :     0.000125
      f-2     :     0.000088
      f+3     :     0.000057
      f-3     :     0.000094

SPIN
  0 Aus       :     0.001067  s :     0.001067
      pz      :     0.001076  p :     0.003317
      px      :     0.001757
      py      :     0.000484
      dz2     :     0.000665  d :     0.007275
      dxz     :     0.002911
      dyz     :     0.001251
      dx2y2   :     0.000561
      dxy     :     0.001887
      f0      :     0.000013  f :     0.000117
      f+1     :     0.000020
      f-1     :     0.000007
      f+2     :     0.000017
      f-2     :     0.000039
      f+3     :     0.000008
      f-3     :     0.000013
  1 Aus       :     0.002068  s :     0.002068
      pz      :     0.001417  p :     0.002295
      px      :     0.000527
      py      :     0.000351
      dz2     :     0.000347  d :     0.001439
      dxz     :     0.000173
      dyz     :     0.000047
      dx2y2   :     0.000194
      dxy     :     0.000678
      f0      :     0.000000  f :     0.000006
      f+1     :     0.000001
      f-1     :     0.000002
      f+2     :     0.000000
      f-2     :     0.000000
      f+3     :     0.000003
      f-3     :     0.000000
  2 Aus       :     0.001356  s :     0.001356
      pz      :     0.000766  p :     0.002065
      px      :     0.000109
      py      :     0.001189
      dz2     :     0.000100  d :     0.000587
      dxz     :     0.000070
      dyz     :     0.000165
      dx2y2   :     0.000208
      dxy     :     0.000044
      f0      :     0.000000  f :     0.000003
      f+1     :     0.000001
      f-1     :     0.000000
      f+2     :     0.000000
      f-2     :     0.000001
      f+3     :     0.000001
      f-3     :     0.000000
  3 Aus       :     0.002069  s :     0.002069
      pz      :     0.000986  p :     0.002295
      px      :     0.000870
      py      :     0.000439
      dz2     :     0.000314  d :     0.001505
      dxz     :     0.000262
      dyz     :     0.000089
      dx2y2   :     0.000146
      dxy     :     0.000693
      f0      :     0.000001  f :     0.000007
      f+1     :     0.000001
      f-1     :     0.000001
      f+2     :     0.000001
      f-2     :     0.000001
      f+3     :     0.000000
      f-3     :     0.000002
  4 Aus       :     0.002147  s :     0.002147
      pz      :     0.000671  p :     0.002609
      px      :     0.000522
      py      :     0.001416
      dz2     :     0.000937  d :     0.008096
      dxz     :     0.000434
      dyz     :     0.002230
      dx2y2   :     0.002830
      dxy     :     0.001665
      f0      :     0.000014  f :     0.000134
      f+1     :     0.000000
      f-1     :     0.000016
      f+2     :     0.000041
      f-2     :     0.000012
      f+3     :     0.000022
      f-3     :     0.000028
  5 Aus       :     0.002084  s :     0.002084
      pz      :     0.000541  p :     0.002749
      px      :     0.000805
      py      :     0.001403
      dz2     :     0.000048  d :     0.000937
      dxz     :     0.000396
      dyz     :     0.000197
      dx2y2   :     0.000055
      dxy     :     0.000240
      f0      :     0.000001  f :     0.000004
      f+1     :     0.000000
      f-1     :     0.000001
      f+2     :     0.000000
      f-2     :     0.000001
      f+3     :     0.000000
      f-3     :     0.000000
  6 Aus       :     0.001744  s :     0.001744
      pz      :     0.001241  p :     0.002545
      px      :     0.000373
      py      :     0.000930
      dz2     :     0.003766  d :     0.005958
      dxz     :     0.001313
      dyz     :     0.000723
      dx2y2   :     0.000053
      dxy     :     0.000102
      f0      :     0.000061  f :     0.000083
      f+1     :     0.000014
      f-1     :     0.000007
      f+2     :     0.000000
      f-2     :     0.000000
      f+3     :     0.000001
      f-3     :     0.000000
  7 Aus       :     0.001648  s :     0.001648
      pz      :     0.000945  p :     0.001897
      px      :     0.000129
      py      :     0.000823
      dz2     :     0.000756  d :     0.006881
      dxz     :     0.000503
      dyz     :     0.002592
      dx2y2   :     0.001701
      dxy     :     0.001330
      f0      :     0.000020  f :     0.000120
      f+1     :     0.000001
      f-1     :     0.000015
      f+2     :     0.000037
      f-2     :     0.000018
      f+3     :     0.000014
      f-3     :     0.000016
  8 Aus       :     0.001647  s :     0.001647
      pz      :     0.000894  p :     0.001898
      px      :     0.000225
      py      :     0.000779
      dz2     :     0.000919  d :     0.006811
      dxz     :     0.000800
      dyz     :     0.001287
      dx2y2   :     0.001670
      dxy     :     0.002135
      f0      :     0.000015  f :     0.000118
      f+1     :     0.000010
      f-1     :     0.000009
      f+2     :     0.000005
      f-2     :     0.000027
      f+3     :     0.000023
      f-3     :     0.000031
  9 Aus       :     0.001060  s :     0.001060
      pz      :     0.001493  p :     0.003320
      px      :     0.001026
      py      :     0.000801
      dz2     :     0.001980  d :     0.007317
      dxz     :     0.000783
      dyz     :     0.002991
      dx2y2   :     0.001118
      dxy     :     0.000446
      f0      :     0.000016  f :     0.000119
      f+1     :     0.000007
      f-1     :     0.000048
      f+2     :     0.000026
      f-2     :     0.000014
      f+3     :     0.000003
      f-3     :     0.000005
 10 Aus       :     0.001749  s :     0.001749
      pz      :     0.001557  p :     0.002533
      px      :     0.000189
      py      :     0.000786
      dz2     :     0.002432  d :     0.005994
      dxz     :     0.002429
      dyz     :     0.000742
      dx2y2   :     0.000200
      dxy     :     0.000191
      f0      :     0.000016  f :     0.000084
      f+1     :     0.000041
      f-1     :     0.000007
      f+2     :     0.000013
      f-2     :     0.000006
      f+3     :     0.000001
      f-3     :     0.000001
 11 Aus       :     0.001351  s :     0.001351
      pz      :     0.000602  p :     0.002075
      px      :     0.000257
      py      :     0.001216
      dz2     :     0.000029  d :     0.000591
      dxz     :     0.000191
      dyz     :     0.000127
      dx2y2   :     0.000133
      dxy     :     0.000111
      f0      :     0.000001  f :     0.000003
      f+1     :     0.000000
      f-1     :     0.000001
      f+2     :     0.000000
      f-2     :     0.000000
      f+3     :     0.000000
      f-3     :     0.000000
 12 Aus       :     0.002083  s :     0.002083
      pz      :     0.000451  p :     0.002744
      px      :     0.000864
      py      :     0.001428
      dz2     :     0.000383  d :     0.000954
      dxz     :     0.000201
      dyz     :     0.000157
      dx2y2   :     0.000089
      dxy     :     0.000123
      f0      :     0.000001  f :     0.000004
      f+1     :     0.000001
      f-1     :     0.000001
      f+2     :     0.000000
      f-2     :     0.000000
      f+3     :     0.000000
      f-3     :     0.000000
 13 Aus       :     0.002133  s :     0.002133
      pz      :     0.001083  p :     0.002600
      px      :     0.000360
      py      :     0.001158
      dz2     :     0.001228  d :     0.008095
      dxz     :     0.000476
      dyz     :     0.002070
      dx2y2   :     0.002909
      dxy     :     0.001412
      f0      :     0.000017  f :     0.000135
      f+1     :     0.000000
      f-1     :     0.000017
      f+2     :     0.000036
      f-2     :     0.000010
      f+3     :     0.000018
      f-3     :     0.000036
 14 Mns       :     0.001832  s :     0.001832
      pz      :     0.000243  p :     0.000827
      px      :     0.000139
      py      :     0.000445
      dz2     :     0.772917  d :     3.874811
      dxz     :     0.780325
      dyz     :     0.765744
      dx2y2   :     0.777433
      dxy     :     0.778393
      f0      :     0.000000  f :     0.000003
      f+1     :     0.000001
      f-1     :     0.000000
      f+2     :     0.000000
      f-2     :     0.000000
      f+3     :     0.000001
      f-3     :     0.000001


                      *****************************
                      * MAYER POPULATION ANALYSIS *
                      *****************************

  NA   - Mulliken gross atomic population
  ZA   - Total nuclear charge
  QA   - Mulliken gross atomic charge
  VA   - Mayer's total valence
  BVA  - Mayer's bonded valence
  FA   - Mayer's free valence

  ATOM       NA         ZA         QA         VA         BVA        FA
  0 Au    19.1263    19.0000    -0.1263     1.9995     1.9959     0.0036
  1 Au    19.0303    19.0000    -0.0303     1.4495     1.4475     0.0020
  2 Au    18.8510    19.0000     0.1490     1.4537     1.4522     0.0015
  3 Au    19.0362    19.0000    -0.0362     1.4563     1.4543     0.0020
  4 Au    18.9628    19.0000     0.0372     1.5130     1.5085     0.0045
  5 Au    18.8835    19.0000     0.1165     1.5172     1.5153     0.0019
  6 Au    18.7873    19.0000     0.2127     1.3655     1.3623     0.0032
  7 Au    18.6714    19.0000     0.3286     1.2686     1.2651     0.0036
  8 Au    18.6702    19.0000     0.3298     1.2680     1.2644     0.0035
  9 Au    19.1270    19.0000    -0.1270     2.0012     1.9976     0.0036
 10 Au    18.7882    19.0000     0.2118     1.3658     1.3625     0.0032
 11 Au    18.8539    19.0000     0.1461     1.4591     1.4576     0.0015
 12 Au    18.8829    19.0000     0.1171     1.5185     1.5166     0.0019
 13 Au    18.9559    19.0000     0.0441     1.5072     1.5027     0.0045
 14 Mn    26.3728    25.0000    -1.3728     8.8754     4.0565     4.8189

  Mayer bond orders larger than 0.100000
B(  0-Au,  2-Au) :   0.4475 B(  0-Au,  3-Au) :   0.2797 B(  0-Au,  5-Au) :   0.1736 
B(  0-Au,  6-Au) :   0.2632 B(  0-Au,  7-Au) :   0.2569 B(  0-Au, 14-Mn) :   0.4229 
B(  1-Au,  2-Au) :   0.1775 B(  1-Au,  4-Au) :   0.1679 B(  1-Au,  5-Au) :   0.2627 
B(  1-Au,  9-Au) :   0.2808 B(  1-Au, 11-Au) :   0.2756 B(  1-Au, 14-Mn) :   0.1680 
B(  2-Au,  3-Au) :   0.2768 B(  2-Au,  5-Au) :   0.2916 B(  3-Au, 11-Au) :   0.1793 
B(  3-Au, 12-Au) :   0.2626 B(  3-Au, 13-Au) :   0.1679 B(  3-Au, 14-Mn) :   0.1726 
B(  4-Au,  5-Au) :   0.2221 B(  4-Au,  6-Au) :   0.1280 B(  4-Au,  8-Au) :   0.2631 
B(  4-Au, 14-Mn) :   0.4897 B(  5-Au,  6-Au) :   0.2445 B(  5-Au, 14-Mn) :   0.1609 
B(  6-Au,  7-Au) :   0.1904 B(  6-Au, 14-Mn) :   0.3249 B(  7-Au, 13-Au) :   0.2614 
B(  7-Au, 14-Mn) :   0.3840 B(  8-Au,  9-Au) :   0.2564 B(  8-Au, 10-Au) :   0.1918 
B(  8-Au, 14-Mn) :   0.3812 B(  9-Au, 10-Au) :   0.2607 B(  9-Au, 11-Au) :   0.4498 
B(  9-Au, 12-Au) :   0.1725 B(  9-Au, 14-Mn) :   0.4244 B( 10-Au, 12-Au) :   0.2449 
B( 10-Au, 13-Au) :   0.1266 B( 10-Au, 14-Mn) :   0.3266 B( 11-Au, 12-Au) :   0.2925 
B( 12-Au, 13-Au) :   0.2208 B( 12-Au, 14-Mn) :   0.1625 B( 13-Au, 14-Mn) :   0.4895 



-------------------------------------------------------------
 Forming the transition density       ... done in 0.023561 sec
-------------------------------------------------------------



==========================================
CASSCF UV, CD spectra and dipole moments
==========================================
-------------------
ABSORPTION SPECTRUM
-------------------

Center of mass           = ( 14.5522, 13.9945, 14.7793)
Nuclear contribution to the dipole moment =    34.591602,    6.795746,   -8.926737 au

Calculating the Dipole integrals                  ... done
Transforming integrals                            ... done
Calculating the Linear Momentum integrals         ... done
Transforming integrals                            ... done
Calculating the Angular Momentum integrals        ... done
Transforming integrals                            ... done

------------------------------------------------------------------------------
                                 DIPOLE MOMENTS
------------------------------------------------------------------------------
  Root  Block           TX        TY        TZ           |T|
                      (Debye)   (Debye)   (Debye)      (Debye)
------------------------------------------------------------------------------
    0    0            1.31719   0.25652  -0.34004      1.38435

--------------
CASSCF TIMINGS
--------------

Total time                       ...      341.5 sec
Sum of individual times          ...      332.7 sec ( 97.4%)

Calculation of AO operators
   F(Core) operator              ...      161.3 sec ( 47.2%)
   G(Act) operator               ...      145.1 sec ( 42.5%)
   J(AO) operators               ...        0.0 sec (  0.0%)
Calculation of MO transformed quantities
   J(MO) operators               ...       19.4 sec (  5.7%)
   (pq|rs) integrals             ...        0.0 sec (  0.0%)
   AO->MO one electron integrals ...        1.4 sec (  0.4%)
Configuration interaction steps
   CI-setup phase                ...        0.0 sec (  0.0%)
   CI-solution phase             ...        0.2 sec (  0.1%)
   Generation of densities       ...        0.0 sec (  0.0%)
Orbital improvement steps
   Orbital gradient              ...        0.2 sec (  0.1%)
   O(1) converger                ...        4.9 sec (  1.4%)
Properties                       ...        0.0 sec (  0.0%)
   SOC integral calculation      ...        0.0 sec (  0.0%)
   SSC RMEs (incl. integrals)    ...        0.0 sec (  0.0%)
   SOC RMEs                      ...        0.0 sec (  0.0%)

Maximum memory used throughout the entire CASSCF-calculation: 307.0 MB

-------------------------   --------------------
FINAL SINGLE POINT ENERGY     -3037.172471543687
-------------------------   --------------------


                            ***************************************
                            *     ORCA property calculations      *
                            ***************************************

                                    ---------------------
                                    Active property flags
                                    ---------------------
   (+) Dipole Moment


------------------------------------------------------------------------------
                       ORCA ELECTRIC PROPERTIES CALCULATION
------------------------------------------------------------------------------

Dipole Moment Calculation                       ... on
Quadrupole Moment Calculation                   ... off
Polarizability Calculation                      ... off
GBWName                                         ... casscf.gbw
Electron density                                ... casscf.scfp
The origin for moment calculation is the CENTER OF MASS  = (14.552213, 13.994496 14.779313)

-------------
DIPOLE MOMENT
-------------
                                X             Y             Z
Electronic contribution:    -34.07339      -6.69482       8.79296
Nuclear contribution   :     34.59160       6.79575      -8.92674
                        -----------------------------------------
Total Dipole Moment    :      0.51821       0.10092      -0.13378
                        -----------------------------------------
Magnitude (a.u.)       :      0.54463
Magnitude (Debye)      :      1.38435



--------------------
Rotational spectrum 
--------------------
 
Rotational constants in cm-1:     0.001103     0.000984     0.000957 
Rotational constants in MHz :    33.053456    29.495510    28.697447 

 Dipole components along the rotational axes: 
x,y,z [a.u.] :     0.006806     0.544567    -0.005194 
x,y,z [Debye]:     0.017299     1.384179    -0.013202 

 

Timings for individual modules:

Sum of individual times         ...      370.279 sec (=   6.171 min)
GTO integral calculation        ...       13.719 sec (=   0.229 min)   3.7 %
SCF iterations                  ...       10.728 sec (=   0.179 min)   2.9 %
CASSCF iterations               ...      345.832 sec (=   5.764 min)  93.4 %
                             ****ORCA TERMINATED NORMALLY****
TOTAL RUN TIME: 0 days 0 hours 6 minutes 11 seconds 875 msec
