
                                 *****************
                                 * O   R   C   A *
                                 *****************

                                            #,                                       
                                            ###                                      
                                            ####                                     
                                            #####                                    
                                            ######                                   
                                           ########,                                 
                                     ,,################,,,,,                         
                               ,,#################################,,                 
                          ,,##########################################,,             
                       ,#########################################, ''#####,          
                    ,#############################################,,   '####,        
                  ,##################################################,,,,####,       
                ,###########''''           ''''###############################       
              ,#####''   ,,,,##########,,,,          '''####'''          '####       
            ,##' ,,,,###########################,,,                        '##       
           ' ,,###''''                  '''############,,,                           
         ,,##''                                '''############,,,,        ,,,,,,###''
      ,#''                                            '''#######################'''  
     '                                                          ''''####''''         
             ,#######,   #######,   ,#######,      ##                                
            ,#'     '#,  ##    ##  ,#'     '#,    #''#        ######   ,####,        
            ##       ##  ##   ,#'  ##            #'  '#       #        #'  '#        
            ##       ##  #######   ##           ,######,      #####,   #    #        
            '#,     ,#'  ##    ##  '#,     ,#' ,#      #,         ##   #,  ,#        
             '#######'   ##     ##  '#######'  #'      '#     #####' # '####'        



                  #######################################################
                  #                        -***-                        #
                  #          Department of theory and spectroscopy      #
                  #    Directorship and core code : Frank Neese         #
                  #        Max Planck Institute fuer Kohlenforschung    #
                  #                Kaiser Wilhelm Platz 1               #
                  #                 D-45470 Muelheim/Ruhr               #
                  #                      Germany                        #
                  #                                                     #
                  #                  All rights reserved                #
                  #                        -***-                        #
                  #######################################################


                         Program Version 5.0.3 -  RELEASE  -


 With contributions from (in alphabetic order):
   Daniel Aravena         : Magnetic Suceptibility
   Michael Atanasov       : Ab Initio Ligand Field Theory (pilot matlab implementation)
   Alexander A. Auer      : GIAO ZORA, VPT2 properties, NMR spectrum
   Ute Becker             : Parallelization
   Giovanni Bistoni       : ED, misc. LED, open-shell LED, HFLD
   Martin Brehm           : Molecular dynamics
   Dmytro Bykov           : SCF Hessian
   Vijay G. Chilkuri      : MRCI spin determinant printing, contributions to CSF-ICE
   Dipayan Datta          : RHF DLPNO-CCSD density
   Achintya Kumar Dutta   : EOM-CC, STEOM-CC
   Dmitry Ganyushin       : Spin-Orbit,Spin-Spin,Magnetic field MRCI
   Miquel Garcia          : C-PCM and meta-GGA Hessian, CC/C-PCM, Gaussian charge scheme
   Yang Guo               : DLPNO-NEVPT2, F12-NEVPT2, CIM, IAO-localization
   Andreas Hansen         : Spin unrestricted coupled pair/coupled cluster methods
   Benjamin Helmich-Paris : MC-RPA, TRAH-SCF, COSX integrals
   Lee Huntington         : MR-EOM, pCC
   Robert Izsak           : Overlap fitted RIJCOSX, COSX-SCS-MP3, EOM
   Marcus Kettner         : VPT2
   Christian Kollmar      : KDIIS, OOCD, Brueckner-CCSD(T), CCSD density, CASPT2, CASPT2-K
   Simone Kossmann        : Meta GGA functionals, TD-DFT gradient, OOMP2, MP2 Hessian
   Martin Krupicka        : Initial AUTO-CI
   Lucas Lang             : DCDCAS
   Marvin Lechner         : AUTO-CI (C++ implementation), FIC-MRCC
   Dagmar Lenk            : GEPOL surface, SMD
   Dimitrios Liakos       : Extrapolation schemes; Compound Job, initial MDCI parallelization
   Dimitrios Manganas     : Further ROCIS development; embedding schemes
   Dimitrios Pantazis     : SARC Basis sets
   Anastasios Papadopoulos: AUTO-CI, single reference methods and gradients
   Taras Petrenko         : DFT Hessian,TD-DFT gradient, ASA, ECA, R-Raman, ABS, FL, XAS/XES, NRVS
   Peter Pinski           : DLPNO-MP2, DLPNO-MP2 Gradient
   Christoph Reimann      : Effective Core Potentials
   Marius Retegan         : Local ZFS, SOC
   Christoph Riplinger    : Optimizer, TS searches, QM/MM, DLPNO-CCSD(T), (RO)-DLPNO pert. Triples
   Tobias Risthaus        : Range-separated hybrids, TD-DFT gradient, RPA, STAB
   Michael Roemelt        : Original ROCIS implementation
   Masaaki Saitow         : Open-shell DLPNO-CCSD energy and density
   Barbara Sandhoefer     : DKH picture change effects
   Avijit Sen             : IP-ROCIS
   Kantharuban Sivalingam : CASSCF convergence, NEVPT2, FIC-MRCI
   Bernardo de Souza      : ESD, SOC TD-DFT
   Georgi Stoychev        : AutoAux, RI-MP2 NMR, DLPNO-MP2 response
   Willem Van den Heuvel  : Paramagnetic NMR
   Boris Wezisla          : Elementary symmetry handling
   Frank Wennmohs         : Technical directorship


 We gratefully acknowledge several colleagues who have allowed us to
 interface, adapt or use parts of their codes:
   Stefan Grimme, W. Hujo, H. Kruse, P. Pracht,  : VdW corrections, initial TS optimization,
                  C. Bannwarth, S. Ehlert          DFT functionals, gCP, sTDA/sTD-DF
   Ed Valeev, F. Pavosevic, A. Kumar             : LibInt (2-el integral package), F12 methods
   Garnet Chan, S. Sharma, J. Yang, R. Olivares  : DMRG
   Ulf Ekstrom                                   : XCFun DFT Library
   Mihaly Kallay                                 : mrcc  (arbitrary order and MRCC methods)
   Jiri Pittner, Ondrej Demel                    : Mk-CCSD
   Frank Weinhold                                : gennbo (NPA and NBO analysis)
   Christopher J. Cramer and Donald G. Truhlar   : smd solvation model
   Lars Goerigk                                  : TD-DFT with DH, B97 family of functionals
   V. Asgeirsson, H. Jonsson                     : NEB implementation
   FAccTs GmbH                                   : IRC, NEB, NEB-TS, DLPNO-Multilevel, CI-OPT
                                                   MM, QMMM, 2- and 3-layer-ONIOM, Crystal-QMMM,
                                                   LR-CPCM, SF, NACMEs, symmetry and pop. for TD-DFT,
                                                   nearIR, NL-DFT gradient (VV10), updates on ESD,
                                                   ML-optimized integration grids
   S Lehtola, MJT Oliveira, MAL Marques          : LibXC Library
   Liviu Ungur et al                             : ANISO software


 Your calculation uses the libint2 library for the computation of 2-el integrals
 For citations please refer to: http://libint.valeyev.net

 Your ORCA version has been built with support for libXC version: 5.1.0
 For citations please refer to: https://tddft.org/programs/libxc/

 This ORCA versions uses:
   CBLAS   interface :  Fast vector & matrix operations
   LAPACKE interface :  Fast linear algebra routines
   SCALAPACK package :  Parallel linear algebra routines
   Shared memory     :  Shared parallel matrices
   BLAS/LAPACK       :  OpenBLAS 0.3.15  USE64BITINT DYNAMIC_ARCH NO_AFFINITY Haswell SINGLE_THREADED
        Core in use  :  Haswell
   Copyright (c) 2011-2014, The OpenBLAS Project




***************************************
The coordinates will be read from file: pbe.xyz
***************************************


================================================================================

cite the ECPs for Au [Def2-ECP] as follows:
Ce-Yb(ecp-28): M. Dolg, H. Stoll, H.Preuss, J. Chem. Phys., 1989, 90, 1730-1734.
Y-Cd(ecp-28), Hf-Hg(ecp-46): D. Andrae,U. Haeussermann, M. Dolg, H. Stoll, H. Preuss, Theor. Chim. Acta, 1990, 77, 123-141.
In-Sb(ecp-28), Tl-Bi(ecp-46): B. Metz, H. Stoll, M. Dolg, J. Chem. Phys., 2000, 113, 2563-2569.
Te-Xe(ecp-28), Po-Rn(ecp-46): K. A. Peterson, D. Figgen, E. Goll, H. Stoll, M. Dolg, J. Chem. Phys., 2003, 119, 11113-11123.
Rb(ecp-28), Cs(ecp-46): T. Leininger, A. Nicklass, W. Kuechle, H. Stoll, M. Dolg, A. Bergner, Chem. Phys. Lett., 1996, 255, 274-280.
Sr(ecp-28), Ba(ecp-46): M. Kaupp, P. V. Schleyer, H. Stoll and H. Preuss, J. Chem. Phys., 1991, 94, 1360-1366.
La(ecp-46): M. Dolg, H. Stoll, A. Savin, H. Preuss, Theor. Chim. Acta, 1989, 75, 173-194.
Lu(ecp-28): X. Cao, M. Dolg, J. Chem. Phys., 2001, 115, 7348-7355.

ECP parameters for Au [Def2-ECP] have been obtained from:
TURBOMOLE (7.0.2)

----- Orbital basis set information -----
Your calculation utilizes the basis: def2-TZVP
   F. Weigend and R. Ahlrichs, Phys. Chem. Chem. Phys. 7, 3297 (2005).

----- AuxJ basis set information -----
Your calculation utilizes the auxiliary basis: def2/J
   F. Weigend, Phys. Chem. Chem. Phys. 8, 1057 (2006).

----- AuxC basis set information -----
Your calculation utilizes the auxiliary basis: def2-TZVP/C
  H-La, Hf-Rn : A. Hellweg, C. Hattig, S. Hofener and W. Klopper, Theor. Chem. Acc. 117, 587 (2007).
        Ce-Lu : J. Chmela and M. E. Harding, Mol. Phys. (2018).

================================================================================
                                        WARNINGS
                       Please study these warnings very carefully!
================================================================================


INFO   : the flag for use of the SHARK integral package has been found!

================================================================================
                                       INPUT FILE
================================================================================
NAME = casscf.inp
|  1> !CASSCF def2-TZVP def2-TZVP/C
|  2> !MOREAD RIJCOSX
|  3> %maxcore 6000
|  4> %moinp "pbe.qro"
|  5> %pal nprocs 2 end 
|  6> 
|  7> %casscf
|  8>  mult 5,3
|  9>  bweight 1,1
| 10>  nroots 5,45
| 11>  nel 6
| 12>  norb 5
| 13> end
| 14> 
| 15> 
| 16> *xyzfile 0 5 pbe.xyz
| 17> 
| 18> 
| 19>                          ****END OF INPUT****
================================================================================

                       ****************************
                       * Single Point Calculation *
                       ****************************

---------------------------------
CARTESIAN COORDINATES (ANGSTROEM)
---------------------------------
  Au     5.879823    5.485337    9.311747
  Au     6.423666    7.986971   10.240766
  Au     7.569675   10.500910   10.126868
  Au     5.742707    9.818213    8.168156
  Au     7.477773    9.324583    5.777173
  Au     8.088149   11.353753    7.543332
  Au     7.004002    6.709960    4.975774
  Au     4.928577    5.573144    6.653082
  Au     4.806158    8.336404    6.084204
  Au     7.701190    4.846816    7.079044
  Au    10.107974    9.671301    6.647817
  Au     9.351958    7.019334    6.463780
  Au    10.774188    7.896587    8.665704
  Au    10.245913   10.585619    9.314972
  Au     9.189922    8.391549   10.892573
  Au     8.653989    6.199183    9.308467
  Cr     6.793040    7.367896    7.619068

----------------------------
CARTESIAN COORDINATES (A.U.)
----------------------------
  NO LB      ZA    FRAG     MASS         X           Y           Z
   0 Au   19.0000*   0   196.966   11.111256   10.365786   17.596652
   1 Au   19.0000*   0   196.966   12.138970   15.093188   19.352243
   2 Au   19.0000*   0   196.966   14.304612   19.843845   19.137007
   3 Au   19.0000*   0   196.966   10.852144   18.553734   15.435577
   4 Au   19.0000*   0   196.966   14.130943   17.620908   10.917275
   5 Au   19.0000*   0   196.966   15.284386   21.455485   14.254832
   6 Au   19.0000*   0   196.966   13.235646   12.679987    9.402851
   7 Au   19.0000*   0   196.966    9.313661   10.531715   12.572503
   8 Au   19.0000*   0   196.966    9.082322   15.753520   11.497480
   9 Au   19.0000*   0   196.966   14.553140    9.159154   13.377455
  10 Au   19.0000*   0   196.966   19.101303   18.276111   12.562554
  11 Au   19.0000*   0   196.966   17.672639   13.264618   12.214774
  12 Au   19.0000*   0   196.966   20.360265   14.922388   16.375806
  13 Au   19.0000*   0   196.966   19.361970   20.003921   17.602746
  14 Au   19.0000*   0   196.966   17.366436   15.857730   20.583979
  15 Au   19.0000*   0   196.966   16.353670   11.714759   17.590453
  16 Cr   24.0000    0    52.000   12.836986   13.923306   14.397952
* core charge reduced due to ECP

--------------------------------
INTERNAL COORDINATES (ANGSTROEM)
--------------------------------
 Au     0   0   0     0.000000000000     0.00000000     0.00000000
 Au     1   0   0     2.723418748930     0.00000000     0.00000000
 Au     2   1   0     2.765176315500   154.66417656     0.00000000
 Au     3   2   1     2.764134320772    62.01217890    62.16571376
 Au     4   3   2     2.995149641017   102.91458181   254.63822793
 Au     5   4   3     2.758515946359    59.72423690   322.62687534
 Au     5   4   3     2.775418965853   106.67118394   121.36492831
 Au     1   2   3     2.825080487668   111.08281449   309.24325879
 Au     4   3   2     2.723185198241   154.68715239   298.73134569
 Au     7   5   4     2.895016722226   110.81763214   299.16362293
 Au     6   5   4     2.777100335471    60.58199475   134.89611241
 Au    11   6   5     2.763758806382   113.81869255   320.02387248
 Au    12  11   6     2.764196513777    60.11140447   260.83591065
 Au     3   2   1     2.797964374680   115.84189876   315.38128956
 Au     3   2   1     2.767834729886    62.50688059   280.86171095
 Au    15   3   2     2.757369185080   109.46493492    41.55084608
 Cr     9   4   3     2.691005997934    60.35870345    16.55306936

---------------------------
INTERNAL COORDINATES (A.U.)
---------------------------
 Au     0   0   0     0.000000000000     0.00000000     0.00000000
 Au     1   0   0     5.146515583464     0.00000000     0.00000000
 Au     2   1   0     5.225425948300   154.66417656     0.00000000
 Au     3   2   1     5.223456863632    62.01217890    62.16571376
 Au     4   3   2     5.660012551635   102.91458181   254.63822793
 Au     5   4   3     5.212839674674    59.72423690   322.62687534
 Au     5   4   3     5.244781752353   106.67118394   121.36492831
 Au     1   2   3     5.338628427977   111.08281449   309.24325879
 Au     4   3   2     5.146074236623   154.68715239   298.73134569
 Au     7   5   4     5.470788758129   110.81763214   299.16362293
 Au     6   5   4     5.247959080461    60.58199475   134.89611241
 Au    11   6   5     5.222747244275   113.81869255   320.02387248
 Au    12  11   6     5.223574391378    60.11140447   260.83591065
 Au     3   2   1     5.287386400614   115.84189876   315.38128956
 Au     3   2   1     5.230449623440    62.50688059   280.86171095
 Au    15   3   2     5.210672609914   109.46493492    41.55084608
 Cr     9   4   3     5.085264360835    60.35870345    16.55306936

---------------------
BASIS SET INFORMATION
---------------------
There are 2 groups of distinct atoms

 Group   1 Type Au  : 8s7p6d1f contracted to 6s4p3d1f pattern {311111/4111/411/1}
 Group   2 Type Cr  : 17s11p7d1f contracted to 6s4p4d1f pattern {842111/6311/4111/1}

Atom   0Au   basis set group =>   1
Atom   1Au   basis set group =>   1
Atom   2Au   basis set group =>   1
Atom   3Au   basis set group =>   1
Atom   4Au   basis set group =>   1
Atom   5Au   basis set group =>   1
Atom   6Au   basis set group =>   1
Atom   7Au   basis set group =>   1
Atom   8Au   basis set group =>   1
Atom   9Au   basis set group =>   1
Atom  10Au   basis set group =>   1
Atom  11Au   basis set group =>   1
Atom  12Au   basis set group =>   1
Atom  13Au   basis set group =>   1
Atom  14Au   basis set group =>   1
Atom  15Au   basis set group =>   1
Atom  16Cr   basis set group =>   2
---------------------------------
AUXILIARY/J BASIS SET INFORMATION
---------------------------------
There are 2 groups of distinct atoms

 Group   1 Type Au  : 11s5p5d3f3g contracted to 8s5p5d2f3g pattern {41111111/11111/11111/21/111}
 Group   2 Type Cr  : 19s5p5d3f3g contracted to 8s5p5d2f3g pattern {121111111/11111/11111/21/111}

Atom   0Au   basis set group =>   1
Atom   1Au   basis set group =>   1
Atom   2Au   basis set group =>   1
Atom   3Au   basis set group =>   1
Atom   4Au   basis set group =>   1
Atom   5Au   basis set group =>   1
Atom   6Au   basis set group =>   1
Atom   7Au   basis set group =>   1
Atom   8Au   basis set group =>   1
Atom   9Au   basis set group =>   1
Atom  10Au   basis set group =>   1
Atom  11Au   basis set group =>   1
Atom  12Au   basis set group =>   1
Atom  13Au   basis set group =>   1
Atom  14Au   basis set group =>   1
Atom  15Au   basis set group =>   1
Atom  16Cr   basis set group =>   2
---------------------------------
AUXILIARY/C BASIS SET INFORMATION
---------------------------------
There are 2 groups of distinct atoms

 Group   1 Type Au  : 8s8p7d5f3g2h contracted to 8s8p7d5f3g2h pattern {11111111/11111111/1111111/11111/111/11}
 Group   2 Type Cr  : 11s9p8d6f5g2h contracted to 9s8p8d6f5g2h pattern {311111111/21111111/11111111/111111/11111/11}

Atom   0Au   basis set group =>   1
Atom   1Au   basis set group =>   1
Atom   2Au   basis set group =>   1
Atom   3Au   basis set group =>   1
Atom   4Au   basis set group =>   1
Atom   5Au   basis set group =>   1
Atom   6Au   basis set group =>   1
Atom   7Au   basis set group =>   1
Atom   8Au   basis set group =>   1
Atom   9Au   basis set group =>   1
Atom  10Au   basis set group =>   1
Atom  11Au   basis set group =>   1
Atom  12Au   basis set group =>   1
Atom  13Au   basis set group =>   1
Atom  14Au   basis set group =>   1
Atom  15Au   basis set group =>   1
Atom  16Cr   basis set group =>   2
-------------------------
ECP PARAMETER INFORMATION
-------------------------

 Group 1, Type Au ECP Def2-ECP (replacing 60 core electrons, lmax=3)

Atom   0Au   ECP group =>   1
Atom   1Au   ECP group =>   1
Atom   2Au   ECP group =>   1
Atom   3Au   ECP group =>   1
Atom   4Au   ECP group =>   1
Atom   5Au   ECP group =>   1
Atom   6Au   ECP group =>   1
Atom   7Au   ECP group =>   1
Atom   8Au   ECP group =>   1
Atom   9Au   ECP group =>   1
Atom  10Au   ECP group =>   1
Atom  11Au   ECP group =>   1
Atom  12Au   ECP group =>   1
Atom  13Au   ECP group =>   1
Atom  14Au   ECP group =>   1
Atom  15Au   ECP group =>   1



           ************************************************************
           *        Program running with 2 parallel MPI-processes     *
           *              working on a common directory               *
           ************************************************************
------------------------------------------------------------------------------
                           ORCA GTO INTEGRAL CALCULATION
                           -- RI-GTO INTEGRALS CHOSEN --
------------------------------------------------------------------------------
------------------------------------------------------------------------------
                   ___                                                        
                  /   \      - P O W E R E D   B Y -                         
                 /     \                                                     
                 |  |  |   _    _      __       _____    __    __             
                 |  |  |  | |  | |    /  \     |  _  \  |  |  /  |          
                  \  \/   | |  | |   /    \    | | | |  |  | /  /          
                 / \  \   | |__| |  /  /\  \   | |_| |  |  |/  /          
                |  |  |   |  __  | /  /__\  \  |    /   |      \           
                |  |  |   | |  | | |   __   |  |    \   |  |\   \          
                \     /   | |  | | |  |  |  |  | |\  \  |  | \   \       
                 \___/    |_|  |_| |__|  |__|  |_| \__\ |__|  \__/        
                                                                              
                      - O R C A' S   B I G   F R I E N D -                    
                                      &                                       
                       - I N T E G R A L  F E E D E R -                       
                                                                              
 v1 FN, 2020, v2 2021                                                         
------------------------------------------------------------------------------


Reading SHARK input file casscf.SHARKINP.tmp ... ok
----------------------
SHARK INTEGRAL PACKAGE
----------------------

Number of atoms                             ...     17
Number of basis functions                   ...    685
Number of shells                            ...    239
Maximum angular momentum                    ...      3
Integral batch strategy                     ... SHARK/LIBINT Hybrid
RI-J (if used) integral strategy            ... SPLIT-RIJ (Revised 2003 algorithm where possible)
Printlevel                                  ...      1
Contraction scheme used                     ... SEGMENTED contraction
Coulomb Range Separation                    ... NOT USED
Exchange Range Separation                   ... NOT USED
Finite Nucleus Model                        ... NOT USED
Auxiliary Coulomb fitting basis             ... AVAILABLE
   # of basis functions in Aux-J            ...   1513
   # of shells in Aux-J                     ...    391
   Maximum angular momentum in Aux-J        ...      4
Auxiliary J/K fitting basis                 ... NOT available
Auxiliary Correlation fitting basis         ... AVAILABLE
   # of basis functions in Aux-C            ...   2598
   # of shells in Aux-C                     ...    566
   Maximum angular momentum in Aux-C        ...      5
Auxiliary 'external' fitting basis          ... NOT available
Integral threshold                          ...     1.000000e-10
Primitive cut-off                           ...     1.000000e-11
Primitive pair pre-selection threshold      ...     1.000000e-11

Calculating pre-screening integrals         ... done (  0.5 sec) Dimension = 239
Organizing shell pair data                  ... done (  0.5 sec)
Shell pair information
Total number of shell pairs                 ...     28680
Shell pairs after pre-screening             ...     22244
Total number of primitive shell pairs       ...     75765
Primitive shell pairs kept                  ...     42172
          la=0 lb=0:   3515 shell pairs
          la=1 lb=0:   5090 shell pairs
          la=1 lb=1:   1891 shell pairs
          la=2 lb=0:   4443 shell pairs
          la=2 lb=1:   3105 shell pairs
          la=2 lb=2:   1285 shell pairs
          la=3 lb=0:   1152 shell pairs
          la=3 lb=1:    870 shell pairs
          la=3 lb=2:    776 shell pairs
          la=3 lb=3:    117 shell pairs

Calculating one electron integrals          ... done (  0.3 sec)
Calculating ECP integrals                   ... done ( 19.8 sec)
Calculating RI/J V-Matrix + Cholesky decomp.... done (  0.8 sec)
Calculating RI/C V-Matrix + Cholesky decomp.... done (  0.9 sec)
Calculating Nuclear repulsion               ... done (  0.0 sec) ENN=   6887.762278145762 Eh

SHARK setup successfully completed in  23.9 seconds

Maximum memory used throughout the entire GTOINT-calculation: 112.5 MB


           ************************************************************
           *        Program running with 2 parallel MPI-processes     *
           *              working on a common directory               *
           ************************************************************
-------------------------------------------------------------------------------
                                 ORCA SCF
-------------------------------------------------------------------------------

------------
SCF SETTINGS
------------
Hamiltonian:
 Ab initio Hamiltonian  Method          .... Hartree-Fock(GTOs)
 RI-approximation to the Coulomb term is turned on
   Number of AuxJ basis functions       .... 1513
   RIJ-COSX (HFX calculated with COS-X)).... on


General Settings:
 Integral files         IntName         .... casscf
 Hartree-Fock type      HFTyp           .... CASSCF
 Total Charge           Charge          ....    0
 Multiplicity           Mult            ....    5
 Number of Electrons    NEL             ....  328
 Basis Dimension        Dim             ....  685
 Nuclear Repulsion      ENuc            ....   6887.7622781458 Eh


Diagonalization of the overlap matrix:
Smallest eigenvalue                        ... 9.423e-05
Time for diagonalization                   ...    0.170 sec
Threshold for overlap eigenvalues          ... 1.000e-08
Number of eigenvalues below threshold      ... 0
Time for construction of square roots      ...    0.127 sec
Total time needed                          ...    0.298 sec

---------------------
INITIAL GUESS: MOREAD
---------------------
Guess MOs are being read from file: pbe.qro
Input Geometry matches current geometry (good)
Input basis set matches current basis set (good)
MOs were renormalized
Gram-Schmidt orthogonalization of all MOs with pivot on actives
                      ------------------
                      INITIAL GUESS DONE (   3.4 sec)
                      ------------------
--------------------
COSX GRID GENERATION
--------------------

GRIDX 1
-------
General Integration Accuracy     IntAcc      ... 3.816
Radial Grid Type                 RadialGrid  ... OptM3 with GC (2021)
Angular Grid (max. ang.)         AngularGrid ... 1 (Lebedev-50)
Angular grid pruning method      GridPruning ... 4 (adaptive)
Weight generation scheme         WeightScheme... Becke
Basis function cutoff            BFCut       ... 1.0000e-10
Integration weight cutoff        WCut        ... 1.0000e-14
Angular grids for H and He will be reduced by one unit
Partially contracted basis set               ... on
Rotationally invariant grid construction     ... off

Total number of grid points                  ...    19586
Total number of batches                      ...      314
Average number of points per batch           ...       62
Average number of grid points per atom       ...     1152
UseSFitting                                  ... on

GRIDX 2
-------
General Integration Accuracy     IntAcc      ... 4.020
Radial Grid Type                 RadialGrid  ... OptM3 with GC (2021)
Angular Grid (max. ang.)         AngularGrid ... 2 (Lebedev-110)
Angular grid pruning method      GridPruning ... 4 (adaptive)
Weight generation scheme         WeightScheme... Becke
Basis function cutoff            BFCut       ... 1.0000e-10
Integration weight cutoff        WCut        ... 1.0000e-14
Angular grids for H and He will be reduced by one unit
Partially contracted basis set               ... on
Rotationally invariant grid construction     ... off

Total number of grid points                  ...    59269
Total number of batches                      ...      937
Average number of points per batch           ...       63
Average number of grid points per atom       ...     3486
UseSFitting                                  ... on

GRIDX 3
-------
General Integration Accuracy     IntAcc      ... 4.338
Radial Grid Type                 RadialGrid  ... OptM3 with GC (2021)
Angular Grid (max. ang.)         AngularGrid ... 3 (Lebedev-194)
Angular grid pruning method      GridPruning ... 4 (adaptive)
Weight generation scheme         WeightScheme... Becke
Basis function cutoff            BFCut       ... 1.0000e-10
Integration weight cutoff        WCut        ... 1.0000e-14
Angular grids for H and He will be reduced by one unit
Partially contracted basis set               ... on
Rotationally invariant grid construction     ... off

Total number of grid points                  ...   107420
Total number of batches                      ...     1686
Average number of points per batch           ...       63
Average number of grid points per atom       ...     6319
UseSFitting                                  ... on

Time for X-Grid setup             =    5.142 sec



 ... the calculation is a CASSCF calculation -I'm leaving here GOOD LUCK!!!



           ************************************************************
           *        Program running with 2 parallel MPI-processes     *
           *              working on a common directory               *
           ************************************************************
-------------------------------------------------------------------------------
                              ORCA-CASSCF
-------------------------------------------------------------------------------

Setting up the integral package       ... done
Setting up the integral package (RI)  ... done
Building the CAS space                ... done (5 configurations for Mult=5)
Building the CAS space                ... done (35 configurations for Mult=3)

SYSTEM-SPECIFIC SETTINGS:
Number of active electrons          ...    6
Number of active orbitals           ...    5
Total number of electrons           ...  328
Total number of orbitals            ...  685
Total number aux. functions         ... 2598

Determined orbital ranges:
   Internal       0 -  160 ( 161 orbitals)
   Active       161 -  165 (   5 orbitals)
   External     166 -  684 ( 519 orbitals)
Number of rotation parameters      ...  86959

CI-STEP:
CI strategy                         ... General CI
Number of multiplicity blocks       ...    2
BLOCK  1 WEIGHT=   0.5000
  Multiplicity                      ...    5
  #(Configurations)                 ...    5
  #(CSFs)                           ...    5
  #(Roots)                          ...    5
    ROOT=0 WEIGHT=    0.100000
    ROOT=1 WEIGHT=    0.100000
    ROOT=2 WEIGHT=    0.100000
    ROOT=3 WEIGHT=    0.100000
    ROOT=4 WEIGHT=    0.100000

BLOCK  2 WEIGHT=   0.5000
  Multiplicity                      ...    3
  #(Configurations)                 ...   35
  #(CSFs)                           ...   45
  #(Roots)                          ...   45
    ROOT=0 WEIGHT=    0.011111
    ROOT=1 WEIGHT=    0.011111
    ROOT=2 WEIGHT=    0.011111
    ROOT=3 WEIGHT=    0.011111
    ROOT=4 WEIGHT=    0.011111
    ROOT=5 WEIGHT=    0.011111
    ROOT=6 WEIGHT=    0.011111
    ROOT=7 WEIGHT=    0.011111
    ROOT=8 WEIGHT=    0.011111
    ROOT=9 WEIGHT=    0.011111
    ROOT=10 WEIGHT=    0.011111
    ROOT=11 WEIGHT=    0.011111
    ROOT=12 WEIGHT=    0.011111
    ROOT=13 WEIGHT=    0.011111
    ROOT=14 WEIGHT=    0.011111
    ROOT=15 WEIGHT=    0.011111
    ROOT=16 WEIGHT=    0.011111
    ROOT=17 WEIGHT=    0.011111
    ROOT=18 WEIGHT=    0.011111
    ROOT=19 WEIGHT=    0.011111
    ROOT=20 WEIGHT=    0.011111
    ROOT=21 WEIGHT=    0.011111
    ROOT=22 WEIGHT=    0.011111
    ROOT=23 WEIGHT=    0.011111
    ROOT=24 WEIGHT=    0.011111
    ROOT=25 WEIGHT=    0.011111
    ROOT=26 WEIGHT=    0.011111
    ROOT=27 WEIGHT=    0.011111
    ROOT=28 WEIGHT=    0.011111
    ROOT=29 WEIGHT=    0.011111
    ROOT=30 WEIGHT=    0.011111
    ROOT=31 WEIGHT=    0.011111
    ROOT=32 WEIGHT=    0.011111
    ROOT=33 WEIGHT=    0.011111
    ROOT=34 WEIGHT=    0.011111
    ROOT=35 WEIGHT=    0.011111
    ROOT=36 WEIGHT=    0.011111
    ROOT=37 WEIGHT=    0.011111
    ROOT=38 WEIGHT=    0.011111
    ROOT=39 WEIGHT=    0.011111
    ROOT=40 WEIGHT=    0.011111
    ROOT=41 WEIGHT=    0.011111
    ROOT=42 WEIGHT=    0.011111
    ROOT=43 WEIGHT=    0.011111
    ROOT=44 WEIGHT=    0.011111

  PrintLevel                        ...    1
  N(GuessMat)                       ...       512
  MaxDim(CI)                        ...        10
  MaxIter(CI)                       ...        64
  Energy Tolerance CI               ...  1.00e-08
  Residual Tolerance CI             ...  1.00e-08
  Shift(CI)                         ...  1.00e-04

INTEGRAL-TRANSFORMATION-STEP:
  Algorithm                         ... RI-MO

ORBITAL-IMPROVEMENT-STEP:
  Algorithm                         ... SuperCI(PT)
  Default Parametrization           ... CAYLEY
  Act-Act rotations                 ... depends on algorithm used

  Note: SuperCI(PT) will ignore FreezeIE, FreezeAct and FreezeGrad. In general Default settings are encouraged.
        In conjunction with ShiftUp, ShiftDn or GradScaling the performance of SuperCI(PT) is less optimal.  

  MaxRot                            ... 2.00e-01 
  Max. no of vectors (DIIS)         ... 15
  DThresh (cut-off) metric          ... 1.00e-06
  Switch step at gradient           ...  3.00e-02 
  Switch step at iteration          ...        50   
  Switch step to                    ... SuperCI(PT)    

SCF-SETTINGS:
  Incremental                       ... off
  RIJCOSX approximation             ... on
  UseFinalGrid                      ... on
  RI-JK approximation               ... off
  AO integral handling              ... DIRECT
  Integral Neglect Thresh           ...  1.00e-10
  Primitive cutoff TCut             ...  1.00e-11
  Energy convergence tolerance      ...  1.00e-07
  Orbital gradient convergence      ...  1.00e-03
  Max. number of iterations         ...        75  


FINAL ORBITALS:
  Active   Orbitals                 ... natural 
  Internal Orbitals                 ... canonical 
  External Orbitals                 ... canonical 

------------------
CAS-SCF ITERATIONS
------------------


MACRO-ITERATION   1: 
   --- Inactive Energy E0 = -3193.46382841 Eh
CI-ITERATION   0: 
 -3199.715609651   0.000000000000 (    0.00)
 -3199.643724302   0.000000000000
 -3199.551817256   0.000000000000
 -3199.546970812   0.000000000000
 -3199.515037762   0.000000000000
   CI-PROBLEM SOLVED
   DENSITIES MADE
CI-ITERATION   0: 
 -3199.683581062   0.000000000000 (    0.00)
 -3199.672917476   0.000000000000
 -3199.671655480   0.000000000000
 -3199.656919551   0.000000000000
 -3199.651157797   0.000000000000
 -3199.650557018   0.000000000000
 -3199.648144048   0.000000000000
 -3199.644232494   0.000000000000
 -3199.643099348   0.000000000000
 -3199.642162541   0.000000000000
 -3199.613789625   0.000000000000
 -3199.602314865   0.000000000000
 -3199.599676404   0.000000000000
 -3199.595727512   0.000000000000
 -3199.592317507   0.000000000000
 -3199.584999027   0.000000000000
 -3199.581027296   0.000000000000
 -3199.579451738   0.000000000000
 -3199.553013526   0.000000000000
 -3199.547354193   0.000000000000
 -3199.542862438   0.000000000000
 -3199.534388444   0.000000000000
 -3199.529813575   0.000000000000
 -3199.523456570   0.000000000000
 -3199.518821118   0.000000000000
 -3199.514220440   0.000000000000
 -3199.513156248   0.000000000000
 -3199.505118720   0.000000000000
 -3199.496462759   0.000000000000
 -3199.495589907   0.000000000000
 -3199.488164523   0.000000000000
 -3199.486747905   0.000000000000
 -3199.478744748   0.000000000000
 -3199.466168322   0.000000000000
 -3199.466027927   0.000000000000
 -3199.416417275   0.000000000000
 -3199.337889783   0.000000000000
 -3199.307233183   0.000000000000
 -3199.290575871   0.000000000000
 -3199.290391475   0.000000000000
 -3199.286446132   0.000000000000
 -3199.250171698   0.000000000000
 -3199.029891672   0.000000000000
 -3198.972979698   0.000000000000
 -3198.959850298   0.000000000000
   CI-PROBLEM SOLVED
   DENSITIES MADE

                 <<<<<<<<<<<<<<<<<<INITIAL CI STATE CHECK>>>>>>>>>>>>>>>>>>

BLOCK  1 MULT= 5 NROOTS= 5 
ROOT   0:  E=   -3199.7156096508 Eh
      0.83692 [     4]: 21111
      0.16234 [     0]: 11112
ROOT   1:  E=   -3199.6437243022 Eh  1.956 eV  15777.0 cm**-1
      0.98002 [     3]: 12111
      0.01337 [     0]: 11112
      0.00628 [     4]: 21111
ROOT   2:  E=   -3199.5518172559 Eh  4.457 eV  35948.3 cm**-1
      0.56881 [     0]: 11112
      0.31521 [     1]: 11121
      0.10517 [     4]: 21111
      0.01076 [     3]: 12111
ROOT   3:  E=   -3199.5469708125 Eh  4.589 eV  37011.9 cm**-1
      0.99995 [     2]: 11211
ROOT   4:  E=   -3199.5150377621 Eh  5.458 eV  44020.4 cm**-1
      0.68435 [     1]: 11121
      0.25547 [     0]: 11112
      0.05162 [     4]: 21111
      0.00854 [     3]: 12111

BLOCK  2 MULT= 3 NROOTS=45 
ROOT   0:  E=   -3199.6835810621 Eh
      0.76859 [    28]: 21111
      0.13722 [    10]: 11112
      0.04857 [    22]: 20112
      0.03318 [    34]: 22110
      0.00711 [    18]: 12111
ROOT   1:  E=   -3199.6729174764 Eh  0.290 eV   2340.4 cm**-1
      0.42184 [    23]: 20121
      0.38238 [    22]: 20112
      0.13821 [     6]: 10122
      0.02148 [    28]: 21111
      0.01476 [    10]: 11112
      0.00705 [    34]: 22110
      0.00590 [    29]: 21120
      0.00521 [    11]: 11121
ROOT   2:  E=   -3199.6716554802 Eh  0.325 eV   2617.4 cm**-1
      0.69197 [    24]: 20211
      0.21805 [     7]: 10212
      0.04159 [    13]: 11211
      0.03624 [    31]: 21210
      0.00607 [     1]: 01212
      0.00284 [    32]: 22011
ROOT   3:  E=   -3199.6569195505 Eh  0.725 eV   5851.5 cm**-1
      0.22093 [    22]: 20112
      0.19705 [    23]: 20121
      0.18792 [    28]: 21111
      0.10300 [    29]: 21120
      0.08148 [    34]: 22110
      0.05280 [     6]: 10122
      0.03689 [    27]: 21102
      0.03595 [    10]: 11112
      0.02969 [    11]: 11121
      0.02817 [    18]: 12111
      0.01928 [     3]: 02112
      0.00558 [    33]: 22101
ROOT   4:  E=   -3199.6511577969 Eh  0.882 eV   7116.1 cm**-1
      0.33583 [    31]: 21210
      0.25275 [    25]: 21012
      0.11845 [    26]: 21021
      0.10363 [    13]: 11211
      0.10069 [    30]: 21201
      0.03016 [    24]: 20211
      0.01948 [    12]: 11202
      0.01886 [     9]: 11022
      0.00740 [     7]: 10212
      0.00594 [    32]: 22011
      0.00412 [     1]: 01212
ROOT   5:  E=   -3199.6505570184 Eh  0.899 eV   7247.9 cm**-1
      0.43120 [    34]: 22110
      0.22726 [    18]: 12111
      0.12868 [     3]: 02112
      0.05972 [    29]: 21120
      0.03513 [    22]: 20112
      0.03444 [    28]: 21111
      0.03279 [    10]: 11112
      0.02881 [    27]: 21102
      0.01579 [    11]: 11121
      0.00370 [    23]: 20121
ROOT   6:  E=   -3199.6481440481 Eh  0.964 eV   7777.5 cm**-1
      0.68777 [    28]: 21111
      0.14006 [    22]: 20112
      0.06389 [    10]: 11112
      0.04832 [    23]: 20121
      0.02056 [    27]: 21102
      0.01495 [     6]: 10122
      0.01427 [    18]: 12111
      0.00442 [     3]: 02112
      0.00288 [    29]: 21120
ROOT   7:  E=   -3199.6442324939 Eh  1.071 eV   8636.0 cm**-1
      0.46150 [    26]: 21021
      0.17299 [    30]: 21201
      0.11079 [    25]: 21012
      0.11045 [    31]: 21210
      0.08289 [     9]: 11022
      0.02775 [    13]: 11211
      0.02689 [    12]: 11202
      0.00275 [    24]: 20211
ROOT   8:  E=   -3199.6430993477 Eh  1.102 eV   8884.7 cm**-1
      0.61281 [    28]: 21111
      0.11946 [    29]: 21120
      0.10063 [    10]: 11112
      0.09602 [    27]: 21102
      0.03530 [    11]: 11121
      0.02157 [    22]: 20112
      0.00533 [    18]: 12111
      0.00284 [    33]: 22101
ROOT   9:  E=   -3199.6421625406 Eh  1.127 eV   9090.3 cm**-1
      0.25769 [    29]: 21120
      0.23284 [    28]: 21111
      0.12698 [    22]: 20112
      0.11485 [    11]: 11121
      0.08007 [    27]: 21102
      0.07624 [    23]: 20121
      0.05222 [    10]: 11112
      0.02418 [     6]: 10122
      0.01477 [    34]: 22110
      0.01103 [     0]: 01122
      0.00502 [    18]: 12111
ROOT  10:  E=   -3199.6137896247 Eh  1.899 eV  15317.4 cm**-1
      0.57907 [    25]: 21012
      0.22319 [    31]: 21210
      0.05615 [    30]: 21201
      0.04888 [    13]: 11211
      0.04818 [    26]: 21021
      0.01676 [    24]: 20211
      0.01318 [    12]: 11202
      0.00442 [     9]: 11022
      0.00386 [     7]: 10212
      0.00274 [    21]: 12210
ROOT  11:  E=   -3199.6023148647 Eh  2.211 eV  17835.9 cm**-1
      0.46922 [    27]: 21102
      0.23244 [    33]: 22101
      0.15580 [    29]: 21120
      0.03286 [    11]: 11121
      0.02567 [    17]: 12102
      0.02480 [    28]: 21111
      0.02382 [    19]: 12120
      0.01426 [    18]: 12111
      0.00777 [    34]: 22110
      0.00643 [    10]: 11112
      0.00469 [     4]: 02121
ROOT  12:  E=   -3199.5996764044 Eh  2.283 eV  18414.9 cm**-1
      0.35329 [    30]: 21201
      0.21065 [    32]: 22011
      0.14825 [    26]: 21021
      0.08160 [    15]: 12012
      0.05281 [    12]: 11202
      0.05027 [    31]: 21210
      0.03721 [    25]: 21012
      0.02271 [    21]: 12210
      0.01817 [     9]: 11022
      0.00913 [     5]: 02211
      0.00504 [    20]: 12201
      0.00486 [    13]: 11211
ROOT  13:  E=   -3199.5957275115 Eh  2.391 eV  19281.6 cm**-1
      0.38396 [    32]: 22011
      0.16927 [    15]: 12012
      0.16315 [    30]: 21201
      0.08900 [    21]: 12210
      0.07418 [    26]: 21021
      0.02421 [    31]: 21210
      0.02381 [     9]: 11022
      0.02301 [    12]: 11202
      0.01982 [     5]: 02211
      0.01171 [    25]: 21012
      0.01149 [    13]: 11211
ROOT  14:  E=   -3199.5923175065 Eh  2.483 eV  20030.0 cm**-1
      0.39928 [    18]: 12111
      0.14219 [    27]: 21102
      0.13344 [    33]: 22101
      0.12219 [    34]: 22110
      0.08113 [    17]: 12102
      0.04060 [    29]: 21120
      0.03012 [    19]: 12120
      0.01428 [     3]: 02112
      0.01083 [     4]: 02121
      0.00909 [    10]: 11112
      0.00691 [    28]: 21111
      0.00624 [    11]: 11121
ROOT  15:  E=   -3199.5849990268 Eh  2.683 eV  21636.3 cm**-1
      0.38818 [    18]: 12111
      0.19482 [    17]: 12102
      0.16681 [    33]: 22101
      0.07102 [    19]: 12120
      0.05835 [    34]: 22110
      0.05468 [    27]: 21102
      0.02279 [     4]: 02121
      0.02022 [    29]: 21120
      0.00710 [    28]: 21111
      0.00599 [    10]: 11112
      0.00477 [     3]: 02112
      0.00279 [    11]: 11121
ROOT  16:  E=   -3199.5810272961 Eh  2.791 eV  22507.9 cm**-1
      0.53604 [    20]: 12201
      0.39786 [    16]: 12021
      0.02637 [    32]: 22011
      0.02276 [     9]: 11022
      0.00503 [    21]: 12210
ROOT  17:  E=   -3199.5794517385 Eh  2.834 eV  22853.7 cm**-1
      0.88449 [    18]: 12111
      0.03750 [    17]: 12102
      0.03357 [    10]: 11112
      0.01785 [    34]: 22110
      0.01231 [    19]: 12120
      0.00739 [    28]: 21111
      0.00283 [     4]: 02121
ROOT  18:  E=   -3199.5530135256 Eh  3.553 eV  28656.3 cm**-1
      0.60598 [    21]: 12210
      0.16787 [     5]: 02211
      0.13093 [    32]: 22011
      0.06143 [    16]: 12021
      0.00852 [     9]: 11022
      0.00635 [    13]: 11211
      0.00446 [     7]: 10212
      0.00418 [    20]: 12201
      0.00406 [    15]: 12012
      0.00289 [    31]: 21210
ROOT  19:  E=   -3199.5473541930 Eh  3.707 eV  29898.3 cm**-1
      0.36630 [    19]: 12120
      0.18524 [    11]: 11121
      0.14151 [    33]: 22101
      0.11995 [    10]: 11112
      0.07239 [    18]: 12111
      0.06680 [     4]: 02121
      0.02011 [    34]: 22110
      0.00706 [    28]: 21111
      0.00547 [     3]: 02112
      0.00471 [    23]: 20121
      0.00431 [    22]: 20112
      0.00367 [    27]: 21102
ROOT  20:  E=   -3199.5428624376 Eh  3.829 eV  30884.2 cm**-1
      0.40986 [    20]: 12201
      0.33795 [    16]: 12021
      0.06306 [    32]: 22011
      0.05977 [    15]: 12012
      0.05831 [     9]: 11022
      0.02442 [    12]: 11202
      0.01657 [    21]: 12210
      0.01287 [    26]: 21021
      0.00724 [    13]: 11211
      0.00548 [     5]: 02211
ROOT  21:  E=   -3199.5343884444 Eh  4.060 eV  32744.0 cm**-1
      0.59755 [    10]: 11112
      0.10807 [    11]: 11121
      0.06752 [     0]: 01122
      0.05759 [    28]: 21111
      0.04581 [    19]: 12120
      0.03289 [    27]: 21102
      0.03021 [     3]: 02112
      0.02077 [     4]: 02121
      0.01839 [    33]: 22101
      0.00734 [    18]: 12111
      0.00498 [    17]: 12102
      0.00420 [    29]: 21120
      0.00369 [    22]: 20112
ROOT  22:  E=   -3199.5298135751 Eh  4.184 eV  33748.1 cm**-1
      0.64801 [    13]: 11211
      0.23632 [     1]: 01212
      0.05131 [    31]: 21210
      0.01761 [     5]: 02211
      0.01590 [    30]: 21201
      0.01459 [    24]: 20211
      0.00349 [    25]: 21012
      0.00308 [    16]: 12021
      0.00257 [     7]: 10212
ROOT  23:  E=   -3199.5234565696 Eh  4.357 eV  35143.3 cm**-1
      0.47384 [    10]: 11112
      0.18658 [    11]: 11121
      0.10707 [    28]: 21111
      0.08035 [    18]: 12111
      0.05295 [     3]: 02112
      0.03873 [    33]: 22101
      0.01468 [    17]: 12102
      0.01254 [     4]: 02121
      0.01128 [    19]: 12120
      0.00847 [     6]: 10122
      0.00590 [    23]: 20121
      0.00350 [    34]: 22110
ROOT  24:  E=   -3199.5188211176 Eh  4.483 eV  36160.6 cm**-1
      0.73581 [    13]: 11211
      0.10693 [    15]: 12012
      0.04902 [    32]: 22011
      0.02623 [    16]: 12021
      0.01781 [     5]: 02211
      0.01616 [     1]: 01212
      0.01429 [    20]: 12201
      0.01167 [    24]: 20211
      0.00689 [    31]: 21210
      0.00490 [    21]: 12210
ROOT  25:  E=   -3199.5142204398 Eh  4.609 eV  37170.4 cm**-1
      0.27070 [    17]: 12102
      0.26025 [    18]: 12111
      0.10905 [    10]: 11112
      0.10740 [    19]: 12120
      0.07143 [    34]: 22110
      0.05739 [     3]: 02112
      0.05251 [    11]: 11121
      0.02467 [     4]: 02121
      0.02074 [    33]: 22101
      0.00801 [    27]: 21102
      0.00763 [    28]: 21111
      0.00594 [    22]: 20112
      0.00273 [    29]: 21120
ROOT  26:  E=   -3199.5131562476 Eh  4.637 eV  37403.9 cm**-1
      0.51085 [    15]: 12012
      0.23419 [    13]: 11211
      0.12039 [    32]: 22011
      0.04254 [    12]: 11202
      0.02909 [    16]: 12021
      0.02092 [    21]: 12210
      0.01829 [     9]: 11022
      0.00898 [    30]: 21201
      0.00265 [    26]: 21021
      0.00261 [    25]: 21012
ROOT  27:  E=   -3199.5051187202 Eh  4.856 eV  39168.0 cm**-1
      0.45875 [    11]: 11121
      0.19525 [    10]: 11112
      0.17390 [     0]: 01122
      0.07832 [    29]: 21120
      0.03766 [    28]: 21111
      0.01858 [     4]: 02121
      0.01372 [    17]: 12102
      0.00763 [     3]: 02112
      0.00474 [    18]: 12111
      0.00464 [    23]: 20121
      0.00317 [    19]: 12120
ROOT  28:  E=   -3199.4964627595 Eh  5.092 eV  41067.7 cm**-1
      0.46194 [    13]: 11211
      0.12978 [     1]: 01212
      0.11255 [    14]: 11220
      0.05757 [    31]: 21210
      0.05070 [    15]: 12012
      0.04530 [     9]: 11022
      0.03875 [     2]: 01221
      0.03009 [    16]: 12021
      0.02363 [    12]: 11202
      0.01045 [    20]: 12201
      0.00852 [    21]: 12210
      0.00803 [     7]: 10212
      0.00655 [     8]: 10221
      0.00639 [    26]: 21021
      0.00455 [    32]: 22011
      0.00351 [    30]: 21201
ROOT  29:  E=   -3199.4955899071 Eh  5.115 eV  41259.3 cm**-1
      0.51638 [    10]: 11112
      0.26363 [    11]: 11121
      0.08050 [    28]: 21111
      0.05841 [     0]: 01122
      0.02656 [    18]: 12111
      0.01649 [    29]: 21120
      0.01477 [    33]: 22101
      0.00703 [    17]: 12102
      0.00663 [    34]: 22110
      0.00262 [    19]: 12120
ROOT  30:  E=   -3199.4881645233 Eh  5.318 eV  42889.0 cm**-1
      0.54772 [    12]: 11202
      0.21232 [    14]: 11220
      0.07617 [     2]: 01221
      0.07023 [    30]: 21201
      0.02778 [    13]: 11211
      0.02646 [    16]: 12021
      0.01220 [    20]: 12201
      0.00718 [    15]: 12012
      0.00568 [     9]: 11022
      0.00511 [     1]: 01212
      0.00306 [     8]: 10221
ROOT  31:  E=   -3199.4867479049 Eh  5.356 eV  43199.9 cm**-1
      0.49195 [    11]: 11121
      0.26321 [    10]: 11112
      0.05500 [    19]: 12120
      0.05483 [    28]: 21111
      0.04322 [     4]: 02121
      0.02435 [     6]: 10122
      0.01778 [    23]: 20121
      0.01772 [     0]: 01122
      0.00983 [     3]: 02112
      0.00828 [    18]: 12111
      0.00538 [    29]: 21120
      0.00512 [    33]: 22101
ROOT  32:  E=   -3199.4787447476 Eh  5.574 eV  44956.4 cm**-1
      0.34343 [    17]: 12102
      0.22630 [    18]: 12111
      0.21513 [    33]: 22101
      0.07836 [     3]: 02112
      0.05977 [    34]: 22110
      0.02398 [    10]: 11112
      0.02147 [    27]: 21102
      0.01260 [    28]: 21111
      0.00728 [    11]: 11121
      0.00661 [     0]: 01122
ROOT  33:  E=   -3199.4661683223 Eh  5.916 eV  47716.6 cm**-1
      0.54680 [    11]: 11121
      0.18741 [    10]: 11112
      0.09541 [     0]: 01122
      0.04804 [    29]: 21120
      0.04388 [    19]: 12120
      0.03606 [    28]: 21111
      0.01556 [     6]: 10122
      0.01400 [     4]: 02121
      0.00578 [    18]: 12111
      0.00415 [    23]: 20121
ROOT  34:  E=   -3199.4660279270 Eh  5.920 eV  47747.4 cm**-1
      0.40081 [     9]: 11022
      0.18890 [    13]: 11211
      0.14920 [    14]: 11220
      0.06553 [    26]: 21021
      0.05392 [    16]: 12021
      0.04407 [     2]: 01221
      0.03564 [     1]: 01212
      0.02047 [    31]: 21210
      0.01866 [    12]: 11202
      0.00931 [     8]: 10221
      0.00664 [    30]: 21201
      0.00277 [    15]: 12012
ROOT  35:  E=   -3199.4164172750 Eh  7.270 eV  58635.7 cm**-1
      0.29000 [     9]: 11022
      0.25741 [    14]: 11220
      0.19994 [    12]: 11202
      0.08075 [     2]: 01221
      0.05447 [    26]: 21021
      0.04075 [    30]: 21201
      0.03302 [    13]: 11211
      0.02789 [    16]: 12021
      0.00812 [     8]: 10221
      0.00367 [    31]: 21210
      0.00367 [     1]: 01212
ROOT  36:  E=   -3199.3378897833 Eh  9.407 eV  75870.5 cm**-1
      0.47472 [     7]: 10212
      0.35189 [     8]: 10221
      0.13262 [    24]: 20211
      0.01318 [     2]: 01221
      0.01153 [     1]: 01212
      0.00733 [    13]: 11211
      0.00320 [    14]: 11220
ROOT  37:  E=   -3199.3072331827 Eh 10.241 eV  82598.8 cm**-1
      0.49009 [     3]: 02112
      0.27274 [    18]: 12111
      0.11955 [     4]: 02121
      0.04795 [    34]: 22110
      0.03363 [    19]: 12120
      0.01594 [    10]: 11112
      0.00889 [    11]: 11121
      0.00484 [    28]: 21111
      0.00311 [     0]: 01122
ROOT  38:  E=   -3199.2905758709 Eh 10.694 eV  86254.7 cm**-1
      0.69869 [     6]: 10122
      0.20275 [    23]: 20121
      0.05074 [    11]: 11121
      0.02833 [     0]: 01122
      0.00371 [    19]: 12120
      0.00371 [     4]: 02121
      0.00355 [     5]: 02211
ROOT  39:  E=   -3199.2903914745 Eh 10.699 eV  86295.1 cm**-1
      0.70773 [     5]: 02211
      0.20894 [    21]: 12210
      0.03429 [    13]: 11211
      0.02532 [     8]: 10221
      0.00858 [     7]: 10212
      0.00452 [    31]: 21210
      0.00367 [     6]: 10122
ROOT  40:  E=   -3199.2864461321 Eh 10.807 eV  87161.0 cm**-1
      0.57950 [     8]: 10221
      0.25639 [     7]: 10212
      0.09076 [    24]: 20211
      0.03821 [     5]: 02211
      0.01820 [     2]: 01221
      0.00545 [     1]: 01212
      0.00397 [    21]: 12210
      0.00295 [    14]: 11220
ROOT  41:  E=   -3199.2501716983 Eh 11.794 eV  95122.4 cm**-1
      0.60844 [     4]: 02121
      0.17959 [    19]: 12120
      0.08965 [     3]: 02112
      0.05969 [    18]: 12111
      0.03177 [    11]: 11121
      0.01267 [    34]: 22110
      0.00706 [    29]: 21120
      0.00546 [     0]: 01122
      0.00281 [    10]: 11112
ROOT  42:  E=   -3199.0298916719 Eh 17.788 eV 143468.2 cm**-1
      0.40646 [     1]: 01212
      0.27134 [    13]: 11211
      0.18830 [     2]: 01221
      0.06585 [    14]: 11220
      0.04691 [    31]: 21210
      0.00736 [     7]: 10212
      0.00544 [     5]: 02211
      0.00350 [     8]: 10221
ROOT  43:  E=   -3198.9729796976 Eh 19.336 eV 155959.0 cm**-1
      0.52690 [     0]: 01122
      0.36129 [    11]: 11121
      0.06432 [    29]: 21120
      0.02442 [     4]: 02121
      0.00943 [     6]: 10122
      0.00877 [    19]: 12120
      0.00314 [    23]: 20121
ROOT  44:  E=   -3198.9598502984 Eh 19.694 eV 158840.5 cm**-1
      0.53781 [     2]: 01221
      0.19278 [    14]: 11220
      0.12979 [     1]: 01212
      0.10111 [    13]: 11211
      0.02039 [    31]: 21210
      0.01012 [     8]: 10221
      0.00313 [     5]: 02211

                 <<<<<<<<<<<<<<<<<<INITIAL CI STATE CHECK>>>>>>>>>>>>>>>>>>

   E(CAS)= -3199.543045859 Eh DE=    0.000000e+00
   --- Energy gap subspaces: Ext-Act = 0.169   Act-Int = 0.067
   N(occ)=  1.20000 1.20000 1.20000 1.20000 1.20000
   ||g|| =     2.893940e+00 Max(G)=    4.146949e-01 Rot=604,1
   --- Orbital Update [SuperCI(PT)]
   --- Canonicalize Internal Space
   --- Canonicalize External Space
   --- SX_PT (Skipped TA=0 IT=0): ||X|| =      0.729502084 Max(X)(179,162) =     -0.135238110 
   --- SFit(Active Orbitals)

MACRO-ITERATION   2: 
   --- Inactive Energy E0 = -3191.96863901 Eh
CI-ITERATION   0: 
 -3199.932681307   0.000000000000 (    0.00)
 -3199.893145535   0.000000000000
 -3199.885102454   0.000000000000
 -3199.606748059   0.000000000000
 -3199.481615529   0.000000000000
   CI-PROBLEM SOLVED
   DENSITIES MADE
CI-ITERATION   0: 
 -3200.028015059   0.000000000000 (    0.00)
 -3200.026604760   0.000000000000
 -3200.007424826   0.000000000000
 -3199.992941162   0.000000000000
 -3199.991074052   0.000000000000
 -3199.978123263   0.000000000000
 -3199.937523131   0.000000000000
 -3199.922915273   0.000000000000
 -3199.916280573   0.000000000000
 -3199.902973393   0.000000000000
 -3199.897394301   0.000000000000
 -3199.896595940   0.000000000000
 -3199.894074276   0.000000000000
 -3199.880415822   0.000000000000
 -3199.873955034   0.000000000000
 -3199.871675389   0.000000000000
 -3199.867591767   0.000000000000
 -3199.862370071   0.000000000000
 -3199.854101567   0.000000000000
 -3199.846894587   0.000000000000
 -3199.837168430   0.000000000000
 -3199.804811334   0.000000000000
 -3199.794522634   0.000000000000
 -3199.755079851   0.000000000000
 -3199.621479430   0.000000000000
 -3199.604117307   0.000000000000
 -3199.599604141   0.000000000000
 -3199.561169401   0.000000000000
 -3199.553112954   0.000000000000
 -3199.546152076   0.000000000000
 -3199.511116712   0.000000000000
 -3199.502281377   0.000000000000
 -3199.483387495   0.000000000000
 -3199.462065526   0.000000000000
 -3199.446271292   0.000000000000
 -3199.434550710   0.000000000000
 -3199.427495470   0.000000000000
 -3199.425036251   0.000000000000
 -3199.417889490   0.000000000000
 -3199.382538943   0.000000000000
 -3199.310551914   0.000000000000
 -3199.290531875   0.000000000000
 -3198.925308480   0.000000000000
 -3198.894930432   0.000000000000
 -3198.775380969   0.000000000000
   CI-PROBLEM SOLVED
   DENSITIES MADE
   E(CAS)= -3199.711212608 Eh DE=   -1.681667e-01
   --- Energy gap subspaces: Ext-Act = -0.061   Act-Int = -0.321
   N(occ)=  1.20000 1.20000 1.20000 1.20000 1.20000
   ||g|| =     2.606876e+00 Max(G)=   -4.965121e-01 Rot=168,163
   --- Orbital Update [SuperCI(PT)]
   --- Canonicalize Internal Space
   --- Canonicalize External Space
   --- SX_PT (Skipped TA=0 IT=0): ||X|| =     14.936843883 Max(X)(164,151) =     -8.623574739 
   --- SFit(Active Orbitals)

MACRO-ITERATION   3: 
   --- Inactive Energy E0 = -3192.39880580 Eh
CI-ITERATION   0: 
 -3200.030151645   0.000000000000 (    0.00)
 -3199.995040417   0.000000000000
 -3199.989844873   0.000000000000
 -3199.794607991   0.000000000000
 -3199.693094342   0.000000000000
   CI-PROBLEM SOLVED
   DENSITIES MADE
CI-ITERATION   0: 
 -3200.063524357   0.000000000000 (    0.00)
 -3200.062648346   0.000000000000
 -3200.037048485   0.000000000000
 -3200.031500072   0.000000000000
 -3200.012213419   0.000000000000
 -3200.009205209   0.000000000000
 -3200.005211636   0.000000000000
 -3199.994107199   0.000000000000
 -3199.991452941   0.000000000000
 -3199.989286184   0.000000000000
 -3199.975466420   0.000000000000
 -3199.973232899   0.000000000000
 -3199.972461386   0.000000000000
 -3199.969274974   0.000000000000
 -3199.964210167   0.000000000000
 -3199.962458647   0.000000000000
 -3199.955492290   0.000000000000
 -3199.954041961   0.000000000000
 -3199.936589890   0.000000000000
 -3199.934646806   0.000000000000
 -3199.931567707   0.000000000000
 -3199.929523682   0.000000000000
 -3199.922857499   0.000000000000
 -3199.863808765   0.000000000000
 -3199.788665641   0.000000000000
 -3199.787566652   0.000000000000
 -3199.772263873   0.000000000000
 -3199.744496065   0.000000000000
 -3199.738505461   0.000000000000
 -3199.732481023   0.000000000000
 -3199.695877699   0.000000000000
 -3199.689297768   0.000000000000
 -3199.672416287   0.000000000000
 -3199.667973096   0.000000000000
 -3199.652382987   0.000000000000
 -3199.641703087   0.000000000000
 -3199.636426996   0.000000000000
 -3199.633166877   0.000000000000
 -3199.626835747   0.000000000000
 -3199.589922716   0.000000000000
 -3199.542960379   0.000000000000
 -3199.524704623   0.000000000000
 -3199.220205540   0.000000000000
 -3199.189762541   0.000000000000
 -3199.108917703   0.000000000000
   CI-PROBLEM SOLVED
   DENSITIES MADE
   E(CAS)= -3199.851366857 Eh DE=   -1.401542e-01
   --- Energy gap subspaces: Ext-Act = 0.041   Act-Int = -0.220
   N(occ)=  1.20000 1.20000 1.20000 1.20000 1.20000
   ||g|| =     1.850750e+00 Max(G)=    3.753084e-01 Rot=167,162
   --- Orbital Update [SuperCI(PT)]
   --- Canonicalize Internal Space
   --- Canonicalize External Space
   --- SX_PT (Skipped TA=0 IT=0): ||X|| =      1.876432868 Max(X)(167,162) =     -1.289964747 
   --- SFit(Active Orbitals)

MACRO-ITERATION   4: 
   --- Inactive Energy E0 = -3193.53523573 Eh
CI-ITERATION   0: 
 -3200.101202608   0.000000000000 (    0.00)
 -3200.077954107   0.000000000000
 -3200.075718025   0.000000000000
 -3200.073470564   0.000000000000
 -3200.045608440   0.000000000000
   CI-PROBLEM SOLVED
   DENSITIES MADE
CI-ITERATION   0: 
 -3200.135896899   0.000000000000 (    0.00)
 -3200.128026168   0.000000000000
 -3200.125312641   0.000000000000
 -3200.082227354   0.000000000000
 -3200.080521716   0.000000000000
 -3200.080251999   0.000000000000
 -3200.076132718   0.000000000000
 -3200.073766789   0.000000000000
 -3200.053434267   0.000000000000
 -3200.053156072   0.000000000000
 -3200.049428365   0.000000000000
 -3200.046349289   0.000000000000
 -3200.034112502   0.000000000000
 -3200.032440439   0.000000000000
 -3200.029968222   0.000000000000
 -3200.026779184   0.000000000000
 -3200.024921479   0.000000000000
 -3200.020535582   0.000000000000
 -3200.018022877   0.000000000000
 -3200.012613548   0.000000000000
 -3200.012413936   0.000000000000
 -3200.008842362   0.000000000000
 -3200.007761550   0.000000000000
 -3199.993246903   0.000000000000
 -3199.987461911   0.000000000000
 -3199.985543933   0.000000000000
 -3199.981983073   0.000000000000
 -3199.972506870   0.000000000000
 -3199.959063646   0.000000000000
 -3199.955995691   0.000000000000
 -3199.944709446   0.000000000000
 -3199.937269162   0.000000000000
 -3199.920938126   0.000000000000
 -3199.915477504   0.000000000000
 -3199.914417819   0.000000000000
 -3199.912397778   0.000000000000
 -3199.907501773   0.000000000000
 -3199.900603229   0.000000000000
 -3199.892167992   0.000000000000
 -3199.777589882   0.000000000000
 -3199.767243686   0.000000000000
 -3199.729344280   0.000000000000
 -3199.692552585   0.000000000000
 -3199.689656341   0.000000000000
 -3199.687136290   0.000000000000
   CI-PROBLEM SOLVED
   DENSITIES MADE
   E(CAS)= -3200.022258973 Eh DE=   -1.708921e-01
   --- Energy gap subspaces: Ext-Act = 0.216   Act-Int = 0.065
   N(occ)=  1.20000 1.20000 1.20000 1.20000 1.20000
   ||g|| =     6.190138e-01 Max(G)=    8.834672e-02 Rot=166,160
   --- Orbital Update [SuperCI(PT)]
   --- Canonicalize Internal Space
   --- Canonicalize External Space
   --- SX_PT (Skipped TA=0 IT=0): ||X|| =      0.271201181 Max(X)(168,163) =     -0.073640838 
   --- SFit(Active Orbitals)

MACRO-ITERATION   5: 
   --- Inactive Energy E0 = -3193.05729785 Eh
CI-ITERATION   0: 
 -3200.154410224   0.000000000000 (    0.00)
 -3200.134415446   0.000000000000
 -3200.133258208   0.000000000000
 -3200.130505587   0.000000000000
 -3200.096482208   0.000000000000
   CI-PROBLEM SOLVED
   DENSITIES MADE
CI-ITERATION   0: 
 -3200.188538702   0.000000000000 (    0.00)
 -3200.181980410   0.000000000000
 -3200.176752788   0.000000000000
 -3200.141036637   0.000000000000
 -3200.135765416   0.000000000000
 -3200.135364564   0.000000000000
 -3200.131748802   0.000000000000
 -3200.126390989   0.000000000000
 -3200.106443096   0.000000000000
 -3200.102271696   0.000000000000
 -3200.100554317   0.000000000000
 -3200.094550825   0.000000000000
 -3200.083567634   0.000000000000
 -3200.082131190   0.000000000000
 -3200.081072330   0.000000000000
 -3200.077278724   0.000000000000
 -3200.076192671   0.000000000000
 -3200.069394914   0.000000000000
 -3200.064390991   0.000000000000
 -3200.064339546   0.000000000000
 -3200.061529575   0.000000000000
 -3200.051483760   0.000000000000
 -3200.043599467   0.000000000000
 -3200.035279034   0.000000000000
 -3200.028751100   0.000000000000
 -3200.026181913   0.000000000000
 -3200.026015513   0.000000000000
 -3200.012980252   0.000000000000
 -3200.009164690   0.000000000000
 -3200.006509239   0.000000000000
 -3199.983115251   0.000000000000
 -3199.966534946   0.000000000000
 -3199.966000038   0.000000000000
 -3199.960315664   0.000000000000
 -3199.959708595   0.000000000000
 -3199.954387803   0.000000000000
 -3199.947313606   0.000000000000
 -3199.940062417   0.000000000000
 -3199.938642972   0.000000000000
 -3199.785137370   0.000000000000
 -3199.775782393   0.000000000000
 -3199.735843855   0.000000000000
 -3199.714299488   0.000000000000
 -3199.706453721   0.000000000000
 -3199.706009208   0.000000000000
   CI-PROBLEM SOLVED
   DENSITIES MADE
   E(CAS)= -3200.071139035 Eh DE=   -4.888006e-02
   --- Energy gap subspaces: Ext-Act = 0.241   Act-Int = 0.066
   N(occ)=  1.20000 1.20000 1.20000 1.20000 1.20000
   ||g|| =     3.320164e-01 Max(G)=    5.437573e-02 Rot=166,160
   --- Orbital Update [SuperCI(PT)]
   --- Canonicalize Internal Space
   --- Canonicalize External Space
   --- SX_PT (Skipped TA=0 IT=0): ||X|| =      0.181227767 Max(X)(166,163) =      0.045453701 
   --- SFit(Active Orbitals)

MACRO-ITERATION   6: 
   --- Inactive Energy E0 = -3192.90144857 Eh
CI-ITERATION   0: 
 -3200.177486519   0.000000000000 (    0.00)
 -3200.163465941   0.000000000000
 -3200.141854449   0.000000000000
 -3200.139083244   0.000000000000
 -3200.121331543   0.000000000000
   CI-PROBLEM SOLVED
   DENSITIES MADE
CI-ITERATION   0: 
 -3200.208544044   0.000000000000 (    0.00)
 -3200.203057366   0.000000000000
 -3200.197038845   0.000000000000
 -3200.170689528   0.000000000000
 -3200.145126254   0.000000000000
 -3200.144781200   0.000000000000
 -3200.143652171   0.000000000000
 -3200.141856743   0.000000000000
 -3200.113391993   0.000000000000
 -3200.112429373   0.000000000000
 -3200.108707841   0.000000000000
 -3200.107511871   0.000000000000
 -3200.104879159   0.000000000000
 -3200.101647032   0.000000000000
 -3200.096486173   0.000000000000
 -3200.095073556   0.000000000000
 -3200.090774118   0.000000000000
 -3200.086213862   0.000000000000
 -3200.085384698   0.000000000000
 -3200.082670063   0.000000000000
 -3200.076991622   0.000000000000
 -3200.071110831   0.000000000000
 -3200.067160696   0.000000000000
 -3200.059397691   0.000000000000
 -3200.053634690   0.000000000000
 -3200.051120822   0.000000000000
 -3200.042299295   0.000000000000
 -3200.026844457   0.000000000000
 -3200.026266905   0.000000000000
 -3200.025080581   0.000000000000
 -3199.999998834   0.000000000000
 -3199.991759150   0.000000000000
 -3199.979768200   0.000000000000
 -3199.951509016   0.000000000000
 -3199.949804627   0.000000000000
 -3199.942635911   0.000000000000
 -3199.934755326   0.000000000000
 -3199.932331501   0.000000000000
 -3199.927785141   0.000000000000
 -3199.820749088   0.000000000000
 -3199.812473187   0.000000000000
 -3199.765073089   0.000000000000
 -3199.677964755   0.000000000000
 -3199.662000099   0.000000000000
 -3199.659895440   0.000000000000
   CI-PROBLEM SOLVED
   DENSITIES MADE
   E(CAS)= -3200.085970246 Eh DE=   -1.483121e-02
   --- Energy gap subspaces: Ext-Act = 0.270   Act-Int = 0.073
   N(occ)=  1.20000 1.20000 1.20000 1.20000 1.20000
   ||g|| =     5.323190e-01 Max(G)=    5.652423e-02 Rot=166,160
   --- Orbital Update [SuperCI(PT)]
   --- Canonicalize Internal Space
   --- Canonicalize External Space
   --- SX_PT (Skipped TA=0 IT=0): ||X|| =      0.174197374 Max(X)(178,160) =      0.036228655 
   --- SFit(Active Orbitals)

MACRO-ITERATION   7: 
   --- Inactive Energy E0 = -3192.46839805 Eh
CI-ITERATION   0: 
 -3200.190396490   0.000000000000 (    0.00)
 -3200.177650110   0.000000000000
 -3200.168344458   0.000000000000
 -3200.166536676   0.000000000000
 -3200.129772950   0.000000000000
   CI-PROBLEM SOLVED
   DENSITIES MADE
CI-ITERATION   0: 
 -3200.221944229   0.000000000000 (    0.00)
 -3200.215785627   0.000000000000
 -3200.209144964   0.000000000000
 -3200.184349327   0.000000000000
 -3200.172136529   0.000000000000
 -3200.169793285   0.000000000000
 -3200.168579677   0.000000000000
 -3200.158540484   0.000000000000
 -3200.137325492   0.000000000000
 -3200.134010323   0.000000000000
 -3200.129880052   0.000000000000
 -3200.125156276   0.000000000000
 -3200.114500680   0.000000000000
 -3200.113950953   0.000000000000
 -3200.113601609   0.000000000000
 -3200.106839339   0.000000000000
 -3200.106273714   0.000000000000
 -3200.102267229   0.000000000000
 -3200.096961322   0.000000000000
 -3200.093782260   0.000000000000
 -3200.092082596   0.000000000000
 -3200.062122578   0.000000000000
 -3200.057172044   0.000000000000
 -3200.056910077   0.000000000000
 -3200.048758351   0.000000000000
 -3200.047915016   0.000000000000
 -3200.046332576   0.000000000000
 -3200.038002002   0.000000000000
 -3200.036625658   0.000000000000
 -3200.029275179   0.000000000000
 -3199.998018109   0.000000000000
 -3199.990300021   0.000000000000
 -3199.983718262   0.000000000000
 -3199.981477687   0.000000000000
 -3199.979843271   0.000000000000
 -3199.976564247   0.000000000000
 -3199.975720971   0.000000000000
 -3199.964976385   0.000000000000
 -3199.959294722   0.000000000000
 -3199.785739094   0.000000000000
 -3199.778314950   0.000000000000
 -3199.737249275   0.000000000000
 -3199.712896991   0.000000000000
 -3199.707275346   0.000000000000
 -3199.704739257   0.000000000000
   CI-PROBLEM SOLVED
   DENSITIES MADE
   E(CAS)= -3200.101338380 Eh DE=   -1.536813e-02
   --- Energy gap subspaces: Ext-Act = 0.269   Act-Int = 0.062
   N(occ)=  1.20000 1.20000 1.20000 1.20000 1.20000
   ||g|| =     1.556600e-01 Max(G)=    3.721412e-02 Rot=167,162
   --- Orbital Update [SuperCI(PT)]
   --- Canonicalize Internal Space
   --- Canonicalize External Space
   --- SX_PT (Skipped TA=0 IT=0): ||X|| =      0.100712525 Max(X)(171,162) =      0.041382967 
   --- SFit(Active Orbitals)

MACRO-ITERATION   8: 
   --- Inactive Energy E0 = -3192.42371551 Eh
CI-ITERATION   0: 
 -3200.192856631   0.000000000000 (    0.00)
 -3200.181346979   0.000000000000
 -3200.169008970   0.000000000000
 -3200.167126206   0.000000000000
 -3200.132365331   0.000000000000
   CI-PROBLEM SOLVED
   DENSITIES MADE
CI-ITERATION   0: 
 -3200.221476659   0.000000000000 (    0.00)
 -3200.215596514   0.000000000000
 -3200.208816608   0.000000000000
 -3200.188488993   0.000000000000
 -3200.173205588   0.000000000000
 -3200.170492665   0.000000000000
 -3200.169395166   0.000000000000
 -3200.158955473   0.000000000000
 -3200.136883271   0.000000000000
 -3200.133456001   0.000000000000
 -3200.131177262   0.000000000000
 -3200.126442390   0.000000000000
 -3200.118861870   0.000000000000
 -3200.116900430   0.000000000000
 -3200.116345645   0.000000000000
 -3200.108015873   0.000000000000
 -3200.107122394   0.000000000000
 -3200.106164306   0.000000000000
 -3200.100363638   0.000000000000
 -3200.095304217   0.000000000000
 -3200.093478936   0.000000000000
 -3200.064217077   0.000000000000
 -3200.060168665   0.000000000000
 -3200.059249886   0.000000000000
 -3200.050839258   0.000000000000
 -3200.050139259   0.000000000000
 -3200.048833193   0.000000000000
 -3200.041254944   0.000000000000
 -3200.040147262   0.000000000000
 -3200.030059813   0.000000000000
 -3199.999556157   0.000000000000
 -3199.996072413   0.000000000000
 -3199.986183855   0.000000000000
 -3199.983181333   0.000000000000
 -3199.980448292   0.000000000000
 -3199.978678917   0.000000000000
 -3199.974611440   0.000000000000
 -3199.959687926   0.000000000000
 -3199.952442504   0.000000000000
 -3199.800612838   0.000000000000
 -3199.793489285   0.000000000000
 -3199.753038104   0.000000000000
 -3199.709369487   0.000000000000
 -3199.704713660   0.000000000000
 -3199.701902109   0.000000000000
   CI-PROBLEM SOLVED
   DENSITIES MADE
   E(CAS)= -3200.103335318 Eh DE=   -1.996938e-03
   --- Energy gap subspaces: Ext-Act = 0.273   Act-Int = 0.065
   N(occ)=  1.20000 1.20000 1.20000 1.20000 1.20000
   ||g|| =     1.251853e-01 Max(G)=    3.547407e-02 Rot=167,162
   --- Orbital Update [SuperCI(PT)]
   --- Canonicalize Internal Space
   --- Canonicalize External Space
   --- SX_PT (Skipped TA=0 IT=0): ||X|| =      0.092779482 Max(X)(171,162) =      0.042856390 
   --- SFit(Active Orbitals)

MACRO-ITERATION   9: 
   --- Inactive Energy E0 = -3192.40049871 Eh
CI-ITERATION   0: 
 -3200.193634300   0.000000000000 (    0.00)
 -3200.182421616   0.000000000000
 -3200.169236435   0.000000000000
 -3200.167310314   0.000000000000
 -3200.133370992   0.000000000000
   CI-PROBLEM SOLVED
   DENSITIES MADE
CI-ITERATION   0: 
 -3200.221445015   0.000000000000 (    0.00)
 -3200.215656081   0.000000000000
 -3200.208804404   0.000000000000
 -3200.189580072   0.000000000000
 -3200.173609716   0.000000000000
 -3200.170764242   0.000000000000
 -3200.169673764   0.000000000000
 -3200.159004438   0.000000000000
 -3200.136605283   0.000000000000
 -3200.133133829   0.000000000000
 -3200.131553281   0.000000000000
 -3200.126863964   0.000000000000
 -3200.120157439   0.000000000000
 -3200.118008030   0.000000000000
 -3200.117175041   0.000000000000
 -3200.108377039   0.000000000000
 -3200.107431755   0.000000000000
 -3200.107010856   0.000000000000
 -3200.101310860   0.000000000000
 -3200.095586106   0.000000000000
 -3200.093824166   0.000000000000
 -3200.065100547   0.000000000000
 -3200.061118029   0.000000000000
 -3200.060218194   0.000000000000
 -3200.051659359   0.000000000000
 -3200.050847774   0.000000000000
 -3200.049785492   0.000000000000
 -3200.042234854   0.000000000000
 -3200.041283151   0.000000000000
 -3200.030326559   0.000000000000
 -3200.000208224   0.000000000000
 -3199.999240919   0.000000000000
 -3199.987360875   0.000000000000
 -3199.985041441   0.000000000000
 -3199.982900235   0.000000000000
 -3199.980247049   0.000000000000
 -3199.970811366   0.000000000000
 -3199.955924419   0.000000000000
 -3199.948424876   0.000000000000
 -3199.806937209   0.000000000000
 -3199.799918967   0.000000000000
 -3199.759501357   0.000000000000
 -3199.708207481   0.000000000000
 -3199.703863838   0.000000000000
 -3199.700896186   0.000000000000
   CI-PROBLEM SOLVED
   DENSITIES MADE
   E(CAS)= -3200.104015519 Eh DE=   -6.802008e-04
   --- Energy gap subspaces: Ext-Act = 0.274   Act-Int = 0.065
   N(occ)=  1.20000 1.20000 1.20000 1.20000 1.20000
   ||g|| =     1.264298e-01 Max(G)=    3.602071e-02 Rot=167,162
   --- Orbital Update [SuperCI(PT)]
   --- Canonicalize Internal Space
   --- Canonicalize External Space
   --- SX_PT (Skipped TA=0 IT=0): ||X|| =      0.091972497 Max(X)(171,162) =      0.044803736 
   --- SFit(Active Orbitals)

MACRO-ITERATION  10: 
   --- Inactive Energy E0 = -3192.34128140 Eh
CI-ITERATION   0: 
 -3200.195783184   0.000000000000 (    0.00)
 -3200.185088745   0.000000000000
 -3200.170199038   0.000000000000
 -3200.168115838   0.000000000000
 -3200.135319098   0.000000000000
   CI-PROBLEM SOLVED
   DENSITIES MADE
CI-ITERATION   0: 
 -3200.219811469   0.000000000000 (    0.00)
 -3200.214245192   0.000000000000
 -3200.207290300   0.000000000000
 -3200.192460601   0.000000000000
 -3200.174820254   0.000000000000
 -3200.171667529   0.000000000000
 -3200.170673017   0.000000000000
 -3200.158959394   0.000000000000
 -3200.136064699   0.000000000000
 -3200.132922552   0.000000000000
 -3200.132382504   0.000000000000
 -3200.128351059   0.000000000000
 -3200.123986695   0.000000000000
 -3200.121493817   0.000000000000
 -3200.119737903   0.000000000000
 -3200.110765828   0.000000000000
 -3200.108763906   0.000000000000
 -3200.107884493   0.000000000000
 -3200.103835485   0.000000000000
 -3200.096481277   0.000000000000
 -3200.093768635   0.000000000000
 -3200.066888407   0.000000000000
 -3200.063663289   0.000000000000
 -3200.062080638   0.000000000000
 -3200.053092914   0.000000000000
 -3200.052789416   0.000000000000
 -3200.051371638   0.000000000000
 -3200.045573381   0.000000000000
 -3200.045009703   0.000000000000
 -3200.031192291   0.000000000000
 -3200.009390041   0.000000000000
 -3200.001906634   0.000000000000
 -3199.992555075   0.000000000000
 -3199.992092129   0.000000000000
 -3199.988117501   0.000000000000
 -3199.983077464   0.000000000000
 -3199.960202011   0.000000000000
 -3199.944955480   0.000000000000
 -3199.937023204   0.000000000000
 -3199.825389945   0.000000000000
 -3199.818522610   0.000000000000
 -3199.777486578   0.000000000000
 -3199.708193450   0.000000000000
 -3199.704220147   0.000000000000
 -3199.700749563   0.000000000000
   CI-PROBLEM SOLVED
   DENSITIES MADE
   E(CAS)= -3200.105916258 Eh DE=   -1.900739e-03
   --- Energy gap subspaces: Ext-Act = 0.278   Act-Int = 0.066
   N(occ)=  1.20000 1.20000 1.20000 1.20000 1.20000
   ||g|| =     1.211158e-01 Max(G)=    3.791309e-02 Rot=167,162
   --- Orbital Update [SuperCI(PT)]
   --- Canonicalize Internal Space
   --- Canonicalize External Space
   --- SX_PT (Skipped TA=0 IT=0): ||X|| =      0.089613106 Max(X)(171,162) =      0.048771619 
   --- SFit(Active Orbitals)

MACRO-ITERATION  11: 
   --- Inactive Energy E0 = -3192.38515974 Eh
CI-ITERATION   0: 
 -3200.194127517   0.000000000000 (    0.00)
 -3200.182931029   0.000000000000
 -3200.169723273   0.000000000000
 -3200.167857976   0.000000000000
 -3200.133290328   0.000000000000
   CI-PROBLEM SOLVED
   DENSITIES MADE
CI-ITERATION   0: 
 -3200.221339009   0.000000000000 (    0.00)
 -3200.215628830   0.000000000000
 -3200.208778830   0.000000000000
 -3200.190185445   0.000000000000
 -3200.174268227   0.000000000000
 -3200.171195899   0.000000000000
 -3200.170170674   0.000000000000
 -3200.159405478   0.000000000000
 -3200.136981288   0.000000000000
 -3200.133599281   0.000000000000
 -3200.131941076   0.000000000000
 -3200.127275153   0.000000000000
 -3200.120501853   0.000000000000
 -3200.118426042   0.000000000000
 -3200.117593736   0.000000000000
 -3200.108646728   0.000000000000
 -3200.107790107   0.000000000000
 -3200.107363386   0.000000000000
 -3200.101654029   0.000000000000
 -3200.095861954   0.000000000000
 -3200.093616026   0.000000000000
 -3200.064296608   0.000000000000
 -3200.060949162   0.000000000000
 -3200.059542172   0.000000000000
 -3200.051156246   0.000000000000
 -3200.050697119   0.000000000000
 -3200.049284498   0.000000000000
 -3200.042594835   0.000000000000
 -3200.041481901   0.000000000000
 -3200.030176844   0.000000000000
 -3199.999733242   0.000000000000
 -3199.999566330   0.000000000000
 -3199.987053934   0.000000000000
 -3199.985164052   0.000000000000
 -3199.983327115   0.000000000000
 -3199.980263823   0.000000000000
 -3199.971513037   0.000000000000
 -3199.956179073   0.000000000000
 -3199.948938021   0.000000000000
 -3199.805708719   0.000000000000
 -3199.798839581   0.000000000000
 -3199.758861218   0.000000000000
 -3199.708111026   0.000000000000
 -3199.704340188   0.000000000000
 -3199.701407810   0.000000000000
   CI-PROBLEM SOLVED
   DENSITIES MADE
   E(CAS)= -3200.104253119 Eh DE=    1.663139e-03
   --- Energy gap subspaces: Ext-Act = 0.275   Act-Int = 0.065
   N(occ)=  1.20000 1.20000 1.20000 1.20000 1.20000
   ||g|| =     1.259018e-01 Max(G)=    3.686239e-02 Rot=167,162
   --- Orbital Update [SuperCI(PT)]
   --- Canonicalize Internal Space
   --- Canonicalize External Space
   --- SX_PT (Skipped TA=0 IT=0): ||X|| =      0.091319721 Max(X)(171,162) =      0.045791000 
   --- SFit(Active Orbitals)

MACRO-ITERATION  12: 
   --- Inactive Energy E0 = -3192.77515112 Eh
CI-ITERATION   0: 
 -3200.189163486   0.000000000000 (    0.00)
 -3200.171764104   0.000000000000
 -3200.170993879   0.000000000000
 -3200.153898131   0.000000000000
 -3200.122092043   0.000000000000
   CI-PROBLEM SOLVED
   DENSITIES MADE
CI-ITERATION   0: 
 -3200.212781292   0.000000000000 (    0.00)
 -3200.206725544   0.000000000000
 -3200.202398099   0.000000000000
 -3200.177934057   0.000000000000
 -3200.173555924   0.000000000000
 -3200.172707894   0.000000000000
 -3200.170659035   0.000000000000
 -3200.164324550   0.000000000000
 -3200.152711075   0.000000000000
 -3200.152264345   0.000000000000
 -3200.131209503   0.000000000000
 -3200.128844761   0.000000000000
 -3200.114744529   0.000000000000
 -3200.112826737   0.000000000000
 -3200.110670440   0.000000000000
 -3200.104617677   0.000000000000
 -3200.092564309   0.000000000000
 -3200.091813858   0.000000000000
 -3200.088416292   0.000000000000
 -3200.075264268   0.000000000000
 -3200.071620220   0.000000000000
 -3200.067349072   0.000000000000
 -3200.061628286   0.000000000000
 -3200.054038509   0.000000000000
 -3200.048410873   0.000000000000
 -3200.045606314   0.000000000000
 -3200.042820922   0.000000000000
 -3200.041460172   0.000000000000
 -3200.036034528   0.000000000000
 -3200.030902198   0.000000000000
 -3200.018527853   0.000000000000
 -3200.001677766   0.000000000000
 -3199.997823543   0.000000000000
 -3199.991838030   0.000000000000
 -3199.972110647   0.000000000000
 -3199.969913666   0.000000000000
 -3199.861471490   0.000000000000
 -3199.858648305   0.000000000000
 -3199.854568752   0.000000000000
 -3199.709078048   0.000000000000
 -3199.707061502   0.000000000000
 -3199.706180000   0.000000000000
 -3199.608509347   0.000000000000
 -3199.607575548   0.000000000000
 -3199.569907391   0.000000000000
   CI-PROBLEM SOLVED
   DENSITIES MADE
   E(CAS)= -3200.089366688 Eh DE=    1.488643e-02
   --- Energy gap subspaces: Ext-Act = 0.255   Act-Int = 0.022
   N(occ)=  1.20000 1.20000 1.20000 1.20000 1.20000
   ||g|| =     1.622042e-01 Max(G)=    2.627733e-02 Rot=167,162
   --- Orbital Update [SuperCI(PT)]
   --- Canonicalize Internal Space
   --- Canonicalize External Space
   --- SX_PT (Skipped TA=0 IT=0): ||X|| =      0.103822798 Max(X)(178,162) =     -0.021002200 
   --- SFit(Active Orbitals)

MACRO-ITERATION  13: 
   --- Inactive Energy E0 = -3193.13693515 Eh
CI-ITERATION   0: 
 -3200.182487948   0.000000000000 (    0.00)
 -3200.161053363   0.000000000000
 -3200.158715305   0.000000000000
 -3200.131388165   0.000000000000
 -3200.122597781   0.000000000000
   CI-PROBLEM SOLVED
   DENSITIES MADE
CI-ITERATION   0: 
 -3200.177103442   0.000000000000 (    0.00)
 -3200.174705681   0.000000000000
 -3200.170523389   0.000000000000
 -3200.169775371   0.000000000000
 -3200.168718264   0.000000000000
 -3200.163139286   0.000000000000
[...]
      f0      :     0.000660  f :     0.005229
      f+1     :     0.000724
      f-1     :     0.000762
      f+2     :     0.000663
      f-2     :     0.000857
      f+3     :     0.000721
      f-3     :     0.000842
 16 Crs       :     6.220308  s :     6.220308
      pz      :     4.201849  p :    12.553777
      px      :     4.166738
      py      :     4.185190
      dz2     :     0.942123  d :     6.299236
      dxz     :     1.319393
      dyz     :     1.508718
      dx2y2   :     1.387025
      dxy     :     1.141976
      f0      :     0.000315  f :     0.001715
      f+1     :     0.000180
      f-1     :     0.000288
      f+2     :     0.000226
      f-2     :     0.000304
      f+3     :     0.000218
      f-3     :     0.000183

SPIN
  0 Aus       :     0.001271  s :     0.001271
      pz      :     0.004289  p :     0.021958
      px      :     0.013660
      py      :     0.004009
      dz2     :     0.002992  d :     0.013785
      dxz     :     0.002174
      dyz     :     0.002888
      dx2y2   :     0.004138
      dxy     :     0.001593
      f0      :     0.000048  f :     0.000424
      f+1     :     0.000037
      f-1     :     0.000099
      f+2     :     0.000065
      f-2     :     0.000109
      f+3     :     0.000032
      f-3     :     0.000034
  1 Aus       :     0.015200  s :     0.015200
      pz      :     0.004060  p :     0.040543
      px      :     0.020686
      py      :     0.015797
      dz2     :     0.004432  d :     0.014148
      dxz     :     0.004153
      dyz     :     0.002245
      dx2y2   :     0.002091
      dxy     :     0.001226
      f0      :     0.000123  f :     0.000298
      f+1     :     0.000100
      f-1     :     0.000032
      f+2     :     0.000017
      f-2     :     0.000020
      f+3     :     0.000002
      f-3     :     0.000004
  2 Aus       :     0.007751  s :     0.007751
      pz      :     0.000968  p :     0.025126
      px      :     0.021590
      py      :     0.002568
      dz2     :     0.000822  d :     0.006120
      dxz     :     0.000530
      dyz     :     0.001378
      dx2y2   :     0.000826
      dxy     :     0.002565
      f0      :     0.000011  f :     0.000036
      f+1     :     0.000004
      f-1     :     0.000002
      f+2     :     0.000002
      f-2     :     0.000001
      f+3     :     0.000007
      f-3     :     0.000008
  3 Aus       :     0.015802  s :     0.015802
      pz      :     0.026981  p :     0.040182
      px      :     0.006641
      py      :     0.006560
      dz2     :     0.001299  d :     0.014073
      dxz     :     0.002998
      dyz     :     0.002108
      dx2y2   :     0.003443
      dxy     :     0.004225
      f0      :     0.000011  f :     0.000295
      f+1     :     0.000013
      f-1     :     0.000054
      f+2     :     0.000008
      f-2     :     0.000038
      f+3     :     0.000084
      f-3     :     0.000086
  4 Aus       :     0.027461  s :     0.027461
      pz      :     0.003161  p :     0.016618
      px      :     0.003743
      py      :     0.009713
      dz2     :     0.002419  d :     0.013633
      dxz     :     0.001171
      dyz     :     0.004001
      dx2y2   :     0.002784
      dxy     :     0.003258
      f0      :     0.000024  f :     0.000292
      f+1     :     0.000022
      f-1     :     0.000098
      f+2     :     0.000053
      f-2     :     0.000057
      f+3     :     0.000023
      f-3     :     0.000014
  5 Aus       :     0.022366  s :     0.022366
      pz      :     0.008727  p :     0.012232
      px      :     0.001822
      py      :     0.001683
      dz2     :     0.000742  d :     0.005370
      dxz     :     0.002470
      dyz     :     0.001278
      dx2y2   :     0.000552
      dxy     :     0.000328
      f0      :     0.000003  f :     0.000033
      f+1     :     0.000005
      f-1     :     0.000003
      f+2     :     0.000002
      f-2     :     0.000012
      f+3     :     0.000002
      f-3     :     0.000007
  6 Aus       :     0.002659  s :     0.002659
      pz      :     0.001228  p :     0.005295
      px      :     0.000746
      py      :     0.003321
      dz2     :     0.002606  d :     0.010205
      dxz     :     0.002646
      dyz     :     0.001253
      dx2y2   :     0.002751
      dxy     :     0.000948
      f0      :     0.000148  f :     0.000295
      f+1     :     0.000067
      f-1     :     0.000037
      f+2     :     0.000020
      f-2     :     0.000016
      f+3     :     0.000001
      f-3     :     0.000006
  7 Aus       :     0.010267  s :     0.010267
      pz      :     0.002205  p :     0.007928
      px      :     0.004062
      py      :     0.001661
      dz2     :     0.001343  d :     0.009395
      dxz     :     0.001365
      dyz     :     0.002168
      dx2y2   :     0.002547
      dxy     :     0.001972
      f0      :     0.000051  f :     0.000371
      f+1     :     0.000029
      f-1     :     0.000023
      f+2     :     0.000022
      f-2     :     0.000098
      f+3     :     0.000064
      f-3     :     0.000085
  8 Aus       :     0.001277  s :     0.001277
      pz      :     0.010585  p :     0.022176
      px      :     0.005276
      py      :     0.006314
      dz2     :     0.003306  d :     0.013892
      dxz     :     0.001511
      dyz     :     0.002348
      dx2y2   :     0.004110
      dxy     :     0.002616
      f0      :     0.000048  f :     0.000424
      f+1     :     0.000033
      f-1     :     0.000041
      f+2     :     0.000071
      f-2     :     0.000109
      f+3     :     0.000044
      f-3     :     0.000078
  9 Aus       :     0.002338  s :     0.002338
      pz      :     0.003079  p :     0.005067
      px      :     0.001393
      py      :     0.000595
      dz2     :     0.002860  d :     0.010209
      dxz     :     0.001127
      dyz     :     0.000997
      dx2y2   :     0.002546
      dxy     :     0.002679
      f0      :     0.000019  f :     0.000295
      f+1     :     0.000014
      f-1     :     0.000058
      f+2     :     0.000008
      f-2     :     0.000030
      f+3     :     0.000104
      f-3     :     0.000063
 10 Aus       :     0.013759  s :     0.013759
      pz      :     0.001360  p :     0.045465
      px      :     0.021283
      py      :     0.022822
      dz2     :     0.000440  d :     0.004796
      dxz     :     0.000242
      dyz     :     0.000650
      dx2y2   :     0.002918
      dxy     :     0.000546
      f0      :     0.000004  f :     0.000017
      f+1     :     0.000001
      f-1     :     0.000003
      f+2     :     0.000004
      f-2     :     0.000001
      f+3     :     0.000003
      f-3     :     0.000002
 11 Aus       :     0.019252  s :     0.019252
      pz      :     0.000854  p :     0.024804
      px      :     0.021028
      py      :     0.002923
      dz2     :     0.001695  d :     0.014648
      dxz     :     0.003018
      dyz     :     0.002219
      dx2y2   :     0.002020
      dxy     :     0.005696
      f0      :     0.000036  f :     0.000243
      f+1     :     0.000023
      f-1     :     0.000001
      f+2     :     0.000063
      f-2     :     0.000033
      f+3     :     0.000057
      f-3     :     0.000029
 12 Aus       :     0.014068  s :     0.014068
      pz      :     0.035885  p :     0.045339
      px      :     0.006270
      py      :     0.003184
      dz2     :     0.000937  d :     0.004760
      dxz     :     0.002401
      dyz     :     0.000324
      dx2y2   :     0.000844
      dxy     :     0.000255
      f0      :     0.000002  f :     0.000017
      f+1     :     0.000002
      f-1     :     0.000000
      f+2     :     0.000001
      f-2     :     0.000007
      f+3     :     0.000003
      f-3     :     0.000003
 13 Aus       :     0.005836  s :     0.005836
      pz      :     0.005641  p :     0.013845
      px      :     0.004539
      py      :     0.003665
      dz2     :     0.000103  d :     0.005594
      dxz     :     0.001068
      dyz     :     0.003980
      dx2y2   :     0.000227
      dxy     :     0.000217
      f0      :     0.000003  f :     0.000032
      f+1     :     0.000005
      f-1     :     0.000007
      f+2     :     0.000012
      f-2     :     0.000001
      f+3     :     0.000002
      f-3     :     0.000001
 14 Aus       :     0.022791  s :     0.022791
      pz      :     0.001261  p :     0.012197
      px      :     0.003618
      py      :     0.007319
      dz2     :     0.000322  d :     0.005402
      dxz     :     0.000402
      dyz     :     0.000578
      dx2y2   :     0.002948
      dxy     :     0.001152
      f0      :     0.000001  f :     0.000034
      f+1     :     0.000009
      f-1     :     0.000001
      f+2     :     0.000012
      f-2     :     0.000002
      f+3     :     0.000003
      f-3     :     0.000004
 15 Aus       :     0.026726  s :     0.026726
      pz      :     0.012124  p :     0.017059
      px      :     0.002092
      py      :     0.002843
      dz2     :     0.000766  d :     0.013518
      dxz     :     0.003202
      dyz     :     0.004413
      dx2y2   :     0.001950
      dxy     :     0.003188
      f0      :     0.000040  f :     0.000291
      f+1     :     0.000015
      f-1     :     0.000019
      f+2     :     0.000040
      f-2     :     0.000099
      f+3     :     0.000038
      f-3     :     0.000040
 16 Crs       :     0.001154  s :     0.001154
      pz      :     0.002447  p :     0.009130
      px      :     0.005578
      py      :     0.001105
      dz2     :     0.237654  d :     2.262104
      dxz     :     0.500658
      dyz     :     0.577296
      dx2y2   :     0.559494
      dxy     :     0.387001
      f0      :     0.000000  f :     0.000008
      f+1     :     0.000001
      f-1     :     0.000001
      f+2     :     0.000003
      f-2     :     0.000000
      f+3     :     0.000003
      f-3     :     0.000000


                      *****************************
                      * MAYER POPULATION ANALYSIS *
                      *****************************

  NA   - Mulliken gross atomic population
  ZA   - Total nuclear charge
  QA   - Mulliken gross atomic charge
  VA   - Mayer's total valence
  BVA  - Mayer's bonded valence
  FA   - Mayer's free valence

  ATOM       NA         ZA         QA         VA         BVA        FA
  0 Au    18.4476    19.0000     0.5524     1.1937     1.1767     0.0169
  1 Au    18.9112    19.0000     0.0888     1.7131     1.6361     0.0770
  2 Au    18.9356    19.0000     0.0644     1.4178     1.3934     0.0245
  3 Au    18.9080    19.0000     0.0920     1.7140     1.6368     0.0771
  4 Au    18.9020    19.0000     0.0980     1.8061     1.7326     0.0735
  5 Au    18.8401    19.0000     0.1599     1.3541     1.3071     0.0470
  6 Au    18.2688    19.0000     0.7312     1.0216     1.0135     0.0081
  7 Au    18.6143    19.0000     0.3857     1.1942     1.1728     0.0215
  8 Au    18.4491    19.0000     0.5509     1.1967     1.1798     0.0170
  9 Au    18.2699    19.0000     0.7301     1.0221     1.0144     0.0077
 10 Au    18.9014    19.0000     0.0986     1.4047     1.3520     0.0527
 11 Au    19.0925    19.0000    -0.0925     1.8468     1.7738     0.0731
 12 Au    18.9025    19.0000     0.0975     1.4083     1.3548     0.0534
 13 Au    18.7936    19.0000     0.2064     1.4151     1.3995     0.0156
 14 Au    18.8381    19.0000     0.1619     1.3527     1.3045     0.0482
 15 Au    18.9018    19.0000     0.0982     1.8042     1.7317     0.0725
 16 Cr    28.0232    24.0000    -4.0232     9.0197     5.3668     3.6530

  Mayer bond orders larger than 0.100000
B(  0-Au,  1-Au) :   0.2450 B(  0-Au,  4-Au) :   0.1367 B(  0-Au,  7-Au) :   0.1691 
B(  0-Au, 15-Au) :   0.1129 B(  0-Au, 16-Cr) :   0.3352 B(  1-Au,  2-Au) :   0.1994 
B(  1-Au,  3-Au) :   0.2457 B(  1-Au, 14-Au) :   0.1220 B(  1-Au, 15-Au) :   0.1110 
B(  1-Au, 16-Cr) :   0.4341 B(  2-Au,  3-Au) :   0.1993 B(  2-Au,  5-Au) :   0.2087 
B(  2-Au, 13-Au) :   0.2565 B(  2-Au, 14-Au) :   0.2094 B(  2-Au, 16-Cr) :   0.3070 
B(  3-Au,  4-Au) :   0.1146 B(  3-Au,  5-Au) :   0.1236 B(  3-Au,  8-Au) :   0.2438 
B(  3-Au, 16-Cr) :   0.4320 B(  4-Au,  5-Au) :   0.2249 B(  4-Au,  6-Au) :   0.1609 
B(  4-Au,  8-Au) :   0.1130 B(  4-Au, 10-Au) :   0.2012 B(  4-Au, 11-Au) :   0.1461 
B(  4-Au, 16-Cr) :   0.4429 B(  5-Au, 10-Au) :   0.2072 B(  5-Au, 13-Au) :   0.2156 
B(  5-Au, 16-Cr) :   0.2895 B(  6-Au, 11-Au) :   0.1442 B(  6-Au, 16-Cr) :   0.2876 
B(  7-Au,  8-Au) :   0.1702 B(  7-Au, 16-Cr) :   0.3602 B(  8-Au, 15-Au) :   0.1374 
B(  8-Au, 16-Cr) :   0.3361 B(  9-Au, 11-Au) :   0.1443 B(  9-Au, 15-Au) :   0.1620 
B(  9-Au, 16-Cr) :   0.2872 B( 10-Au, 11-Au) :   0.2605 B( 10-Au, 12-Au) :   0.1876 
B( 10-Au, 13-Au) :   0.2468 B( 10-Au, 16-Cr) :   0.2717 B( 11-Au, 12-Au) :   0.2584 
B( 11-Au, 15-Au) :   0.1465 B( 11-Au, 16-Cr) :   0.5005 B( 12-Au, 13-Au) :   0.2495 
B( 12-Au, 14-Au) :   0.2083 B( 12-Au, 15-Au) :   0.2031 B( 12-Au, 16-Cr) :   0.2710 
B( 13-Au, 14-Au) :   0.2134 B( 14-Au, 15-Au) :   0.2228 B( 14-Au, 16-Cr) :   0.2913 
B( 15-Au, 16-Cr) :   0.4425 


-------------------------------------------------------------
 Forming the transition density       ... done in 0.129902 sec
-------------------------------------------------------------



==========================================
CASSCF UV, CD spectra and dipole moments
==========================================
-------------------
ABSORPTION SPECTRUM
-------------------

Center of mass           = ( 14.6097, 15.2959, 15.0194)
Nuclear contribution to the dipole moment =   -33.653251,  -26.057297,  -11.797198 au

Calculating the Dipole integrals                  ... done
Transforming integrals                            ... done
Calculating the Linear Momentum integrals         ... done
Transforming integrals                            ... done
Calculating the Angular Momentum integrals        ... done
Transforming integrals                            ... done

------------------------------------------------------------------------------------------
                                ABSORPTION SPECTRUM
------------------------------------------------------------------------------------------
  States           Energy   Wavelength   fosc          T2        TX         TY        TZ  
                   (cm-1)     (nm)                   (D**2)      (D)        (D)       (D) 
------------------------------------------------------------------------------------------
  0( 0)-> 1( 0) 5    8147.4   1227.4   0.000000737   0.00019  -0.01222  -0.00006  -0.00654
  0( 0)-> 2( 0) 5    8433.2   1185.8   0.000982466   0.24739   0.45599   0.19715   0.02437
  0( 0)-> 3( 0) 5    9279.6   1077.6   0.002115908   0.48420  -0.65479  -0.23529   0.00942
  0( 0)-> 4( 0) 5   12566.5    795.8   0.091343224  15.43533  -2.83387  -2.44150  -1.20149
------------------------------------------------------------------------------------------



------------------------------------------------------------------------------
                             CD SPECTRUM
------------------------------------------------------------------------------
      States        Energy   Wavelength   R*T        RX        RY        RZ   
                    (cm-1)      (nm)   (1e40*sgs)   (au)      (au)      (au)  
------------------------------------------------------------------------------
  0( 0)-> 1( 0) 5    8147.4   1227.4    -0.35594   0.28482  -0.16364  -0.23707
  0( 0)-> 2( 0) 5    8433.2   1185.8     0.69263   0.02271  -0.03724   0.02962
  0( 0)-> 3( 0) 5    9279.6   1077.6    -0.15591  -0.02428   0.06772  -0.08522
  0( 0)-> 4( 0) 5   12566.5    795.8     0.89380  -0.01937   0.04784  -0.05554
------------------------------------------------------------------------------

------------------------------------------------------------------------------
                                 DIPOLE MOMENTS
------------------------------------------------------------------------------
  Root  Block           TX        TY        TZ           |T|
                      (Debye)   (Debye)   (Debye)      (Debye)
------------------------------------------------------------------------------
    0    0           -2.41558  -2.78074  -1.64018      4.03209

--------------
CASSCF TIMINGS
--------------

Total time                       ...    11058.5 sec
Sum of individual times          ...    11033.4 sec ( 99.8%)

Calculation of AO operators
   F(Core) operator              ...     5406.7 sec ( 48.9%)
   G(Act) operator               ...     5172.5 sec ( 46.8%)
   J(AO) operators               ...        0.0 sec (  0.0%)
Calculation of MO transformed quantities
   J(MO) operators               ...      421.4 sec (  3.8%)
   (pq|rs) integrals             ...        0.0 sec (  0.0%)
   AO->MO one electron integrals ...        3.3 sec (  0.0%)
Configuration interaction steps
   CI-setup phase                ...        0.0 sec (  0.0%)
   CI-solution phase             ...        5.9 sec (  0.1%)
   Generation of densities       ...        0.7 sec (  0.0%)
Orbital improvement steps
   Orbital gradient              ...        1.0 sec (  0.0%)
   O(1) converger                ...       21.7 sec (  0.2%)
Properties                       ...        0.1 sec (  0.0%)
   SOC integral calculation      ...        0.0 sec (  0.0%)
   SSC RMEs (incl. integrals)    ...        0.0 sec (  0.0%)
   SOC RMEs                      ...        0.0 sec (  0.0%)

Maximum memory used throughout the entire CASSCF-calculation: 446.4 MB

-------------------------   --------------------
FINAL SINGLE POINT ENERGY     -3200.126840337220
-------------------------   --------------------


                            ***************************************
                            *     ORCA property calculations      *
                            ***************************************

                                    ---------------------
                                    Active property flags
                                    ---------------------
   (+) Dipole Moment


------------------------------------------------------------------------------
                       ORCA ELECTRIC PROPERTIES CALCULATION
------------------------------------------------------------------------------

Dipole Moment Calculation                       ... on
Quadrupole Moment Calculation                   ... off
Polarizability Calculation                      ... off
GBWName                                         ... casscf.gbw
Electron density                                ... casscf.scfp
The origin for moment calculation is the CENTER OF MASS  = (14.609710, 15.295905 15.019383)

-------------
DIPOLE MOMENT
-------------
                                X             Y             Z
Electronic contribution:     33.06077      25.50601      11.50645
Nuclear contribution   :    -33.65325     -26.05730     -11.79720
                        -----------------------------------------
Total Dipole Moment    :     -0.59248      -0.55129      -0.29075
                        -----------------------------------------
Magnitude (a.u.)       :      0.85994
Magnitude (Debye)      :      2.18579



--------------------
Rotational spectrum 
--------------------
 
Rotational constants in cm-1:     0.001036     0.000728     0.000692 
Rotational constants in MHz :    31.059646    21.811119    20.739945 

 Dipole components along the rotational axes: 
x,y,z [a.u.] :     0.853220     0.001345     0.107263 
x,y,z [Debye]:     2.168713     0.003418     0.272641 

 

Timings for individual modules:

Sum of individual times         ...    11098.262 sec (= 184.971 min)
GTO integral calculation        ...       24.162 sec (=   0.403 min)   0.2 %
SCF iterations                  ...       10.687 sec (=   0.178 min)   0.1 %
CASSCF iterations               ...    11063.413 sec (= 184.390 min)  99.7 %
                             ****ORCA TERMINATED NORMALLY****
TOTAL RUN TIME: 0 days 3 hours 4 minutes 59 seconds 35 msec
