
                                 *****************
                                 * O   R   C   A *
                                 *****************

                                            #,                                       
                                            ###                                      
                                            ####                                     
                                            #####                                    
                                            ######                                   
                                           ########,                                 
                                     ,,################,,,,,                         
                               ,,#################################,,                 
                          ,,##########################################,,             
                       ,#########################################, ''#####,          
                    ,#############################################,,   '####,        
                  ,##################################################,,,,####,       
                ,###########''''           ''''###############################       
              ,#####''   ,,,,##########,,,,          '''####'''          '####       
            ,##' ,,,,###########################,,,                        '##       
           ' ,,###''''                  '''############,,,                           
         ,,##''                                '''############,,,,        ,,,,,,###''
      ,#''                                            '''#######################'''  
     '                                                          ''''####''''         
             ,#######,   #######,   ,#######,      ##                                
            ,#'     '#,  ##    ##  ,#'     '#,    #''#        ######   ,####,        
            ##       ##  ##   ,#'  ##            #'  '#       #        #'  '#        
            ##       ##  #######   ##           ,######,      #####,   #    #        
            '#,     ,#'  ##    ##  '#,     ,#' ,#      #,         ##   #,  ,#        
             '#######'   ##     ##  '#######'  #'      '#     #####' # '####'        



                  #######################################################
                  #                        -***-                        #
                  #          Department of theory and spectroscopy      #
                  #    Directorship and core code : Frank Neese         #
                  #        Max Planck Institute fuer Kohlenforschung    #
                  #                Kaiser Wilhelm Platz 1               #
                  #                 D-45470 Muelheim/Ruhr               #
                  #                      Germany                        #
                  #                                                     #
                  #                  All rights reserved                #
                  #                        -***-                        #
                  #######################################################


                         Program Version 5.0.3 -  RELEASE  -


 With contributions from (in alphabetic order):
   Daniel Aravena         : Magnetic Suceptibility
   Michael Atanasov       : Ab Initio Ligand Field Theory (pilot matlab implementation)
   Alexander A. Auer      : GIAO ZORA, VPT2 properties, NMR spectrum
   Ute Becker             : Parallelization
   Giovanni Bistoni       : ED, misc. LED, open-shell LED, HFLD
   Martin Brehm           : Molecular dynamics
   Dmytro Bykov           : SCF Hessian
   Vijay G. Chilkuri      : MRCI spin determinant printing, contributions to CSF-ICE
   Dipayan Datta          : RHF DLPNO-CCSD density
   Achintya Kumar Dutta   : EOM-CC, STEOM-CC
   Dmitry Ganyushin       : Spin-Orbit,Spin-Spin,Magnetic field MRCI
   Miquel Garcia          : C-PCM and meta-GGA Hessian, CC/C-PCM, Gaussian charge scheme
   Yang Guo               : DLPNO-NEVPT2, F12-NEVPT2, CIM, IAO-localization
   Andreas Hansen         : Spin unrestricted coupled pair/coupled cluster methods
   Benjamin Helmich-Paris : MC-RPA, TRAH-SCF, COSX integrals
   Lee Huntington         : MR-EOM, pCC
   Robert Izsak           : Overlap fitted RIJCOSX, COSX-SCS-MP3, EOM
   Marcus Kettner         : VPT2
   Christian Kollmar      : KDIIS, OOCD, Brueckner-CCSD(T), CCSD density, CASPT2, CASPT2-K
   Simone Kossmann        : Meta GGA functionals, TD-DFT gradient, OOMP2, MP2 Hessian
   Martin Krupicka        : Initial AUTO-CI
   Lucas Lang             : DCDCAS
   Marvin Lechner         : AUTO-CI (C++ implementation), FIC-MRCC
   Dagmar Lenk            : GEPOL surface, SMD
   Dimitrios Liakos       : Extrapolation schemes; Compound Job, initial MDCI parallelization
   Dimitrios Manganas     : Further ROCIS development; embedding schemes
   Dimitrios Pantazis     : SARC Basis sets
   Anastasios Papadopoulos: AUTO-CI, single reference methods and gradients
   Taras Petrenko         : DFT Hessian,TD-DFT gradient, ASA, ECA, R-Raman, ABS, FL, XAS/XES, NRVS
   Peter Pinski           : DLPNO-MP2, DLPNO-MP2 Gradient
   Christoph Reimann      : Effective Core Potentials
   Marius Retegan         : Local ZFS, SOC
   Christoph Riplinger    : Optimizer, TS searches, QM/MM, DLPNO-CCSD(T), (RO)-DLPNO pert. Triples
   Tobias Risthaus        : Range-separated hybrids, TD-DFT gradient, RPA, STAB
   Michael Roemelt        : Original ROCIS implementation
   Masaaki Saitow         : Open-shell DLPNO-CCSD energy and density
   Barbara Sandhoefer     : DKH picture change effects
   Avijit Sen             : IP-ROCIS
   Kantharuban Sivalingam : CASSCF convergence, NEVPT2, FIC-MRCI
   Bernardo de Souza      : ESD, SOC TD-DFT
   Georgi Stoychev        : AutoAux, RI-MP2 NMR, DLPNO-MP2 response
   Willem Van den Heuvel  : Paramagnetic NMR
   Boris Wezisla          : Elementary symmetry handling
   Frank Wennmohs         : Technical directorship


 We gratefully acknowledge several colleagues who have allowed us to
 interface, adapt or use parts of their codes:
   Stefan Grimme, W. Hujo, H. Kruse, P. Pracht,  : VdW corrections, initial TS optimization,
                  C. Bannwarth, S. Ehlert          DFT functionals, gCP, sTDA/sTD-DF
   Ed Valeev, F. Pavosevic, A. Kumar             : LibInt (2-el integral package), F12 methods
   Garnet Chan, S. Sharma, J. Yang, R. Olivares  : DMRG
   Ulf Ekstrom                                   : XCFun DFT Library
   Mihaly Kallay                                 : mrcc  (arbitrary order and MRCC methods)
   Jiri Pittner, Ondrej Demel                    : Mk-CCSD
   Frank Weinhold                                : gennbo (NPA and NBO analysis)
   Christopher J. Cramer and Donald G. Truhlar   : smd solvation model
   Lars Goerigk                                  : TD-DFT with DH, B97 family of functionals
   V. Asgeirsson, H. Jonsson                     : NEB implementation
   FAccTs GmbH                                   : IRC, NEB, NEB-TS, DLPNO-Multilevel, CI-OPT
                                                   MM, QMMM, 2- and 3-layer-ONIOM, Crystal-QMMM,
                                                   LR-CPCM, SF, NACMEs, symmetry and pop. for TD-DFT,
                                                   nearIR, NL-DFT gradient (VV10), updates on ESD,
                                                   ML-optimized integration grids
   S Lehtola, MJT Oliveira, MAL Marques          : LibXC Library
   Liviu Ungur et al                             : ANISO software


 Your calculation uses the libint2 library for the computation of 2-el integrals
 For citations please refer to: http://libint.valeyev.net

 Your ORCA version has been built with support for libXC version: 5.1.0
 For citations please refer to: https://tddft.org/programs/libxc/

 This ORCA versions uses:
   CBLAS   interface :  Fast vector & matrix operations
   LAPACKE interface :  Fast linear algebra routines
   SCALAPACK package :  Parallel linear algebra routines
   Shared memory     :  Shared parallel matrices
   BLAS/LAPACK       :  OpenBLAS 0.3.15  USE64BITINT DYNAMIC_ARCH NO_AFFINITY Haswell SINGLE_THREADED
        Core in use  :  Haswell
   Copyright (c) 2011-2014, The OpenBLAS Project




***************************************
The coordinates will be read from file: pbe.xyz
***************************************


================================================================================

cite the ECPs for Au [Def2-ECP] as follows:
Ce-Yb(ecp-28): M. Dolg, H. Stoll, H.Preuss, J. Chem. Phys., 1989, 90, 1730-1734.
Y-Cd(ecp-28), Hf-Hg(ecp-46): D. Andrae,U. Haeussermann, M. Dolg, H. Stoll, H. Preuss, Theor. Chim. Acta, 1990, 77, 123-141.
In-Sb(ecp-28), Tl-Bi(ecp-46): B. Metz, H. Stoll, M. Dolg, J. Chem. Phys., 2000, 113, 2563-2569.
Te-Xe(ecp-28), Po-Rn(ecp-46): K. A. Peterson, D. Figgen, E. Goll, H. Stoll, M. Dolg, J. Chem. Phys., 2003, 119, 11113-11123.
Rb(ecp-28), Cs(ecp-46): T. Leininger, A. Nicklass, W. Kuechle, H. Stoll, M. Dolg, A. Bergner, Chem. Phys. Lett., 1996, 255, 274-280.
Sr(ecp-28), Ba(ecp-46): M. Kaupp, P. V. Schleyer, H. Stoll and H. Preuss, J. Chem. Phys., 1991, 94, 1360-1366.
La(ecp-46): M. Dolg, H. Stoll, A. Savin, H. Preuss, Theor. Chim. Acta, 1989, 75, 173-194.
Lu(ecp-28): X. Cao, M. Dolg, J. Chem. Phys., 2001, 115, 7348-7355.

ECP parameters for Au [Def2-ECP] have been obtained from:
TURBOMOLE (7.0.2)

----- Orbital basis set information -----
Your calculation utilizes the basis: def2-TZVP
   F. Weigend and R. Ahlrichs, Phys. Chem. Chem. Phys. 7, 3297 (2005).

----- AuxJ basis set information -----
Your calculation utilizes the auxiliary basis: def2/J
   F. Weigend, Phys. Chem. Chem. Phys. 8, 1057 (2006).

----- AuxC basis set information -----
Your calculation utilizes the auxiliary basis: def2-TZVP/C
  H-La, Hf-Rn : A. Hellweg, C. Hattig, S. Hofener and W. Klopper, Theor. Chem. Acc. 117, 587 (2007).
        Ce-Lu : J. Chmela and M. E. Harding, Mol. Phys. (2018).

================================================================================
                                        WARNINGS
                       Please study these warnings very carefully!
================================================================================


IMPORTANT NOTE: CASSCF must signal convergence for a subsequent CASPT2/NEVPT2! 
                Set maxiter=1 to run CASPT2/NEVPT2 with arbitrary orbitals.


INFO   : the flag for use of the SHARK integral package has been found!

================================================================================
                                       INPUT FILE
================================================================================
NAME = nevpt2.inp
|  1> !SC-NEVPT2 def2-TZVP def2-TZVP/C
|  2> !MOREAD RIJCOSX def2/J
|  3> %maxcore 4000
|  4> %moinp "casscf.gbw"
|  5> %pal nprocs 8 end 
|  6> 
|  7> %casscf
|  8>  mult 5,3
|  9>  bweight 1,1
| 10>  nroots 5,45
| 11>  nel 6
| 12>  norb 5
| 13>  ptsettings
| 14>   d4tpre 1e-14 # default = 1e-10
| 15>   d3tpre 1e-14
| 16>  end
| 17>  rel           
| 18>    dosoc true   
| 19>    gtensor true 
| 20>  end           
| 21> end
| 22> 
| 23> 
| 24> *xyzfile 0 5 pbe.xyz
| 25> 
| 26> 
| 27>                          ****END OF INPUT****
================================================================================

                       ****************************
                       * Single Point Calculation *
                       ****************************

---------------------------------
CARTESIAN COORDINATES (ANGSTROEM)
---------------------------------
  Au     5.879823    5.485337    9.311747
  Au     6.423666    7.986971   10.240766
  Au     7.569675   10.500910   10.126868
  Au     5.742707    9.818213    8.168156
  Au     7.477773    9.324583    5.777173
  Au     8.088149   11.353753    7.543332
  Au     7.004002    6.709960    4.975774
  Au     4.928577    5.573144    6.653082
  Au     4.806158    8.336404    6.084204
  Au     7.701190    4.846816    7.079044
  Au    10.107974    9.671301    6.647817
  Au     9.351958    7.019334    6.463780
  Au    10.774188    7.896587    8.665704
  Au    10.245913   10.585619    9.314972
  Au     9.189922    8.391549   10.892573
  Au     8.653989    6.199183    9.308467
  Cr     6.793040    7.367896    7.619068

----------------------------
CARTESIAN COORDINATES (A.U.)
----------------------------
  NO LB      ZA    FRAG     MASS         X           Y           Z
   0 Au   19.0000*   0   196.966   11.111256   10.365786   17.596652
   1 Au   19.0000*   0   196.966   12.138970   15.093188   19.352243
   2 Au   19.0000*   0   196.966   14.304612   19.843845   19.137007
   3 Au   19.0000*   0   196.966   10.852144   18.553734   15.435577
   4 Au   19.0000*   0   196.966   14.130943   17.620908   10.917275
   5 Au   19.0000*   0   196.966   15.284386   21.455485   14.254832
   6 Au   19.0000*   0   196.966   13.235646   12.679987    9.402851
   7 Au   19.0000*   0   196.966    9.313661   10.531715   12.572503
   8 Au   19.0000*   0   196.966    9.082322   15.753520   11.497480
   9 Au   19.0000*   0   196.966   14.553140    9.159154   13.377455
  10 Au   19.0000*   0   196.966   19.101303   18.276111   12.562554
  11 Au   19.0000*   0   196.966   17.672639   13.264618   12.214774
  12 Au   19.0000*   0   196.966   20.360265   14.922388   16.375806
  13 Au   19.0000*   0   196.966   19.361970   20.003921   17.602746
  14 Au   19.0000*   0   196.966   17.366436   15.857730   20.583979
  15 Au   19.0000*   0   196.966   16.353670   11.714759   17.590453
  16 Cr   24.0000    0    52.000   12.836986   13.923306   14.397952
* core charge reduced due to ECP

--------------------------------
INTERNAL COORDINATES (ANGSTROEM)
--------------------------------
 Au     0   0   0     0.000000000000     0.00000000     0.00000000
 Au     1   0   0     2.723418748930     0.00000000     0.00000000
 Au     2   1   0     2.765176315500   154.66417656     0.00000000
 Au     3   2   1     2.764134320772    62.01217890    62.16571376
 Au     4   3   2     2.995149641017   102.91458181   254.63822793
 Au     5   4   3     2.758515946359    59.72423690   322.62687534
 Au     5   4   3     2.775418965853   106.67118394   121.36492831
 Au     1   2   3     2.825080487668   111.08281449   309.24325879
 Au     4   3   2     2.723185198241   154.68715239   298.73134569
 Au     7   5   4     2.895016722226   110.81763214   299.16362293
 Au     6   5   4     2.777100335471    60.58199475   134.89611241
 Au    11   6   5     2.763758806382   113.81869255   320.02387248
 Au    12  11   6     2.764196513777    60.11140447   260.83591065
 Au     3   2   1     2.797964374680   115.84189876   315.38128956
 Au     3   2   1     2.767834729886    62.50688059   280.86171095
 Au    15   3   2     2.757369185080   109.46493492    41.55084608
 Cr     9   4   3     2.691005997934    60.35870345    16.55306936

---------------------------
INTERNAL COORDINATES (A.U.)
---------------------------
 Au     0   0   0     0.000000000000     0.00000000     0.00000000
 Au     1   0   0     5.146515583464     0.00000000     0.00000000
 Au     2   1   0     5.225425948300   154.66417656     0.00000000
 Au     3   2   1     5.223456863632    62.01217890    62.16571376
 Au     4   3   2     5.660012551635   102.91458181   254.63822793
 Au     5   4   3     5.212839674674    59.72423690   322.62687534
 Au     5   4   3     5.244781752353   106.67118394   121.36492831
 Au     1   2   3     5.338628427977   111.08281449   309.24325879
 Au     4   3   2     5.146074236623   154.68715239   298.73134569
 Au     7   5   4     5.470788758129   110.81763214   299.16362293
 Au     6   5   4     5.247959080461    60.58199475   134.89611241
 Au    11   6   5     5.222747244275   113.81869255   320.02387248
 Au    12  11   6     5.223574391378    60.11140447   260.83591065
 Au     3   2   1     5.287386400614   115.84189876   315.38128956
 Au     3   2   1     5.230449623440    62.50688059   280.86171095
 Au    15   3   2     5.210672609914   109.46493492    41.55084608
 Cr     9   4   3     5.085264360835    60.35870345    16.55306936

---------------------
BASIS SET INFORMATION
---------------------
There are 2 groups of distinct atoms

 Group   1 Type Au  : 8s7p6d1f contracted to 6s4p3d1f pattern {311111/4111/411/1}
 Group   2 Type Cr  : 17s11p7d1f contracted to 6s4p4d1f pattern {842111/6311/4111/1}

Atom   0Au   basis set group =>   1
Atom   1Au   basis set group =>   1
Atom   2Au   basis set group =>   1
Atom   3Au   basis set group =>   1
Atom   4Au   basis set group =>   1
Atom   5Au   basis set group =>   1
Atom   6Au   basis set group =>   1
Atom   7Au   basis set group =>   1
Atom   8Au   basis set group =>   1
Atom   9Au   basis set group =>   1
Atom  10Au   basis set group =>   1
Atom  11Au   basis set group =>   1
Atom  12Au   basis set group =>   1
Atom  13Au   basis set group =>   1
Atom  14Au   basis set group =>   1
Atom  15Au   basis set group =>   1
Atom  16Cr   basis set group =>   2
---------------------------------
AUXILIARY/J BASIS SET INFORMATION
---------------------------------
There are 2 groups of distinct atoms

 Group   1 Type Au  : 11s5p5d3f3g contracted to 8s5p5d2f3g pattern {41111111/11111/11111/21/111}
 Group   2 Type Cr  : 19s5p5d3f3g contracted to 8s5p5d2f3g pattern {121111111/11111/11111/21/111}

Atom   0Au   basis set group =>   1
Atom   1Au   basis set group =>   1
Atom   2Au   basis set group =>   1
Atom   3Au   basis set group =>   1
Atom   4Au   basis set group =>   1
Atom   5Au   basis set group =>   1
Atom   6Au   basis set group =>   1
Atom   7Au   basis set group =>   1
Atom   8Au   basis set group =>   1
Atom   9Au   basis set group =>   1
Atom  10Au   basis set group =>   1
Atom  11Au   basis set group =>   1
Atom  12Au   basis set group =>   1
Atom  13Au   basis set group =>   1
Atom  14Au   basis set group =>   1
Atom  15Au   basis set group =>   1
Atom  16Cr   basis set group =>   2
---------------------------------
AUXILIARY/C BASIS SET INFORMATION
---------------------------------
There are 2 groups of distinct atoms

 Group   1 Type Au  : 8s8p7d5f3g2h contracted to 8s8p7d5f3g2h pattern {11111111/11111111/1111111/11111/111/11}
 Group   2 Type Cr  : 11s9p8d6f5g2h contracted to 9s8p8d6f5g2h pattern {311111111/21111111/11111111/111111/11111/11}

Atom   0Au   basis set group =>   1
Atom   1Au   basis set group =>   1
Atom   2Au   basis set group =>   1
Atom   3Au   basis set group =>   1
Atom   4Au   basis set group =>   1
Atom   5Au   basis set group =>   1
Atom   6Au   basis set group =>   1
Atom   7Au   basis set group =>   1
Atom   8Au   basis set group =>   1
Atom   9Au   basis set group =>   1
Atom  10Au   basis set group =>   1
Atom  11Au   basis set group =>   1
Atom  12Au   basis set group =>   1
Atom  13Au   basis set group =>   1
Atom  14Au   basis set group =>   1
Atom  15Au   basis set group =>   1
Atom  16Cr   basis set group =>   2
-------------------------
ECP PARAMETER INFORMATION
-------------------------

 Group 1, Type Au ECP Def2-ECP (replacing 60 core electrons, lmax=3)

Atom   0Au   ECP group =>   1
Atom   1Au   ECP group =>   1
Atom   2Au   ECP group =>   1
Atom   3Au   ECP group =>   1
Atom   4Au   ECP group =>   1
Atom   5Au   ECP group =>   1
Atom   6Au   ECP group =>   1
Atom   7Au   ECP group =>   1
Atom   8Au   ECP group =>   1
Atom   9Au   ECP group =>   1
Atom  10Au   ECP group =>   1
Atom  11Au   ECP group =>   1
Atom  12Au   ECP group =>   1
Atom  13Au   ECP group =>   1
Atom  14Au   ECP group =>   1
Atom  15Au   ECP group =>   1



           ************************************************************
           *        Program running with 8 parallel MPI-processes     *
           *              working on a common directory               *
           ************************************************************
------------------------------------------------------------------------------
                           ORCA GTO INTEGRAL CALCULATION
                           -- RI-GTO INTEGRALS CHOSEN --
------------------------------------------------------------------------------
------------------------------------------------------------------------------
                   ___                                                        
                  /   \      - P O W E R E D   B Y -                         
                 /     \                                                     
                 |  |  |   _    _      __       _____    __    __             
                 |  |  |  | |  | |    /  \     |  _  \  |  |  /  |          
                  \  \/   | |  | |   /    \    | | | |  |  | /  /          
                 / \  \   | |__| |  /  /\  \   | |_| |  |  |/  /          
                |  |  |   |  __  | /  /__\  \  |    /   |      \           
                |  |  |   | |  | | |   __   |  |    \   |  |\   \          
                \     /   | |  | | |  |  |  |  | |\  \  |  | \   \       
                 \___/    |_|  |_| |__|  |__|  |_| \__\ |__|  \__/        
                                                                              
                      - O R C A' S   B I G   F R I E N D -                    
                                      &                                       
                       - I N T E G R A L  F E E D E R -                       
                                                                              
 v1 FN, 2020, v2 2021                                                         
------------------------------------------------------------------------------


Reading SHARK input file nevpt2.SHARKINP.tmp ... ok
----------------------
SHARK INTEGRAL PACKAGE
----------------------

Number of atoms                             ...     17
Number of basis functions                   ...    685
Number of shells                            ...    239
Maximum angular momentum                    ...      3
Integral batch strategy                     ... SHARK/LIBINT Hybrid
RI-J (if used) integral strategy            ... SPLIT-RIJ (Revised 2003 algorithm where possible)
Printlevel                                  ...      1
Contraction scheme used                     ... SEGMENTED contraction
Coulomb Range Separation                    ... NOT USED
Exchange Range Separation                   ... NOT USED
Finite Nucleus Model                        ... NOT USED
Auxiliary Coulomb fitting basis             ... AVAILABLE
   # of basis functions in Aux-J            ...   1513
   # of shells in Aux-J                     ...    391
   Maximum angular momentum in Aux-J        ...      4
Auxiliary J/K fitting basis                 ... NOT available
Auxiliary Correlation fitting basis         ... AVAILABLE
   # of basis functions in Aux-C            ...   2598
   # of shells in Aux-C                     ...    566
   Maximum angular momentum in Aux-C        ...      5
Auxiliary 'external' fitting basis          ... NOT available
Integral threshold                          ...     1.000000e-10
Primitive cut-off                           ...     1.000000e-11
Primitive pair pre-selection threshold      ...     1.000000e-11

Calculating pre-screening integrals         ... done (  0.3 sec) Dimension = 239
Organizing shell pair data                  ... done (  0.9 sec)
Shell pair information
Total number of shell pairs                 ...     28680
Shell pairs after pre-screening             ...     22244
Total number of primitive shell pairs       ...     75765
Primitive shell pairs kept                  ...     42172
          la=0 lb=0:   3515 shell pairs
          la=1 lb=0:   5090 shell pairs
          la=1 lb=1:   1891 shell pairs
          la=2 lb=0:   4443 shell pairs
          la=2 lb=1:   3105 shell pairs
          la=2 lb=2:   1285 shell pairs
          la=3 lb=0:   1152 shell pairs
          la=3 lb=1:    870 shell pairs
          la=3 lb=2:    776 shell pairs
          la=3 lb=3:    117 shell pairs

Calculating one electron integrals          ... done (  0.3 sec)
Calculating ECP integrals                   ... done ( 27.3 sec)
Calculating RI/J V-Matrix + Cholesky decomp.... done (  3.7 sec)
Calculating RI/C V-Matrix + Cholesky decomp.... done (  6.7 sec)
Calculating Nuclear repulsion               ... done (  0.0 sec) ENN=   6887.762278145762 Eh

SHARK setup successfully completed in  40.6 seconds

Maximum memory used throughout the entire GTOINT-calculation: 54.6 MB


           ************************************************************
           *        Program running with 8 parallel MPI-processes     *
           *              working on a common directory               *
           ************************************************************
-------------------------------------------------------------------------------
                                 ORCA SCF
-------------------------------------------------------------------------------

------------
SCF SETTINGS
------------
Hamiltonian:
 Ab initio Hamiltonian  Method          .... Hartree-Fock(GTOs)
 RI-approximation to the Coulomb term is turned on
   Number of AuxJ basis functions       .... 1513
   RIJ-COSX (HFX calculated with COS-X)).... on


General Settings:
 Integral files         IntName         .... nevpt2
 Hartree-Fock type      HFTyp           .... CASSCF
 Total Charge           Charge          ....    0
 Multiplicity           Mult            ....    5
 Number of Electrons    NEL             ....  328
 Basis Dimension        Dim             ....  685
 Nuclear Repulsion      ENuc            ....   6887.7622781458 Eh


Diagonalization of the overlap matrix:
Smallest eigenvalue                        ... 9.423e-05
Time for diagonalization                   ...    0.184 sec
Threshold for overlap eigenvalues          ... 1.000e-08
Number of eigenvalues below threshold      ... 0
Time for construction of square roots      ...    0.365 sec
Total time needed                          ...    0.848 sec

---------------------
INITIAL GUESS: MOREAD
---------------------
Guess MOs are being read from file: casscf.gbw
Input Geometry matches current geometry (good)
Input basis set matches current basis set (good)
MOs were renormalized
Gram-Schmidt orthogonalization of all MOs with pivot on actives
                      ------------------
                      INITIAL GUESS DONE (   6.7 sec)
                      ------------------
--------------------
COSX GRID GENERATION
--------------------

GRIDX 1
-------
General Integration Accuracy     IntAcc      ... 3.816
Radial Grid Type                 RadialGrid  ... OptM3 with GC (2021)
Angular Grid (max. ang.)         AngularGrid ... 1 (Lebedev-50)
Angular grid pruning method      GridPruning ... 4 (adaptive)
Weight generation scheme         WeightScheme... Becke
Basis function cutoff            BFCut       ... 1.0000e-10
Integration weight cutoff        WCut        ... 1.0000e-14
Angular grids for H and He will be reduced by one unit
Partially contracted basis set               ... on
Rotationally invariant grid construction     ... off

Total number of grid points                  ...    19586
Total number of batches                      ...      314
Average number of points per batch           ...       62
Average number of grid points per atom       ...     1152
UseSFitting                                  ... on

GRIDX 2
-------
General Integration Accuracy     IntAcc      ... 4.020
Radial Grid Type                 RadialGrid  ... OptM3 with GC (2021)
Angular Grid (max. ang.)         AngularGrid ... 2 (Lebedev-110)
Angular grid pruning method      GridPruning ... 4 (adaptive)
Weight generation scheme         WeightScheme... Becke
Basis function cutoff            BFCut       ... 1.0000e-10
Integration weight cutoff        WCut        ... 1.0000e-14
Angular grids for H and He will be reduced by one unit
Partially contracted basis set               ... on
Rotationally invariant grid construction     ... off

Total number of grid points                  ...    59269
Total number of batches                      ...      937
Average number of points per batch           ...       63
Average number of grid points per atom       ...     3486
UseSFitting                                  ... on

GRIDX 3
-------
General Integration Accuracy     IntAcc      ... 4.338
Radial Grid Type                 RadialGrid  ... OptM3 with GC (2021)
Angular Grid (max. ang.)         AngularGrid ... 3 (Lebedev-194)
Angular grid pruning method      GridPruning ... 4 (adaptive)
Weight generation scheme         WeightScheme... Becke
Basis function cutoff            BFCut       ... 1.0000e-10
Integration weight cutoff        WCut        ... 1.0000e-14
Angular grids for H and He will be reduced by one unit
Partially contracted basis set               ... on
Rotationally invariant grid construction     ... off

Total number of grid points                  ...   107420
Total number of batches                      ...     1686
Average number of points per batch           ...       63
Average number of grid points per atom       ...     6319
UseSFitting                                  ... on

Time for X-Grid setup             =    9.557 sec



 ... the calculation is a CASSCF calculation -I'm leaving here GOOD LUCK!!!



           ************************************************************
           *        Program running with 8 parallel MPI-processes     *
           *              working on a common directory               *
           ************************************************************
-------------------------------------------------------------------------------
                              ORCA-CASSCF
-------------------------------------------------------------------------------

Setting up the integral package       ... done
Setting up the integral package (RI)  ... done
Building the CAS space                ... done (5 configurations for Mult=5)
Building the CAS space                ... done (35 configurations for Mult=3)

 CASSCF (estimated) memory needed     ... 192.6 MB
 NEVPT2 (estimated) memory needed     ... 757.2 MB


SYSTEM-SPECIFIC SETTINGS:
Number of active electrons          ...    6
Number of active orbitals           ...    5
Total number of electrons           ...  328
Total number of orbitals            ...  685
Total number aux. functions         ... 2598

Determined orbital ranges:
   Internal       0 -  160 ( 161 orbitals)
   Active       161 -  165 (   5 orbitals)
   External     166 -  684 ( 519 orbitals)
Number of rotation parameters      ...  86959

CI-STEP:
CI strategy                         ... General CI
Number of multiplicity blocks       ...    2
BLOCK  1 WEIGHT=   0.5000
  Multiplicity                      ...    5
  #(Configurations)                 ...    5
  #(CSFs)                           ...    5
  #(Roots)                          ...    5
    ROOT=0 WEIGHT=    0.100000
    ROOT=1 WEIGHT=    0.100000
    ROOT=2 WEIGHT=    0.100000
    ROOT=3 WEIGHT=    0.100000
    ROOT=4 WEIGHT=    0.100000

BLOCK  2 WEIGHT=   0.5000
  Multiplicity                      ...    3
  #(Configurations)                 ...   35
  #(CSFs)                           ...   45
  #(Roots)                          ...   45
    ROOT=0 WEIGHT=    0.011111
    ROOT=1 WEIGHT=    0.011111
    ROOT=2 WEIGHT=    0.011111
    ROOT=3 WEIGHT=    0.011111
    ROOT=4 WEIGHT=    0.011111
    ROOT=5 WEIGHT=    0.011111
    ROOT=6 WEIGHT=    0.011111
    ROOT=7 WEIGHT=    0.011111
    ROOT=8 WEIGHT=    0.011111
    ROOT=9 WEIGHT=    0.011111
    ROOT=10 WEIGHT=    0.011111
    ROOT=11 WEIGHT=    0.011111
    ROOT=12 WEIGHT=    0.011111
    ROOT=13 WEIGHT=    0.011111
    ROOT=14 WEIGHT=    0.011111
    ROOT=15 WEIGHT=    0.011111
    ROOT=16 WEIGHT=    0.011111
    ROOT=17 WEIGHT=    0.011111
    ROOT=18 WEIGHT=    0.011111
    ROOT=19 WEIGHT=    0.011111
    ROOT=20 WEIGHT=    0.011111
    ROOT=21 WEIGHT=    0.011111
    ROOT=22 WEIGHT=    0.011111
    ROOT=23 WEIGHT=    0.011111
    ROOT=24 WEIGHT=    0.011111
    ROOT=25 WEIGHT=    0.011111
    ROOT=26 WEIGHT=    0.011111
    ROOT=27 WEIGHT=    0.011111
    ROOT=28 WEIGHT=    0.011111
    ROOT=29 WEIGHT=    0.011111
    ROOT=30 WEIGHT=    0.011111
    ROOT=31 WEIGHT=    0.011111
    ROOT=32 WEIGHT=    0.011111
    ROOT=33 WEIGHT=    0.011111
    ROOT=34 WEIGHT=    0.011111
    ROOT=35 WEIGHT=    0.011111
    ROOT=36 WEIGHT=    0.011111
    ROOT=37 WEIGHT=    0.011111
    ROOT=38 WEIGHT=    0.011111
    ROOT=39 WEIGHT=    0.011111
    ROOT=40 WEIGHT=    0.011111
    ROOT=41 WEIGHT=    0.011111
    ROOT=42 WEIGHT=    0.011111
    ROOT=43 WEIGHT=    0.011111
    ROOT=44 WEIGHT=    0.011111

  PrintLevel                        ...    1
  N(GuessMat)                       ...       512
  MaxDim(CI)                        ...        10
  MaxIter(CI)                       ...        64
  Energy Tolerance CI               ...  1.00e-08
  Residual Tolerance CI             ...  1.00e-08
  Shift(CI)                         ...  1.00e-04

INTEGRAL-TRANSFORMATION-STEP:
  Algorithm                         ... RI-MO

ORBITAL-IMPROVEMENT-STEP:
  Algorithm                         ... SuperCI(PT)
  Default Parametrization           ... CAYLEY
  Act-Act rotations                 ... depends on algorithm used

  Note: SuperCI(PT) will ignore FreezeIE, FreezeAct and FreezeGrad. In general Default settings are encouraged.
        In conjunction with ShiftUp, ShiftDn or GradScaling the performance of SuperCI(PT) is less optimal.  

  MaxRot                            ... 2.00e-01 
  Max. no of vectors (DIIS)         ... 15
  DThresh (cut-off) metric          ... 1.00e-06
  Switch step at gradient           ...  3.00e-02 
  Switch step at iteration          ...        50   
  Switch step to                    ... SuperCI(PT)    

SCF-SETTINGS:
  Incremental                       ... off
  RIJCOSX approximation             ... on
  UseFinalGrid                      ... on
  RI-JK approximation               ... off
  AO integral handling              ... DIRECT
  Integral Neglect Thresh           ...  1.00e-10
  Primitive cutoff TCut             ...  1.00e-11
  Energy convergence tolerance      ...  1.00e-07
  Orbital gradient convergence      ...  1.00e-03
  Max. number of iterations         ...        75  

PT2-SETTINGS:
  A PT2 calculation will be performed on top of the CASSCF wave function (PT2 = SC-NEVPT2)   
 CI step strategy                   ... General CI
  D4C handling                      ... on the fly 
  CI truncation for D4C at          ...  1.00e-14
  CI truncation for D3  at          ...  1.00e-14
  Orbitals                          ... canonical for each state 
  Last  frozen  orbital             ... 4
  First deleted orbital             ... 685
  RI Step                           ... store IJV(array) (MC_ONDISK during integral transformation) 

PROPERTIES-SETTINGS:
  Spin orbit coupling               ... true
  GTensor                           ... true
  QDPT diagonal energies            ... NEVPT2 energies 

FINAL ORBITALS:
  Active   Orbitals                 ... natural 
  Internal Orbitals                 ... canonical 
  External Orbitals                 ... canonical 

------------------
CAS-SCF ITERATIONS
------------------


MACRO-ITERATION   1: 
   --- Inactive Energy E0 = -3191.76405876 Eh
CI-ITERATION   0: 
 -3200.227876605   0.000000000000 (    0.00)
 -3200.190754404   0.000000000000
 -3200.189451930   0.000000000000
 -3200.185595824   0.000000000000
 -3200.170619561   0.000000000000
   CI-PROBLEM SOLVED
   DENSITIES MADE
CI-ITERATION   0: 
 -3200.201816153   0.000000000000 (    0.00)
 -3200.197988056   0.000000000000
 -3200.193941232   0.000000000000
 -3200.192283158   0.000000000000
 -3200.167011468   0.000000000000
 -3200.166305112   0.000000000000
 -3200.162088060   0.000000000000
 -3200.157555872   0.000000000000
 -3200.154732873   0.000000000000
 -3200.150399817   0.000000000000
 -3200.146092199   0.000000000000
 -3200.140557610   0.000000000000
 -3200.140085559   0.000000000000
 -3200.133616956   0.000000000000
 -3200.132604449   0.000000000000
 -3200.130261521   0.000000000000
 -3200.126262782   0.000000000000
 -3200.122370588   0.000000000000
 -3200.121886169   0.000000000000
 -3200.121800250   0.000000000000
 -3200.111359479   0.000000000000
 -3200.110784307   0.000000000000
 -3200.106845054   0.000000000000
 -3200.103779742   0.000000000000
 -3200.102283853   0.000000000000
 -3200.098664677   0.000000000000
 -3200.097582162   0.000000000000
 -3200.091435960   0.000000000000
 -3200.088147499   0.000000000000
 -3200.074945147   0.000000000000
 -3200.073611304   0.000000000000
 -3200.068837857   0.000000000000
 -3200.042036627   0.000000000000
 -3200.034326108   0.000000000000
 -3200.022351171   0.000000000000
 -3200.021691527   0.000000000000
 -3200.012721283   0.000000000000
 -3200.004952348   0.000000000000
 -3200.003565873   0.000000000000
 -3199.760087363   0.000000000000
 -3199.752702480   0.000000000000
 -3199.739435554   0.000000000000
 -3199.735532028   0.000000000000
 -3199.713989021   0.000000000000
 -3199.705617797   0.000000000000
   CI-PROBLEM SOLVED
   DENSITIES MADE

                 <<<<<<<<<<<<<<<<<<INITIAL CI STATE CHECK>>>>>>>>>>>>>>>>>>

BLOCK  1 MULT= 5 NROOTS= 5 
ROOT   0:  E=   -3200.2278766054 Eh
      0.87025 [     1]: 11121
      0.06331 [     0]: 11112
      0.05166 [     3]: 12111
      0.00784 [     4]: 21111
      0.00693 [     2]: 11211
ROOT   1:  E=   -3200.1907544045 Eh  1.010 eV   8147.4 cm**-1
      0.73536 [     4]: 21111
      0.12763 [     3]: 12111
      0.07708 [     0]: 11112
      0.05976 [     1]: 11121
ROOT   2:  E=   -3200.1894519296 Eh  1.046 eV   8433.2 cm**-1
      0.46284 [     3]: 12111
      0.38169 [     0]: 11112
      0.14570 [     2]: 11211
      0.00920 [     4]: 21111
ROOT   3:  E=   -3200.1855958238 Eh  1.151 eV   9279.6 cm**-1
      0.34517 [     0]: 11112
      0.32170 [     3]: 12111
      0.23996 [     4]: 21111
      0.05406 [     1]: 11121
      0.03911 [     2]: 11211
ROOT   4:  E=   -3200.1706195610 Eh  1.558 eV  12566.5 cm**-1
      0.80809 [     2]: 11211
      0.13275 [     0]: 11112
      0.03617 [     3]: 12111
      0.01535 [     1]: 11121
      0.00763 [     4]: 21111

BLOCK  2 MULT= 3 NROOTS=45 
ROOT   0:  E=   -3200.2018161527 Eh
      0.45551 [    11]: 11121
      0.27500 [    13]: 11211
      0.07660 [    20]: 12201
      0.05786 [     8]: 10221
      0.05450 [    18]: 12111
      0.02509 [    16]: 12021
      0.01114 [     2]: 01221
      0.00902 [    28]: 21111
      0.00786 [    10]: 11112
      0.00506 [    26]: 21021
      0.00484 [    14]: 11220
      0.00296 [    30]: 21201
ROOT   1:  E=   -3200.1979880562 Eh  0.104 eV    840.2 cm**-1
      0.35505 [    26]: 21021
      0.16297 [    28]: 21111
      0.11819 [    30]: 21201
      0.07278 [    16]: 12021
      0.06422 [    23]: 20121
      0.04346 [     9]: 11022
      0.03576 [    18]: 12111
      0.02017 [    10]: 11112
      0.01888 [    20]: 12201
      0.01547 [    32]: 22011
      0.01506 [    11]: 11121
      0.01411 [    12]: 11202
      0.01211 [    13]: 11211
      0.01147 [    24]: 20211
      0.01065 [    33]: 22101
      0.00734 [    29]: 21120
      0.00645 [     6]: 10122
      0.00441 [     2]: 01221
      0.00277 [     8]: 10221
ROOT   2:  E=   -3200.1939412322 Eh  0.214 eV   1728.3 cm**-1
      0.28892 [     9]: 11022
      0.13647 [    16]: 12021
      0.13516 [    10]: 11112
      0.11400 [    12]: 11202
      0.08464 [    18]: 12111
      0.05030 [     6]: 10122
      0.04422 [    20]: 12201
      0.03137 [    15]: 12012
      0.02394 [    17]: 12102
      0.01725 [    11]: 11121
      0.01294 [     7]: 10212
      0.01002 [    13]: 11211
      0.00900 [     0]: 01122
      0.00679 [    25]: 21012
      0.00646 [     8]: 10221
      0.00555 [    27]: 21102
      0.00421 [    14]: 11220
      0.00320 [     1]: 01212
      0.00256 [    19]: 12120
ROOT   3:  E=   -3200.1922831577 Eh  0.259 eV   2092.3 cm**-1
      0.22824 [    16]: 12021
      0.11105 [    18]: 12111
      0.10411 [     9]: 11022
      0.08894 [    26]: 21021
      0.08139 [    11]: 11121
      0.05419 [    20]: 12201
      0.05005 [    10]: 11112
      0.04666 [    30]: 21201
      0.04466 [    28]: 21111
      0.04201 [    13]: 11211
      0.03310 [    12]: 11202
      0.02104 [    32]: 22011
      0.01831 [    33]: 22101
      0.01716 [     8]: 10221
      0.01453 [    23]: 20121
      0.01089 [     6]: 10122
      0.00644 [    25]: 21012
      0.00527 [    24]: 20211
      0.00357 [    17]: 12102
      0.00272 [    27]: 21102
ROOT   4:  E=   -3200.1670114675 Eh  0.947 eV   7638.7 cm**-1
      0.43434 [    11]: 11121
      0.09246 [    19]: 12120
      0.06239 [    10]: 11112
      0.05755 [    23]: 20121
      0.05596 [     4]: 02121
      0.04507 [    29]: 21120
      0.03915 [    13]: 11211
      0.03565 [    28]: 21111
      0.02714 [    18]: 12111
      0.01987 [     8]: 10221
      0.01834 [     9]: 11022
      0.01610 [     0]: 01122
      0.01575 [     7]: 10212
      0.01029 [    16]: 12021
      0.00915 [     2]: 01221
      0.00810 [    22]: 20112
      0.00769 [    26]: 21021
      0.00760 [    24]: 20211
      0.00631 [     1]: 01212
      0.00497 [    21]: 12210
      0.00476 [    12]: 11202
      0.00399 [     5]: 02211
      0.00380 [     6]: 10122
      0.00357 [    17]: 12102
      0.00349 [    33]: 22101
ROOT   5:  E=   -3200.1663051124 Eh  0.966 eV   7793.8 cm**-1
      0.34300 [     6]: 10122
      0.15222 [    19]: 12120
      0.14253 [    11]: 11121
      0.04887 [     7]: 10212
      0.03881 [    23]: 20121
      0.03673 [    18]: 12111
      0.03335 [    22]: 20112
      0.02856 [    14]: 11220
      0.02688 [    13]: 11211
      0.02630 [     0]: 01122
      0.02031 [    10]: 11112
      0.02019 [    21]: 12210
      0.01747 [     4]: 02121
      0.01588 [     8]: 10221
      0.01143 [     9]: 11022
      0.00931 [    16]: 12021
      0.00810 [     3]: 02112
      0.00601 [    15]: 12012
      0.00466 [    27]: 21102
      0.00318 [    28]: 21111
ROOT   6:  E=   -3200.1620880604 Eh  1.081 eV   8719.3 cm**-1
      0.24083 [    11]: 11121
      0.13437 [    23]: 20121
      0.11445 [     4]: 02121
      0.08949 [    28]: 21111
      0.07681 [    29]: 21120
      0.06690 [    18]: 12111
      0.05094 [     0]: 01122
      0.04403 [     3]: 02112
      0.04306 [    34]: 22110
      0.03185 [    13]: 11211
      0.02222 [     5]: 02211
      0.02129 [     1]: 01212
      0.02014 [    24]: 20211
      0.00932 [     2]: 01221
      0.00888 [    31]: 21210
      0.00826 [     8]: 10221
      0.00482 [     6]: 10122
      0.00296 [    33]: 22101
ROOT   7:  E=   -3200.1575558717 Eh  1.204 eV   9714.0 cm**-1
      0.31222 [    11]: 11121
      0.17564 [     0]: 01122
      0.06381 [    10]: 11112
      0.06214 [    19]: 12120
      0.05681 [    13]: 11211
      0.05657 [     6]: 10122
      0.04791 [    29]: 21120
      0.04196 [    34]: 22110
      0.04156 [    18]: 12111
      0.03419 [     1]: 01212
      0.01684 [    31]: 21210
      0.01362 [     7]: 10212
      0.01102 [    26]: 21021
      0.01078 [     2]: 01221
      0.00744 [    28]: 21111
      0.00742 [    21]: 12210
      0.00703 [    22]: 20112
      0.00658 [    12]: 11202
      0.00394 [     3]: 02112
      0.00369 [    16]: 12021
      0.00335 [    32]: 22011
      0.00312 [     4]: 02121
ROOT   8:  E=   -3200.1547328730 Eh  1.281 eV  10333.6 cm**-1
      0.22110 [    11]: 11121
      0.15861 [     4]: 02121
      0.11695 [    29]: 21120
      0.08589 [     0]: 01122
      0.07488 [    28]: 21111
      0.07186 [    18]: 12111
      0.05078 [    23]: 20121
      0.03750 [    13]: 11211
      0.02884 [     8]: 10221
      0.02018 [    16]: 12021
      0.01657 [     5]: 02211
      0.01479 [    10]: 11112
      0.01447 [    34]: 22110
      0.01260 [    33]: 22101
      0.01201 [     1]: 01212
      0.01140 [    31]: 21210
      0.00856 [    24]: 20211
      0.00729 [    26]: 21021
      0.00653 [     6]: 10122
      0.00603 [    17]: 12102
      0.00555 [    14]: 11220
      0.00460 [     9]: 11022
      0.00384 [    30]: 21201
ROOT   9:  E=   -3200.1503998170 Eh  1.399 eV  11284.6 cm**-1
      0.20297 [    19]: 12120
      0.13129 [    18]: 12111
      0.12149 [     6]: 10122
      0.07328 [     0]: 01122
      0.05969 [    13]: 11211
      0.04528 [     7]: 10212
      0.04186 [    14]: 11220
      0.03599 [    10]: 11112
      0.03152 [    22]: 20112
      0.02658 [     1]: 01212
      0.02589 [     2]: 01221
      0.02279 [    16]: 12021
      0.02194 [    21]: 12210
      0.02077 [     8]: 10221
      0.01887 [     4]: 02121
      0.01740 [    29]: 21120
      0.01577 [    23]: 20121
      0.01504 [    11]: 11121
      0.01159 [    27]: 21102
      0.01099 [    15]: 12012
      0.01042 [     5]: 02211
      0.00637 [    32]: 22011
      0.00600 [    20]: 12201
      0.00526 [    28]: 21111
      0.00434 [     3]: 02112
      0.00286 [    25]: 21012
      0.00263 [    30]: 21201
ROOT  10:  E=   -3200.1460921991 Eh  1.516 eV  12230.0 cm**-1
      0.21214 [    28]: 21111
      0.17887 [     4]: 02121
      0.13587 [    10]: 11112
      0.08552 [    34]: 22110
      0.05717 [    24]: 20211
      0.05339 [    19]: 12120
      0.04785 [     5]: 02211
      0.04568 [    22]: 20112
      0.02390 [     2]: 01221
      0.02015 [     0]: 01122
      0.01766 [    23]: 20121
      0.01674 [     7]: 10212
      0.01610 [    26]: 21021
      0.01486 [     1]: 01212
      0.01441 [     3]: 02112
      0.01002 [    21]: 12210
      0.00739 [    17]: 12102
      0.00691 [    32]: 22011
      0.00612 [    30]: 21201
      0.00521 [    31]: 21210
      0.00465 [    14]: 11220
      0.00388 [    12]: 11202
      0.00304 [    18]: 12111
      0.00296 [    11]: 11121
ROOT  11:  E=   -3200.1405576095 Eh  1.667 eV  13444.7 cm**-1
      0.38641 [    28]: 21111
      0.29813 [    22]: 20112
      0.06924 [    10]: 11112
      0.03975 [    23]: 20121
      0.02429 [    24]: 20211
      0.02181 [     6]: 10122
      0.01832 [    13]: 11211
      0.01664 [    27]: 21102
      0.01471 [     0]: 01122
      0.01427 [    34]: 22110
      0.01371 [     3]: 02112
      0.01266 [    33]: 22101
      0.01198 [    11]: 11121
      0.01169 [    18]: 12111
      0.00920 [     1]: 01212
      0.00579 [    25]: 21012
      0.00399 [    17]: 12102
      0.00389 [    31]: 21210
      0.00352 [     8]: 10221
      0.00336 [    19]: 12120
      0.00325 [     4]: 02121
      0.00313 [    30]: 21201
      0.00306 [     5]: 02211
ROOT  12:  E=   -3200.1400855594 Eh  1.680 eV  13548.3 cm**-1
      0.18192 [    34]: 22110
      0.17855 [    18]: 12111
      0.11825 [     0]: 01122
      0.06836 [    31]: 21210
      0.06603 [    28]: 21111
      0.06065 [    10]: 11112
      0.04090 [     1]: 01212
      0.03397 [    29]: 21120
      0.03057 [    25]: 21012
      0.02857 [    22]: 20112
      0.02694 [     4]: 02121
      0.02534 [    19]: 12120
      0.01854 [    11]: 11121
      0.01467 [    17]: 12102
      0.01449 [    13]: 11211
      0.01380 [     6]: 10122
      0.01168 [    21]: 12210
      0.00894 [    15]: 12012
      0.00854 [    30]: 21201
      0.00770 [    14]: 11220
      0.00745 [    26]: 21021
      0.00711 [    33]: 22101
      0.00631 [     3]: 02112
      0.00625 [    24]: 20211
      0.00445 [    32]: 22011
      0.00297 [    16]: 12021
ROOT  13:  E=   -3200.1336169560 Eh  1.856 eV  14968.0 cm**-1
      0.46645 [     2]: 01221
      0.07711 [    14]: 11220
      0.06124 [     8]: 10221
      0.05859 [     0]: 01122
      0.05628 [    13]: 11211
      0.04372 [    28]: 21111
      0.04335 [     1]: 01212
      0.03563 [     5]: 02211
      0.02199 [    18]: 12111
      0.01769 [    23]: 20121
      0.01529 [    32]: 22011
      0.01467 [     6]: 10122
      0.01184 [    26]: 21021
      0.01180 [     4]: 02121
      0.00950 [    33]: 22101
      0.00859 [    11]: 11121
      0.00800 [     3]: 02112
      0.00609 [    16]: 12021
      0.00483 [     7]: 10212
      0.00455 [    10]: 11112
      0.00334 [    21]: 12210
      0.00330 [    25]: 21012
      0.00285 [    27]: 21102
      0.00270 [     9]: 11022
      0.00267 [    29]: 21120
ROOT  14:  E=   -3200.1326044495 Eh  1.883 eV  15190.2 cm**-1
      0.31036 [     8]: 10221
      0.18632 [    13]: 11211
      0.17755 [    14]: 11220
      0.03900 [    10]: 11112
      0.03758 [     6]: 10122
      0.03412 [     7]: 10212
      0.03134 [    18]: 12111
      0.02317 [     2]: 01221
      0.02190 [    21]: 12210
      0.01550 [     0]: 01122
      0.01331 [    31]: 21210
      0.01279 [    12]: 11202
      0.01188 [    23]: 20121
      0.01095 [    11]: 11121
      0.01062 [    24]: 20211
      0.00933 [    30]: 21201
      0.00920 [    19]: 12120
      0.00841 [     1]: 01212
      0.00689 [     5]: 02211
      0.00673 [    29]: 21120
      0.00640 [    28]: 21111
      0.00617 [     4]: 02121
      0.00468 [    17]: 12102
      0.00318 [     3]: 02112
ROOT  15:  E=   -3200.1302615210 Eh  1.947 eV  15704.4 cm**-1
      0.18040 [    23]: 20121
      0.13838 [    29]: 21120
      0.12151 [    28]: 21111
      0.11805 [    34]: 22110
      0.04886 [    22]: 20112
      0.04764 [     6]: 10122
      0.04397 [     4]: 02121
      0.04039 [    10]: 11112
      0.03756 [     3]: 02112
      0.03722 [    13]: 11211
      0.03200 [     5]: 02211
      0.01944 [    27]: 21102
      0.01712 [     1]: 01212
      0.01637 [    25]: 21012
      0.01431 [    19]: 12120
      0.01341 [    32]: 22011
      0.01128 [    24]: 20211
      0.01087 [    20]: 12201
      0.00844 [    15]: 12012
      0.00757 [    30]: 21201
      0.00720 [    11]: 11121
      0.00675 [    18]: 12111
      0.00453 [     8]: 10221
      0.00393 [    21]: 12210
      0.00389 [    33]: 22101
      0.00343 [    31]: 21210
ROOT  16:  E=   -3200.1262627819 Eh  2.056 eV  16582.0 cm**-1
      0.31807 [    10]: 11112
      0.08742 [     9]: 11022
      0.07228 [     6]: 10122
      0.05984 [    14]: 11220
      0.05236 [    11]: 11121
      0.05167 [    13]: 11211
      0.04881 [    21]: 12210
      0.04333 [    28]: 21111
      0.03840 [     3]: 02112
      0.03781 [    18]: 12111
      0.03710 [    27]: 21102
      0.02318 [    22]: 20112
      0.01876 [    26]: 21021
      0.01608 [     2]: 01221
      0.01565 [    23]: 20121
      0.01261 [    12]: 11202
      0.00954 [     8]: 10221
      0.00848 [    31]: 21210
      0.00819 [    20]: 12201
      0.00701 [    25]: 21012
      0.00492 [    16]: 12021
      0.00474 [    33]: 22101
      0.00348 [     5]: 02211
      0.00331 [     7]: 10212
      0.00324 [    17]: 12102
      0.00309 [    19]: 12120
      0.00260 [     1]: 01212
ROOT  17:  E=   -3200.1223705881 Eh  2.162 eV  17436.3 cm**-1
      0.25663 [    18]: 12111
      0.15128 [    11]: 11121
      0.06974 [    16]: 12021
      0.06802 [     3]: 02112
      0.05459 [    13]: 11211
      0.04440 [    28]: 21111
      0.04240 [    23]: 20121
      0.03351 [    34]: 22110
      0.03126 [     0]: 01122
      0.02804 [    29]: 21120
      0.02359 [    33]: 22101
      0.02264 [    14]: 11220
      0.02125 [    10]: 11112
      0.01999 [     5]: 02211
      0.01935 [    21]: 12210
      0.01489 [    15]: 12012
      0.01225 [    12]: 11202
      0.01209 [    20]: 12201
      0.01106 [    24]: 20211
      0.01006 [     8]: 10221
      0.00895 [    17]: 12102
      0.00854 [    30]: 21201
      0.00844 [     6]: 10122
      0.00818 [    26]: 21021
      0.00726 [    22]: 20112
      0.00430 [     7]: 10212
ROOT  18:  E=   -3200.1218861691 Eh  2.175 eV  17542.6 cm**-1
      0.23196 [    28]: 21111
      0.12637 [    32]: 22011
      0.08927 [     2]: 01221
      0.06551 [    18]: 12111
      0.06474 [    31]: 21210
      0.06174 [    10]: 11112
      0.05431 [    33]: 22101
      0.05200 [    23]: 20121
      0.03735 [    26]: 21021
      0.03291 [    16]: 12021
      0.02426 [    30]: 21201
      0.01972 [    13]: 11211
      0.01566 [    11]: 11121
      0.01522 [     1]: 01212
      0.01435 [    22]: 20112
      0.01390 [    25]: 21012
      0.01200 [     9]: 11022
      0.01074 [    27]: 21102
      0.00992 [    29]: 21120
      0.00864 [     7]: 10212
      0.00624 [    15]: 12012
      0.00519 [    20]: 12201
      0.00494 [    19]: 12120
      0.00458 [     0]: 01122
      0.00441 [    24]: 20211
      0.00411 [    21]: 12210
      0.00295 [    17]: 12102
ROOT  19:  E=   -3200.1218002502 Eh  2.177 eV  17561.5 cm**-1
      0.16093 [    10]: 11112
      0.14514 [    13]: 11211
      0.11968 [     8]: 10221
      0.11873 [    18]: 12111
      0.10470 [    11]: 11121
      0.07373 [     2]: 01221
      0.05824 [    14]: 11220
      0.05184 [    22]: 20112
      0.03232 [    34]: 22110
      0.02719 [    21]: 12210
      0.02259 [    28]: 21111
      0.01533 [     5]: 02211
      0.01201 [     3]: 02112
      0.00919 [    19]: 12120
      0.00734 [    24]: 20211
      0.00689 [     0]: 01122
      0.00640 [    29]: 21120
      0.00523 [     7]: 10212
      0.00468 [    27]: 21102
      0.00308 [    17]: 12102
      0.00280 [    23]: 20121
      0.00264 [    30]: 21201
      0.00251 [    32]: 22011
ROOT  20:  E=   -3200.1113594790 Eh  2.461 eV  19852.9 cm**-1
      0.20028 [    18]: 12111
      0.13036 [    13]: 11211
      0.07962 [    21]: 12210
      0.06462 [    28]: 21111
      0.06437 [    15]: 12012
      0.06341 [     5]: 02211
      0.05838 [    34]: 22110
      0.05184 [     3]: 02112
      0.04864 [    11]: 11121
      0.04600 [    19]: 12120
      0.03847 [    16]: 12021
      0.03588 [    24]: 20211
      0.01649 [    17]: 12102
      0.01469 [    25]: 21012
      0.01408 [     7]: 10212
      0.01317 [    10]: 11112
      0.01129 [    14]: 11220
      0.01032 [    27]: 21102
      0.01001 [    26]: 21021
      0.00855 [    29]: 21120
      0.00365 [     9]: 11022
      0.00361 [     2]: 01221
      0.00330 [    31]: 21210
ROOT  21:  E=   -3200.1107843073 Eh  2.477 eV  19979.2 cm**-1
      0.29992 [    10]: 11112
      0.11248 [     7]: 10212
      0.10881 [    21]: 12210
      0.06689 [    18]: 12111
      0.06688 [     3]: 02112
      0.06575 [    14]: 11220
      0.05736 [     9]: 11022
      0.04158 [    28]: 21111
      0.02122 [    13]: 11211
      0.01911 [    17]: 12102
      0.01492 [    22]: 20112
      0.01453 [     1]: 01212
      0.01272 [     2]: 01221
      0.01192 [    34]: 22110
      0.01016 [    19]: 12120
      0.00959 [    11]: 11121
      0.00878 [    12]: 11202
      0.00734 [     0]: 01122
      0.00604 [     5]: 02211
      0.00525 [     4]: 02121
      0.00520 [    31]: 21210
      0.00506 [    16]: 12021
      0.00499 [    15]: 12012
      0.00424 [    23]: 20121
      0.00420 [     6]: 10122
      0.00292 [    24]: 20211
      0.00292 [    20]: 12201
      0.00292 [    26]: 21021
ROOT  22:  E=   -3200.1068450538 Eh  2.584 eV  20843.7 cm**-1
      0.13165 [    29]: 21120
      0.11575 [    25]: 21012
      0.08463 [    18]: 12111
      0.07959 [    32]: 22011
      0.06591 [    10]: 11112
      0.06300 [    13]: 11211
      0.06021 [    28]: 21111
      0.05659 [    26]: 21021
      0.05129 [     1]: 01212
      0.04897 [    22]: 20112
      0.04719 [    11]: 11121
      0.02620 [     0]: 01122
      0.02587 [    27]: 21102
      0.02265 [    34]: 22110
      0.01964 [    33]: 22101
      0.01925 [     5]: 02211
      0.01365 [     3]: 02112
      0.01256 [     4]: 02121
      0.01186 [     7]: 10212
      0.00667 [    23]: 20121
      0.00597 [    21]: 12210
      0.00477 [     6]: 10122
      0.00398 [    12]: 11202
      0.00380 [    19]: 12120
      0.00375 [    30]: 21201
      0.00367 [    17]: 12102
      0.00312 [     2]: 01221
ROOT  23:  E=   -3200.1037797420 Eh  2.668 eV  21516.5 cm**-1
      0.31641 [    13]: 11211
      0.12279 [    21]: 12210
      0.07617 [    14]: 11220
      0.07473 [    31]: 21210
      0.06248 [    18]: 12111
      0.06096 [    24]: 20211
      0.03940 [    28]: 21111
      0.03236 [     3]: 02112
      0.03143 [    10]: 11112
      0.02028 [    11]: 11121
      0.01963 [    34]: 22110
      0.01774 [     5]: 02211
      0.01725 [    12]: 11202
      0.01390 [     0]: 01122
      0.01319 [    15]: 12012
      0.01266 [    33]: 22101
      0.01240 [     1]: 01212
      0.01200 [     4]: 02121
      0.00845 [     8]: 10221
      0.00843 [     6]: 10122
      0.00477 [    25]: 21012
      0.00389 [     9]: 11022
      0.00386 [     7]: 10212
      0.00305 [    27]: 21102
      0.00281 [    29]: 21120
ROOT  24:  E=   -3200.1022838526 Eh  2.708 eV  21844.8 cm**-1
      0.30403 [     7]: 10212
      0.10473 [    13]: 11211
      0.10073 [    10]: 11112
      0.07243 [    24]: 20211
      0.04700 [    22]: 20112
      0.04389 [    19]: 12120
      0.03316 [     1]: 01212
      0.03038 [     8]: 10221
      0.02580 [    11]: 11121
      0.02575 [     2]: 01221
      0.02386 [     3]: 02112
      0.02367 [    15]: 12012
      0.02280 [    12]: 11202
      0.02137 [    28]: 21111
      0.02108 [     9]: 11022
      0.01946 [    21]: 12210
      0.01195 [    14]: 11220
      0.01160 [    30]: 21201
      0.01063 [    25]: 21012
      0.00850 [     6]: 10122
      0.00733 [    18]: 12111
      0.00682 [    34]: 22110
      0.00531 [     5]: 02211
      0.00490 [    32]: 22011
      0.00278 [    29]: 21120
      0.00264 [    17]: 12102
ROOT  25:  E=   -3200.0986646771 Eh  2.807 eV  22639.1 cm**-1
      0.23204 [    24]: 20211
      0.16141 [    13]: 11211
      0.12696 [    31]: 21210
      0.06757 [     5]: 02211
      0.04443 [    34]: 22110
      0.04356 [    22]: 20112
      0.03888 [    32]: 22011
      0.03214 [     1]: 01212
      0.02842 [    10]: 11112
      0.02086 [     4]: 02121
      0.02064 [    18]: 12111
      0.01862 [    25]: 21012
      0.01700 [     8]: 10221
      0.01558 [    11]: 11121
      0.01557 [    15]: 12012
      0.01468 [     7]: 10212
      0.01412 [    20]: 12201
      0.01370 [    33]: 22101
      0.01321 [    27]: 21102
      0.01215 [    28]: 21111
      0.01207 [    14]: 11220
      0.00839 [    17]: 12102
      0.00552 [     6]: 10122
      0.00493 [     2]: 01221
      0.00351 [    30]: 21201
      0.00321 [     0]: 01122
      0.00263 [    16]: 12021
ROOT  26:  E=   -3200.0975821621 Eh  2.836 eV  22876.7 cm**-1
      0.23978 [    13]: 11211
      0.10660 [     1]: 01212
      0.10528 [     3]: 02112
      0.08988 [    18]: 12111
      0.06809 [    10]: 11112
      0.05243 [    11]: 11121
      0.04244 [    28]: 21111
      0.04135 [     7]: 10212
      0.03568 [    31]: 21210
      0.02546 [    12]: 11202
      0.02059 [    14]: 11220
      0.01810 [     2]: 01221
      0.01800 [    21]: 12210
      0.01747 [    25]: 21012
      0.01699 [     0]: 01122
      0.01645 [     4]: 02121
      0.01476 [    19]: 12120
      0.01318 [     8]: 10221
      0.01122 [    29]: 21120
      0.01017 [    17]: 12102
      0.00795 [    32]: 22011
      0.00791 [    27]: 21102
      0.00573 [    20]: 12201
      0.00454 [    30]: 21201
      0.00283 [     6]: 10122
ROOT  27:  E=   -3200.0914359603 Eh  3.004 eV  24225.7 cm**-1
      0.22513 [    13]: 11211
      0.20523 [    11]: 11121
      0.12693 [     8]: 10221
      0.10182 [    18]: 12111
      0.07374 [    20]: 12201
      0.05726 [    14]: 11220
      0.04199 [    10]: 11112
      0.03194 [    21]: 12210
      0.02833 [     9]: 11022
      0.02260 [    15]: 12012
      0.01741 [    12]: 11202
      0.01388 [    17]: 12102
      0.01143 [    31]: 21210
      0.01142 [     6]: 10122
      0.00933 [     5]: 02211
      0.00505 [     1]: 01212
      0.00264 [    30]: 21201
ROOT  28:  E=   -3200.0881474994 Eh  3.093 eV  24947.4 cm**-1
      0.21759 [    13]: 11211
      0.11493 [    31]: 21210
      0.10287 [     1]: 01212
      0.07556 [     5]: 02211
      0.06922 [    10]: 11112
      0.06696 [    24]: 20211
      0.06451 [    14]: 11220
      0.03842 [     3]: 02112
      0.03506 [    30]: 21201
      0.03314 [     2]: 01221
      0.02986 [    28]: 21111
      0.02199 [    18]: 12111
      0.02141 [     4]: 02121
      0.01766 [    11]: 11121
      0.01151 [    21]: 12210
      0.01048 [    12]: 11202
      0.00898 [    16]: 12021
      0.00834 [    34]: 22110
      0.00833 [    22]: 20112
      0.00688 [    33]: 22101
      0.00665 [    23]: 20121
      0.00659 [    29]: 21120
      0.00590 [     8]: 10221
      0.00402 [    20]: 12201
      0.00266 [    26]: 21021
ROOT  29:  E=   -3200.0749451472 Eh  3.452 eV  27845.0 cm**-1
      0.27230 [     5]: 02211
      0.13411 [     4]: 02121
      0.08098 [    21]: 12210
      0.06238 [    28]: 21111
      0.05547 [    24]: 20211
      0.05319 [    30]: 21201
      0.04312 [    23]: 20121
      0.03375 [    19]: 12120
      0.03307 [    32]: 22011
      0.02962 [     7]: 10212
      0.02816 [    13]: 11211
      0.02045 [    18]: 12111
      0.01836 [    33]: 22101
      0.01816 [     1]: 01212
      0.01485 [    12]: 11202
      0.01403 [    11]: 11121
      0.01309 [     6]: 10122
      0.01156 [    31]: 21210
      0.00911 [    15]: 12012
      0.00879 [    34]: 22110
      0.00871 [    20]: 12201
      0.00834 [    10]: 11112
      0.00548 [    29]: 21120
      0.00474 [    14]: 11220
      0.00355 [    17]: 12102
      0.00322 [     8]: 10221
      0.00259 [     0]: 01122
ROOT  30:  E=   -3200.0736113042 Eh  3.489 eV  28137.7 cm**-1
      0.12389 [    21]: 12210
      0.11437 [    19]: 12120
      0.09040 [     7]: 10212
      0.08068 [    13]: 11211
      0.07990 [    18]: 12111
      0.07074 [     5]: 02211
      0.06311 [     1]: 01212
      0.06118 [    11]: 11121
      0.05000 [     4]: 02121
      0.04380 [     6]: 10122
      0.03322 [     0]: 01122
      0.02903 [    20]: 12201
      0.02630 [    14]: 11220
      0.02488 [    28]: 21111
      0.01672 [    15]: 12012
      0.01545 [    24]: 20211
      0.01468 [    34]: 22110
      0.01208 [    31]: 21210
      0.01175 [    16]: 12021
      0.00560 [    17]: 12102
      0.00431 [    29]: 21120
      0.00412 [    22]: 20112
      0.00397 [     8]: 10221
      0.00396 [    23]: 20121
      0.00350 [    25]: 21012
      0.00269 [    10]: 11112
      0.00259 [    30]: 21201
      0.00258 [     2]: 01221
ROOT  31:  E=   -3200.0688378571 Eh  3.619 eV  29185.4 cm**-1
      0.23902 [    29]: 21120
      0.16553 [     0]: 01122
      0.15960 [    25]: 21012
      0.08418 [     1]: 01212
      0.05850 [    27]: 21102
      0.04563 [     2]: 01221
      0.03044 [    31]: 21210
      0.02586 [    23]: 20121
      0.02146 [    19]: 12120
      0.02037 [    28]: 21111
      0.01481 [    15]: 12012
      0.01466 [     9]: 11022
      0.01329 [    11]: 11121
      0.01237 [    32]: 22011
      0.01079 [    30]: 21201
      0.00996 [     7]: 10212
      0.00885 [     6]: 10122
      0.00850 [    34]: 22110
      0.00822 [     4]: 02121
      0.00642 [    13]: 11211
      0.00583 [    21]: 12210
      0.00566 [    17]: 12102
      0.00532 [     8]: 10221
      0.00524 [    18]: 12111
      0.00387 [    10]: 11112
      0.00384 [    24]: 20211
      0.00325 [    33]: 22101
      0.00266 [    12]: 11202
ROOT  32:  E=   -3200.0420366269 Eh  4.348 eV  35067.6 cm**-1
      0.37060 [     3]: 02112
      0.17033 [    34]: 22110
      0.12817 [    22]: 20112
      0.06248 [    13]: 11211
      0.05552 [    28]: 21111
      0.02783 [     4]: 02121
      0.02189 [    33]: 22101
      0.01977 [     5]: 02211
      0.01679 [    31]: 21210
      0.01645 [    21]: 12210
      0.01549 [    32]: 22011
      0.01138 [    10]: 11112
      0.01072 [    17]: 12102
      0.00971 [     1]: 01212
      0.00751 [    20]: 12201
      0.00667 [    11]: 11121
      0.00620 [    18]: 12111
      0.00619 [    27]: 21102
      0.00495 [    12]: 11202
      0.00460 [    25]: 21012
      0.00410 [     6]: 10122
      0.00323 [     7]: 10212
      0.00317 [    30]: 21201
      0.00298 [     0]: 01122
      0.00279 [    23]: 20121
      0.00278 [    14]: 11220
ROOT  33:  E=   -3200.0343261080 Eh  4.558 eV  36759.8 cm**-1
      0.20917 [    26]: 21021
      0.15860 [    28]: 21111
      0.12416 [    23]: 20121
      0.10934 [    32]: 22011
      0.04728 [    30]: 21201
      0.03700 [     9]: 11022
      0.02950 [    18]: 12111
      0.02887 [    10]: 11112
      0.02786 [     2]: 01221
      0.02594 [    31]: 21210
      0.02550 [    15]: 12012
      0.02510 [     4]: 02121
      0.02206 [    29]: 21120
      0.02160 [     6]: 10122
      0.01928 [    33]: 22101
      0.01262 [    25]: 21012
      0.01166 [    14]: 11220
      0.00917 [    11]: 11121
      0.00802 [    22]: 20112
      0.00786 [    16]: 12021
      0.00687 [    21]: 12210
      0.00647 [    12]: 11202
      0.00487 [    20]: 12201
      0.00481 [    13]: 11211
      0.00395 [     8]: 10221
      0.00366 [    17]: 12102
      0.00254 [    27]: 21102
ROOT  34:  E=   -3200.0223511707 Eh  4.883 eV  39388.0 cm**-1
      0.24137 [    31]: 21210
      0.17576 [     1]: 01212
      0.16621 [    25]: 21012
      0.05070 [    24]: 20211
      0.04745 [     5]: 02211
      0.04229 [    27]: 21102
      0.03522 [     2]: 01221
      0.02851 [    18]: 12111
      0.02422 [    10]: 11112
      0.02203 [    30]: 21201
      0.01894 [    34]: 22110
      0.01818 [    21]: 12210
      0.01783 [    14]: 11220
      0.01699 [    26]: 21021
      0.01586 [    28]: 21111
      0.01332 [     9]: 11022
      0.01169 [    12]: 11202
      0.00985 [    15]: 12012
      0.00965 [    32]: 22011
      0.00707 [    17]: 12102
      0.00523 [     7]: 10212
      0.00509 [    13]: 11211
      0.00364 [    19]: 12120
      0.00334 [    22]: 20112
ROOT  35:  E=   -3200.0216915273 Eh  4.901 eV  39532.8 cm**-1
      0.26730 [    10]: 11112
      0.10453 [    14]: 11220
      0.08186 [    12]: 11202
      0.07957 [     9]: 11022
      0.06787 [    28]: 21111
      0.05687 [    15]: 12012
      0.04082 [    31]: 21210
      0.03891 [    11]: 11121
      0.03307 [    13]: 11211
      0.02672 [    17]: 12102
      0.02178 [    19]: 12120
      0.02103 [    30]: 21201
      0.01917 [     8]: 10221
      0.01862 [    26]: 21021
      0.01848 [    18]: 12111
      0.01660 [    32]: 22011
      0.01489 [    16]: 12021
      0.01248 [     2]: 01221
      0.01038 [    24]: 20211
      0.00841 [    33]: 22101
      0.00772 [     7]: 10212
      0.00719 [    29]: 21120
      0.00711 [    34]: 22110
      0.00439 [     1]: 01212
      0.00269 [    27]: 21102
      0.00257 [     0]: 01122
ROOT  36:  E=   -3200.0127212834 Eh  5.146 eV  41501.5 cm**-1
      0.34494 [    15]: 12012
      0.10362 [    17]: 12102
      0.10149 [    21]: 12210
      0.07307 [    25]: 21012
      0.06190 [    18]: 12111
      0.05610 [     7]: 10212
      0.05040 [    32]: 22011
      0.03040 [    31]: 21210
      0.02117 [    28]: 21111
      0.01907 [    27]: 21102
      0.01471 [    33]: 22101
      0.01352 [     1]: 01212
      0.01298 [    10]: 11112
      0.01244 [     9]: 11022
      0.01235 [    14]: 11220
      0.01152 [    12]: 11202
      0.01030 [     5]: 02211
      0.00962 [    20]: 12201
      0.00679 [    30]: 21201
      0.00539 [    34]: 22110
      0.00493 [    11]: 11121
      0.00415 [    24]: 20211
      0.00380 [     6]: 10122
      0.00364 [    19]: 12120
      0.00305 [    16]: 12021
      0.00291 [    13]: 11211
ROOT  37:  E=   -3200.0049523484 Eh  5.357 eV  43206.6 cm**-1
      0.30529 [    18]: 12111
      0.15970 [    16]: 12021
      0.10221 [    10]: 11112
      0.09400 [    20]: 12201
      0.05491 [     9]: 11022
      0.04000 [     8]: 10221
      0.03833 [    11]: 11121
      0.03709 [    19]: 12120
      0.02980 [    12]: 11202
      0.02863 [    21]: 12210
      0.01780 [     6]: 10122
      0.01589 [    13]: 11211
      0.01088 [    28]: 21111
      0.01075 [    32]: 22011
      0.00731 [     7]: 10212
      0.00659 [    33]: 22101
      0.00504 [    26]: 21021
      0.00475 [    25]: 21012
      0.00459 [     2]: 01221
      0.00368 [    24]: 20211
      0.00363 [    29]: 21120
      0.00300 [    34]: 22110
      0.00282 [    15]: 12012
      0.00269 [    31]: 21210
ROOT  38:  E=   -3200.0035658726 Eh  5.395 eV  43510.9 cm**-1
      0.19230 [    28]: 21111
      0.15471 [    32]: 22011
      0.15284 [    24]: 20211
      0.07228 [     5]: 02211
      0.05260 [    15]: 12012
      0.05223 [    25]: 21012
      0.03450 [    10]: 11112
      0.03436 [    33]: 22101
      0.02970 [    22]: 20112
      0.02872 [     7]: 10212
      0.02767 [    30]: 21201
      0.02386 [    18]: 12111
      0.01558 [     8]: 10221
      0.01495 [    16]: 12021
      0.01475 [    17]: 12102
      0.01408 [    20]: 12201
      0.01341 [    34]: 22110
      0.01324 [    11]: 11121
      0.00851 [    13]: 11211
      0.00839 [     3]: 02112
      0.00724 [    27]: 21102
      0.00700 [    26]: 21021
      0.00682 [    21]: 12210
      0.00464 [    29]: 21120
ROOT  39:  E=   -3199.7600873630 Eh 12.020 eV  96948.3 cm**-1
      0.23505 [    33]: 22101
      0.16439 [    30]: 21201
      0.09688 [    28]: 21111
      0.08497 [    27]: 21102
      0.08243 [    32]: 22011
      0.08235 [    17]: 12102
      0.05319 [    18]: 12111
      0.02844 [    25]: 21012
      0.02827 [    15]: 12012
      0.02694 [    20]: 12201
      0.02035 [    12]: 11202
      0.01918 [    13]: 11211
      0.01661 [    10]: 11112
      0.01416 [    16]: 12021
      0.01207 [    24]: 20211
      0.00819 [    11]: 11121
      0.00814 [    26]: 21021
      0.00675 [    22]: 20112
ROOT  40:  E=   -3199.7527024801 Eh 12.221 eV  98569.1 cm**-1
      0.27543 [    20]: 12201
      0.21881 [    12]: 11202
      0.18935 [    18]: 12111
      0.14514 [    10]: 11112
      0.03674 [    16]: 12021
      0.03170 [    13]: 11211
      0.02667 [     9]: 11022
      0.01681 [     7]: 10212
      0.01088 [    11]: 11121
      0.00574 [     5]: 02211
      0.00522 [    30]: 21201
      0.00515 [     6]: 10122
      0.00475 [    33]: 22101
      0.00474 [     1]: 01212
      0.00426 [    17]: 12102
      0.00308 [    28]: 21111
ROOT  41:  E=   -3199.7394355544 Eh 12.582 eV 101480.8 cm**-1
      0.32721 [    27]: 21102
      0.27672 [    33]: 22101
      0.11639 [    25]: 21012
      0.09810 [    32]: 22011
      0.08568 [    28]: 21111
      0.02451 [    22]: 20112
      0.02094 [    26]: 21021
      0.01346 [    10]: 11112
      0.00905 [    18]: 12111
      0.00803 [    30]: 21201
      0.00501 [    23]: 20121
ROOT  42:  E=   -3199.7355320283 Eh 12.688 eV 102337.5 cm**-1
      0.20268 [    17]: 12102
      0.14171 [    10]: 11112
      0.11218 [    12]: 11202
      0.07802 [    20]: 12201
      0.07091 [    27]: 21102
      0.07030 [    15]: 12012
      0.06456 [    30]: 21201
      0.05342 [    18]: 12111
      0.05274 [    28]: 21111
      0.03201 [     9]: 11022
      0.02536 [    25]: 21012
      0.01364 [    33]: 22101
      0.01216 [    13]: 11211
      0.01113 [    26]: 21021
      0.01007 [    16]: 12021
      0.00860 [     7]: 10212
      0.00669 [     6]: 10122
      0.00546 [    22]: 20112
      0.00493 [    24]: 20211
      0.00444 [     3]: 02112
      0.00434 [    32]: 22011
      0.00425 [    11]: 11121
ROOT  43:  E=   -3199.7139890205 Eh 13.274 eV 107065.7 cm**-1
      0.19358 [    30]: 21201
      0.16899 [    28]: 21111
      0.15249 [    27]: 21102
      0.06762 [    10]: 11112
      0.05728 [    17]: 12102
      0.05568 [    33]: 22101
      0.05413 [    25]: 21012
      0.03660 [    26]: 21021
      0.03264 [    20]: 12201
      0.02633 [    12]: 11202
      0.02298 [    13]: 11211
      0.01974 [    15]: 12012
      0.01873 [     9]: 11022
      0.01827 [    32]: 22011
      0.01645 [    18]: 12111
      0.01529 [    24]: 20211
      0.01182 [    22]: 20112
      0.00840 [    11]: 11121
      0.00751 [    23]: 20121
      0.00402 [     6]: 10122
ROOT  44:  E=   -3199.7056177974 Eh 13.502 eV 108903.0 cm**-1
      0.30233 [    17]: 12102
      0.12514 [    12]: 11202
      0.10668 [    15]: 12012
      0.07750 [    10]: 11112
      0.05905 [    20]: 12201
      0.05892 [    30]: 21201
      0.05621 [    33]: 22101
      0.04978 [    18]: 12111
      0.03565 [    28]: 21111
      0.03551 [    27]: 21102
      0.02002 [    32]: 22011
      0.01206 [    25]: 21012
      0.00984 [    13]: 11211
      0.00928 [    16]: 12021
      0.00873 [     7]: 10212
      0.00670 [     3]: 02112
      0.00427 [    24]: 20211
      0.00418 [     9]: 11022
      0.00399 [    26]: 21021
      0.00324 [    11]: 11121
      0.00290 [     1]: 01212
      0.00272 [    22]: 20112

                 <<<<<<<<<<<<<<<<<<INITIAL CI STATE CHECK>>>>>>>>>>>>>>>>>>

   E(CAS)= -3200.126840345 Eh DE=    0.000000e+00
   --- Energy gap subspaces: Ext-Act = 0.062   Act-Int = 0.062
   N(occ)=  1.20000 1.20000 1.20000 1.20000 1.20000
   ||g|| =     9.255099e-04 Max(G)=   -1.962678e-04 Rot=208,161
                     ---- THE CAS-SCF GRADIENT HAS CONVERGED ----
                            --- FINALIZING ORBITALS ---
                    ---- DOING ONE FINAL ITERATION FOR PRINTING ----
   --- Forming Natural Orbitals
   --- Canonicalize Internal Space
   --- Canonicalize External Space

MACRO-ITERATION   2: 
   --- Inactive Energy E0 = -3191.76405876 Eh
   --- All densities will be recomputed
CI-ITERATION   0: 
 -3200.227876605   0.000000000000 (    0.00)
 -3200.190754404   0.000000000000
 -3200.189451929   0.000000000000
 -3200.185595823   0.000000000000
 -3200.170619560   0.000000000000
   CI-PROBLEM SOLVED
   DENSITIES MADE
CI-ITERATION   0: 
 -3200.201816152   0.000000000000 (    0.00)
 -3200.197988056   0.000000000000
 -3200.193941232   0.000000000000
 -3200.192283157   0.000000000000
 -3200.167011467   0.000000000000
 -3200.166305112   0.000000000000
 -3200.162088060   0.000000000000
 -3200.157555871   0.000000000000
 -3200.154732872   0.000000000000
 -3200.150399816   0.000000000000
 -3200.146092198   0.000000000000
 -3200.140557609   0.000000000000
 -3200.140085559   0.000000000000
 -3200.133616955   0.000000000000
 -3200.132604449   0.000000000000
 -3200.130261521   0.000000000000
 -3200.126262781   0.000000000000
 -3200.122370588   0.000000000000
 -3200.121886169   0.000000000000
 -3200.121800250   0.000000000000
 -3200.111359478   0.000000000000
 -3200.110784307   0.000000000000
 -3200.106845053   0.000000000000
 -3200.103779741   0.000000000000
 -3200.102283852   0.000000000000
 -3200.098664677   0.000000000000
 -3200.097582161   0.000000000000
 -3200.091435960   0.000000000000
 -3200.088147499   0.000000000000
 -3200.074945146   0.000000000000
 -3200.073611303   0.000000000000
 -3200.068837857   0.000000000000
 -3200.042036626   0.000000000000
 -3200.034326108   0.000000000000
 -3200.022351170   0.000000000000
 -3200.021691527   0.000000000000
 -3200.012721283   0.000000000000
 -3200.004952348   0.000000000000
 -3200.003565872   0.000000000000
 -3199.760087363   0.000000000000
 -3199.752702479   0.000000000000
 -3199.739435554   0.000000000000
 -3199.735532028   0.000000000000
 -3199.713989020   0.000000000000
 -3199.705617797   0.000000000000
   CI-PROBLEM SOLVED
   DENSITIES MADE
   E(CAS)= -3200.126840344 Eh DE=    5.898073e-10
   --- Energy gap subspaces: Ext-Act = 0.063   Act-Int = 0.076
   N(occ)=  1.20000 1.20000 1.20000 1.20000 1.20000
   ||g|| =     9.255099e-04 Max(G)=   -2.050547e-04 Rot=208,165
--------------
CASSCF RESULTS
--------------

Final CASSCF energy       : -3200.126840344 Eh  -87079.8784 eV

----------------
ORBITAL ENERGIES
----------------

  NO   OCC          E(Eh)            E(eV) 
   0   2.0000    -220.513035     -6000.4647 
   1   2.0000     -26.352872      -717.0981 
   2   2.0000     -22.286297      -606.4410 
   3   2.0000     -22.286207      -606.4385 
   4   2.0000     -22.272877      -606.0758 
   5   2.0000      -4.721459      -128.4774 
   6   2.0000      -4.717363      -128.3660 
   7   2.0000      -4.717249      -128.3629 
   8   2.0000      -4.715022      -128.3023 
   9   2.0000      -4.714931      -128.2998 
  10   2.0000      -4.714856      -128.2978 
  11   2.0000      -4.714790      -128.2960 
  12   2.0000      -4.713053      -128.2487 
  13   2.0000      -4.712305      -128.2283 
  14   2.0000      -4.709958      -128.1645 
  15   2.0000      -4.709730      -128.1583 
  16   2.0000      -4.707574      -128.0996 
  17   2.0000      -4.707121      -128.0873 
  18   2.0000      -4.707041      -128.0851 
  19   2.0000      -4.704979      -128.0290 
  20   2.0000      -4.704687      -128.0210 
  21   2.0000      -3.407221       -92.7152 
  22   2.0000      -2.760469       -75.1162 
  23   2.0000      -2.759719       -75.0958 
  24   2.0000      -2.757681       -75.0403 
  25   2.0000      -2.757537       -75.0364 
  26   2.0000      -2.757182       -75.0267 
  27   2.0000      -2.755936       -74.9928 
  28   2.0000      -2.754691       -74.9590 
  29   2.0000      -2.754540       -74.9549 
  30   2.0000      -2.753116       -74.9161 
  31   2.0000      -2.753106       -74.9158 
  32   2.0000      -2.752621       -74.9026 
  33   2.0000      -2.752175       -74.8905 
  34   2.0000      -2.751665       -74.8766 
  35   2.0000      -2.751280       -74.8661 
  36   2.0000      -2.751054       -74.8600 
  37   2.0000      -2.750816       -74.8535 
  38   2.0000      -2.750761       -74.8520 
  39   2.0000      -2.750212       -74.8371 
  40   2.0000      -2.750152       -74.8354 
  41   2.0000      -2.750135       -74.8350 
  42   2.0000      -2.749912       -74.8289 
  43   2.0000      -2.749287       -74.8119 
  44   2.0000      -2.748803       -74.7987 
  45   2.0000      -2.748143       -74.7808 
  46   2.0000      -2.747977       -74.7763 
  47   2.0000      -2.747803       -74.7715 
  48   2.0000      -2.747441       -74.7617 
  49   2.0000      -2.746935       -74.7479 
  50   2.0000      -2.746746       -74.7428 
  51   2.0000      -2.746059       -74.7241 
  52   2.0000      -2.745582       -74.7111 
  53   2.0000      -2.745079       -74.6974 
  54   2.0000      -2.744220       -74.6740 
  55   2.0000      -2.744097       -74.6707 
  56   2.0000      -2.743786       -74.6622 
  57   2.0000      -2.743669       -74.6590 
  58   2.0000      -2.742391       -74.6243 
  59   2.0000      -2.742266       -74.6208 
  60   2.0000      -2.742088       -74.6160 
  61   2.0000      -2.741243       -74.5930 
  62   2.0000      -2.740556       -74.5743 
  63   2.0000      -2.740112       -74.5622 
  64   2.0000      -2.739918       -74.5570 
  65   2.0000      -2.739695       -74.5509 
  66   2.0000      -2.739502       -74.5456 
  67   2.0000      -2.738713       -74.5242 
  68   2.0000      -2.738461       -74.5173 
  69   2.0000      -2.737529       -74.4920 
  70   2.0000      -2.172507       -59.1169 
  71   2.0000      -2.171187       -59.0810 
  72   2.0000      -2.159790       -58.7709 
  73   2.0000      -0.562723       -15.3125 
  74   2.0000      -0.556358       -15.1393 
  75   2.0000      -0.552365       -15.0306 
  76   2.0000      -0.549095       -14.9416 
  77   2.0000      -0.548783       -14.9332 
  78   2.0000      -0.546061       -14.8591 
  79   2.0000      -0.545224       -14.8363 
  80   2.0000      -0.544727       -14.8228 
  81   2.0000      -0.540707       -14.7134 
  82   2.0000      -0.539340       -14.6762 
  83   2.0000      -0.539274       -14.6744 
  84   2.0000      -0.538236       -14.6461 
  85   2.0000      -0.537023       -14.6131 
  86   2.0000      -0.535253       -14.5650 
  87   2.0000      -0.534125       -14.5343 
  88   2.0000      -0.533730       -14.5235 
  89   2.0000      -0.532432       -14.4882 
  90   2.0000      -0.531304       -14.4575 
  91   2.0000      -0.529820       -14.4171 
  92   2.0000      -0.529444       -14.4069 
  93   2.0000      -0.525469       -14.2987 
  94   2.0000      -0.523688       -14.2503 
  95   2.0000      -0.521714       -14.1965 
  96   2.0000      -0.519682       -14.1413 
[...]
 3 117   43758.0    228.5   0.000000000   0.00040   0.00434   0.01407   0.01357
 3 118   43767.2    228.5   0.000000000   0.00016   0.00161   0.00930   0.00853
 3 119   43773.4    228.4   0.000000000   0.00000   0.00068   0.00078   0.00049
 3 120   43775.1    228.4   0.000000000   0.00001   0.00132   0.00208   0.00007
 3 121   45614.6    219.2   0.000000000   0.00005   0.00003   0.00428   0.00526
 3 122   45616.1    219.2   0.000000000   0.22472   0.10473   0.36614   0.28230
 3 123   45619.0    219.2   0.000000000   0.00308   0.00875   0.04286   0.03423
 3 124   46400.9    215.5   0.000000000   0.07600   0.13027   0.23950   0.04083
 3 125   46402.0    215.5   0.000000000   0.00605   0.03660   0.06773   0.01090
 3 126   46403.8    215.5   0.000000000   0.00005   0.00595   0.00250   0.00209
 3 127   47768.4    209.3   0.000000000   0.00001   0.00221   0.00046   0.00167
 3 128   47772.3    209.3   0.000000000   0.00052   0.01408   0.00351   0.01750
 3 129   47775.1    209.3   0.000000000   0.00008   0.00535   0.00424   0.00538
 3 130   48586.7    205.8   0.000000000   0.00004   0.00559   0.00093   0.00262
 3 131   48589.0    205.8   0.000000000   0.00025   0.00134   0.00280   0.01545
 3 132   48610.6    205.7   0.000000000   0.00003   0.00482   0.00138   0.00122
 3 133   48641.0    205.6   0.000000000   0.00052   0.00728   0.01762   0.01260
 3 134   48659.0    205.5   0.000000000   0.00008   0.00837   0.00277   0.00081
 3 135   48662.3    205.5   0.000000000   0.00033   0.00208   0.00561   0.01702
 3 136   49509.3    202.0   0.000000000   0.00001   0.00267   0.00120   0.00044
 3 137   49510.5    202.0   0.000000000   0.00067   0.01867   0.00549   0.01716
 3 138   49510.8    202.0   0.000000000   0.00000   0.00090   0.00009   0.00072
 3 139   49836.2    200.7   0.000000000   0.00003   0.00083   0.00377   0.00357
 3 140   49837.1    200.7   0.000000000   0.00001   0.00193   0.00096   0.00092
 3 141   49839.1    200.6   0.000000000   0.00017   0.01268   0.00210   0.00132
 3 142   51738.4    193.3   0.000000000   0.00000   0.00014   0.00013   0.00035
 3 143   51741.8    193.3   0.000000000   0.00000   0.00032   0.00038   0.00078
 3 144   51743.1    193.3   0.000000000   0.00023   0.00435   0.00258   0.01445
 3 145   55861.1    179.0   0.000000000   0.00000   0.00141   0.00042   0.00093
 3 146   55861.8    179.0   0.000000000   0.00004   0.00376   0.00415   0.00231
 3 147   55862.6    179.0   0.000000000   0.00079   0.01023   0.02613   0.00207
 3 148   60052.2    166.5   0.000000000   0.00009   0.00875   0.00122   0.00384
 3 149   60053.0    166.5   0.000000000   0.00075   0.00777   0.02288   0.01290
 3 150   60053.7    166.5   0.000000000   0.00002   0.00338   0.00125   0.00302
 3 151   65177.8    153.4   0.000000000   0.00009   0.00063   0.00706   0.00609
 3 152   65180.2    153.4   0.000000000   0.19911   0.09368   0.31072   0.30624
 3 153   65180.3    153.4   0.000000000   0.00023   0.00263   0.01086   0.01004
 3 154  154493.1     64.7   0.000000000   0.00304   0.04913   0.02450   0.00528
 3 155  154493.3     64.7   0.000000000   0.26183   0.45971   0.22085   0.04155
 3 156  154495.8     64.7   0.000000000   0.00003   0.00515   0.00257   0.00037
 3 157  168820.4     59.2   0.000000000   0.00006   0.00663   0.00376   0.00076
 3 158  168822.5     59.2   0.000000000   0.00007   0.00722   0.00402   0.00115
 3 159  168822.8     59.2   0.000000000   0.46689   0.59551   0.32364   0.08668
 4  5       1.4   6989944.6   0.000000000   0.00000   0.00000   0.00000   0.00000
 4  6   10236.2    976.9   0.000000000   0.00005   0.00524   0.00502   0.00143
 4  7   10241.9    976.4   0.000000000   0.00314   0.04262   0.03237   0.01669
 4  8   10246.0    976.0   0.000000000   0.00000   0.00016   0.00056   0.00066
 4  9   10268.2    973.9   0.000000000   0.00000   0.00018   0.00030   0.00001
 4 10   10268.4    973.9   0.000000000   0.00001   0.00168   0.00077   0.00194
 4 11   10651.5    938.8   0.000000000   0.04740   0.16411   0.12766   0.06458
 4 12   10652.5    938.7   0.000000000   0.00352   0.04677   0.03323   0.01524
 4 13   10659.5    938.1   0.000000000   0.00109   0.02540   0.01802   0.01091
 4 14   12573.9    795.3   0.000000000   0.00001   0.00205   0.00125   0.00077
 4 15   12576.1    795.2   0.000000000   0.00000   0.00075   0.00081   0.00098
 4 16   12577.3    795.1   0.000000000   0.00196   0.02212   0.01810   0.03387
 4 17   13413.4    745.5   0.000000000   0.00003   0.00417   0.00345   0.00080
 4 18   13416.8    745.3   0.000000000   0.00266   0.01994   0.03807   0.02844
 4 19   13419.9    745.2   0.000000000   0.00001   0.00064   0.00143   0.00189
 4 20   15174.9    659.0   0.000000000   0.00023   0.01278   0.00777   0.00204
 4 21   15181.0    658.7   0.000000000   0.00078   0.02369   0.01452   0.00254
 4 22   15186.0    658.5   0.000000000   0.04195   0.17261   0.10743   0.02475
 4 23   18068.8    553.4   0.000000000   0.00403   0.02806   0.03310   0.04630
 4 24   18074.7    553.3   0.000000000   0.00018   0.00555   0.00786   0.00951
 4 25   18076.9    553.2   0.000000000   0.00004   0.00464   0.00193   0.00412
 4 26   21826.3    458.2   0.000000000   0.00000   0.00010   0.00026   0.00021
 4 27   21826.5    458.2   0.000000000   0.00013   0.00880   0.00198   0.00676
 4 28   21827.6    458.1   0.000000000   0.00000   0.00046   0.00004   0.00028
 4 29   22822.8    438.2   0.000000000   0.07828   0.24800   0.12526   0.03290
 4 30   22823.5    438.1   0.000000000   0.00031   0.01533   0.00826   0.00260
 4 31   22825.5    438.1   0.000000000   0.00027   0.01445   0.00746   0.00178
 4 32   24720.7    404.5   0.000000000   0.00000   0.00006   0.00009   0.00020
 4 33   24720.8    404.5   0.000000000   0.00000   0.00050   0.00024   0.00005
 4 34   24724.8    404.5   0.000000000   0.00000   0.00055   0.00025   0.00036
 4 35   24726.0    404.4   0.000000000   0.00002   0.00351   0.00199   0.00036
 4 36   24727.0    404.4   0.000000000   0.00003   0.00433   0.00129   0.00262
 4 37   28085.2    356.1   0.000000000   0.00929   0.02832   0.07531   0.05310
 4 38   28085.6    356.1   0.000000000   0.06251   0.06011   0.19663   0.14225
 4 39   28093.4    356.0   0.000000000   0.00009   0.00235   0.00768   0.00533
 4 40   28542.6    350.4   0.000000000   0.00018   0.00195   0.00979   0.00906
 4 41   28543.5    350.3   0.000000000   0.00001   0.00061   0.00216   0.00163
 4 42   28544.0    350.3   0.000000000   0.00000   0.00018   0.00042   0.00157
 4 43   29333.5    340.9   0.000000000   0.00004   0.00432   0.00376   0.00198
 4 44   29343.0    340.8   0.000000000   0.00025   0.00446   0.01130   0.01001
 4 45   29364.4    340.5   0.000000000   0.01010   0.07119   0.06262   0.03331
 4 46   29795.1    335.6   0.000000000   0.00032   0.00111   0.00259   0.01774
 4 47   29816.6    335.4   0.000000000   0.00002   0.00145   0.00259   0.00297
 4 48   29817.0    335.4   0.000000000   0.00000   0.00007   0.00066   0.00186
 4 49   34380.8    290.9   0.000000000   0.00044   0.00980   0.01166   0.01427
 4 50   34382.3    290.8   0.000000000   0.02054   0.12230   0.07246   0.01830
 4 51   34393.0    290.8   0.000000000   0.00003   0.00453   0.00310   0.00039
 4 52   34591.3    289.1   0.000000000   0.00005   0.00330   0.00597   0.00179
 4 53   34595.8    289.1   0.000000000   0.00130   0.02606   0.02266   0.01053
 4 54   34597.8    289.0   0.000000000   0.01208   0.03118   0.08383   0.06392
 4 55   34981.3    285.9   0.000000000   0.00065   0.01266   0.02214   0.00000
 4 56   34985.4    285.8   0.000000000   0.00511   0.05548   0.02333   0.03860
 4 57   34990.1    285.8   0.000000000   0.00021   0.01313   0.00210   0.00565
 4 58   35293.2    283.3   0.000000000   0.00304   0.03102   0.04540   0.00415
 4 59   35296.4    283.3   0.000000000   0.05089   0.12670   0.18601   0.01551
 4 60   35300.1    283.3   0.000000000   0.00008   0.00250   0.00795   0.00389
 4 61   37261.6    268.4   0.000000000   0.00010   0.00082   0.00592   0.00804
 4 62   37262.0    268.4   0.000000000   0.00145   0.03085   0.01850   0.01247
 4 63   37266.0    268.3   0.000000000   0.00057   0.01605   0.01333   0.01165
 4 64   37461.1    266.9   0.000000000   0.00288   0.00512   0.04128   0.03397
 4 65   37462.4    266.9   0.000000000   0.00058   0.00120   0.01853   0.01524
 4 66   37462.9    266.9   0.000000000   0.00005   0.00679   0.00042   0.00074
 4 67   37552.5    266.3   0.000000000   0.00426   0.01336   0.03723   0.05189
 4 68   37557.1    266.3   0.000000000   0.01246   0.02365   0.06327   0.08888
 4 69   37559.0    266.2   0.000000000   0.00008   0.00395   0.00578   0.00551
 4 70   38756.0    258.0   0.000000000   0.00001   0.00300   0.00131   0.00103
 4 71   38756.1    258.0   0.000000000   0.00390   0.05948   0.01644   0.00972
 4 72   38756.1    258.0   0.000000000   0.00035   0.01791   0.00496   0.00294
 4 73   39045.4    256.1   0.000000000   0.00001   0.00004   0.00340   0.00153
 4 74   39047.4    256.1   0.000000000   0.00921   0.01103   0.06997   0.06472
 4 75   39122.3    255.6   0.000000000   0.00099   0.00219   0.00968   0.02978
 4 76   39181.5    255.2   0.000000000   0.00009   0.00326   0.00117   0.00902
 4 77   39190.8    255.2   0.000000000   0.07081   0.02020   0.19725   0.17746
 4 78   39206.3    255.1   0.000000000   0.00004   0.00116   0.00140   0.00598
 4 79   39235.2    254.9   0.000000000   0.28365   0.03703   0.39502   0.35530
 4 80   39314.0    254.4   0.000000000   0.02056   0.03152   0.10044   0.09736
 4 81   39339.3    254.2   0.000000000   0.00029   0.00252   0.01031   0.01323
 4 82   39688.2    252.0   0.000000000   0.00048   0.01222   0.01547   0.00967
 4 83   39716.3    251.8   0.000000000   0.00002   0.00149   0.00329   0.00167
 4 84   39725.3    251.7   0.000000000   0.00069   0.01625   0.01450   0.01470
 4 85   40034.6    249.8   0.000000000   0.01850   0.02235   0.10349   0.08535
 4 86   40043.9    249.7   0.000000000   0.01002   0.04340   0.06038   0.06702
 4 87   40066.8    249.6   0.000000000   0.00003   0.00007   0.00421   0.00375
 4 88   40312.8    248.1   0.000000000   0.31909   0.33831   0.39144   0.22675
 4 89   40319.1    248.0   0.000000000   0.00116   0.00153   0.02542   0.02258
 4 90   40325.8    248.0   0.000000000   0.00052   0.01334   0.01453   0.01163
 4 91   40435.4    247.3   0.000000000   0.03208   0.09471   0.09875   0.11559
 4 92   40436.2    247.3   0.000000000   0.00012   0.00513   0.00718   0.00642
 4 93   40439.3    247.3   0.000000000   0.00079   0.02731   0.00374   0.00585
 4 94   40704.3    245.7   0.000000000   0.00014   0.00414   0.00783   0.00759
 4 95   40732.6    245.5   0.000000000   0.10568   0.07125   0.22704   0.22148
 4 96   40734.6    245.5   0.000000000   0.01966   0.10251   0.05287   0.07972
 4 97   41237.0    242.5   0.000000000   0.26572   0.21579   0.38924   0.26009
 4 98   41241.9    242.5   0.000000000   0.00475   0.00944   0.05373   0.04212
 4 99   41263.1    242.3   0.000000000   0.00034   0.00714   0.01377   0.00974
 4 100   41389.6    241.6   0.000000000   0.00001   0.00223   0.00031   0.00044
 4 101   41412.8    241.5   0.000000000   0.00859   0.08607   0.00746   0.03355
 4 102   41415.6    241.5   0.000000000   0.02055   0.03845   0.11125   0.08184
 4 103   41842.9    239.0   0.000000000   0.00001   0.00181   0.00180   0.00239
 4 104   41843.4    239.0   0.000000000   0.00000   0.00080   0.00013   0.00134
 4 105   41862.7    238.9   0.000000000   0.00001   0.00048   0.00287   0.00248
 4 106   41869.6    238.8   0.000000000   0.00048   0.00381   0.01678   0.01338
 4 107   41873.7    238.8   0.000000000   0.00000   0.00108   0.00028   0.00077
 4 108   42673.9    234.3   0.000000000   0.00000   0.00080   0.00157   0.00045
 4 109   42674.1    234.3   0.000000000   0.00003   0.00337   0.00228   0.00296
 4 110   42691.2    234.2   0.000000000   0.00054   0.00991   0.01754   0.01174
 4 111   42691.8    234.2   0.000000000   0.00022   0.00562   0.01150   0.00728
 4 112   42697.3    234.2   0.000000000   0.00049   0.01587   0.01394   0.00655
 4 113   43208.2    231.4   0.000000000   0.00007   0.00613   0.00549   0.00190
 4 114   43219.2    231.4   0.000000000   0.03361   0.14209   0.10678   0.04493
 4 115   43222.0    231.4   0.000000000   0.00446   0.04261   0.04531   0.02432
 4 116   43755.7    228.5   0.000000000   0.00000   0.00066   0.00181   0.00051
 4 117   43756.6    228.5   0.000000000   0.00017   0.00158   0.00958   0.00880
 4 118   43765.7    228.5   0.000000000   0.00038   0.00497   0.01349   0.01334
 4 119   43772.0    228.5   0.000000000   0.00001   0.00128   0.00204   0.00001
 4 120   43773.7    228.4   0.000000000   0.00000   0.00090   0.00137   0.00067
 4 121   45613.1    219.2   0.000000000   0.00070   0.00913   0.02344   0.00825
 4 122   45614.6    219.2   0.000000000   0.00303   0.00853   0.04240   0.03404
 4 123   45617.6    219.2   0.000000000   0.22442   0.10435   0.36574   0.28243
 4 124   46399.4    215.5   0.000000000   0.00595   0.03625   0.06719   0.01103
 4 125   46400.6    215.5   0.000000000   0.07540   0.13000   0.23833   0.04124
 4 126   46402.4    215.5   0.000000000   0.00087   0.00992   0.02673   0.00722
 4 127   47767.0    209.3   0.000000000   0.00052   0.01395   0.00357   0.01757
 4 128   47770.9    209.3   0.000000000   0.00001   0.00192   0.00039   0.00182
 4 129   47773.7    209.3   0.000000000   0.00000   0.00125   0.00134   0.00064
 4 130   48585.3    205.8   0.000000000   0.00026   0.00140   0.00270   0.01585
 4 131   48587.6    205.8   0.000000000   0.00004   0.00585   0.00090   0.00271
 4 132   48609.1    205.7   0.000000000   0.00000   0.00108   0.00132   0.00064
 4 133   48639.5    205.6   0.000000000   0.00001   0.00049   0.00218   0.00135
 4 134   48657.6    205.5   0.000000000   0.00030   0.00203   0.00543   0.01642
 4 135   48660.9    205.5   0.000000000   0.00009   0.00865   0.00371   0.00143
 4 136   49507.8    202.0   0.000000000   0.00000   0.00068   0.00032   0.00061
 4 137   49509.1    202.0   0.000000000   0.00000   0.00079   0.00013   0.00070
 4 138   49509.4    202.0   0.000000000   0.00067   0.01869   0.00546   0.01715
 4 139   49834.7    200.7   0.000000000   0.00000   0.00078   0.00143   0.00086
 4 140   49835.7    200.7   0.000000000   0.00017   0.01270   0.00195   0.00122
 4 141   49837.7    200.7   0.000000000   0.00001   0.00178   0.00140   0.00139
 4 142   51737.0    193.3   0.000000000   0.00001   0.00167   0.00153   0.00201
 4 143   51740.4    193.3   0.000000000   0.00023   0.00426   0.00266   0.01436
 4 144   51741.6    193.3   0.000000000   0.00000   0.00034   0.00040   0.00074
 4 145   55859.6    179.0   0.000000000   0.00000   0.00010   0.00091   0.00009
 4 146   55860.3    179.0   0.000000000   0.00079   0.01028   0.02608   0.00203
 4 147   55861.2    179.0   0.000000000   0.00004   0.00379   0.00416   0.00233
 4 148   60050.8    166.5   0.000000000   0.00001   0.00277   0.00083   0.00227
 4 149   60051.6    166.5   0.000000000   0.00002   0.00397   0.00134   0.00273
 4 150   60052.2    166.5   0.000000000   0.00075   0.00752   0.02299   0.01281
 4 151   65176.3    153.4   0.000000000   0.19909   0.09377   0.31070   0.30621
 4 152   65178.8    153.4   0.000000000   0.00010   0.00052   0.00747   0.00649
 4 153   65178.9    153.4   0.000000000   0.00030   0.00387   0.01147   0.01223
 4 154  154491.7     64.7   0.000000000   0.26154   0.45945   0.22073   0.04153
 4 155  154491.9     64.7   0.000000000   0.00302   0.04893   0.02440   0.00527
 4 156  154494.3     64.7   0.000000000   0.00036   0.01715   0.00826   0.00153
 4 157  168819.0     59.2   0.000000000   0.00059   0.02122   0.01153   0.00309
 4 158  168821.1     59.2   0.000000000   0.46638   0.59519   0.32347   0.08662
 4 159  168821.3     59.2   0.000000000   0.00006   0.00696   0.00388   0.00113

------------------------------------------------------------------------------
                           SOC CORRECTED DIPOLE MOMENTS
------------------------------------------------------------------------------
      TX        TY        TZ           |T|
   (Debye)   (Debye)   (Debye)      (Debye)
------------------------------------------------------------------------------
 -85.53977 -66.23239 -29.98609    112.26285

--------------
CASSCF TIMINGS
--------------

Total time                       ...     7484.6 sec
Sum of individual times          ...     7410.9 sec ( 99.0%)

Calculation of AO operators
   F(Core) operator              ...       45.5 sec (  0.6%)
   G(Act) operator               ...       43.5 sec (  0.6%)
   J(AO) operators               ...        0.0 sec (  0.0%)
Calculation of MO transformed quantities
   J(MO) operators               ...        5.6 sec (  0.1%)
   (pq|rs) integrals             ...        0.0 sec (  0.0%)
   AO->MO one electron integrals ...        0.2 sec (  0.0%)
Configuration interaction steps
   CI-setup phase                ...        1.2 sec (  0.0%)
   CI-solution phase             ...        0.1 sec (  0.0%)
   Generation of densities       ...        0.0 sec (  0.0%)
Orbital improvement steps
   Orbital gradient              ...        0.0 sec (  0.0%)
PT2 
   NEVPT2 time                   ...     7280.4 sec ( 97.3%)
Properties                       ...       18.0 sec (  0.2%)
   SOC integral calculation      ...       16.5 sec (  0.2%)
   SSC RMEs (incl. integrals)    ...        0.0 sec (  0.0%)
   SOC RMEs                      ...        0.1 sec (  0.0%)

Maximum memory used throughout the entire CASSCF-calculation: 2350.3 MB

-------------------------   --------------------
FINAL SINGLE POINT ENERGY     -3208.216349703526
-------------------------   --------------------


                            ***************************************
                            *     ORCA property calculations      *
                            ***************************************

                                    ---------------------
                                    Active property flags
                                    ---------------------
   (+) Dipole Moment


------------------------------------------------------------------------------
                       ORCA ELECTRIC PROPERTIES CALCULATION
------------------------------------------------------------------------------

Dipole Moment Calculation                       ... on
Quadrupole Moment Calculation                   ... off
Polarizability Calculation                      ... off
GBWName                                         ... nevpt2.gbw
Electron density                                ... nevpt2.scfp
The origin for moment calculation is the CENTER OF MASS  = (14.609710, 15.295905 15.019383)

-------------
DIPOLE MOMENT
-------------
                                X             Y             Z
Electronic contribution:     33.06077      25.50601      11.50645
Nuclear contribution   :    -33.65325     -26.05730     -11.79720
                        -----------------------------------------
Total Dipole Moment    :     -0.59248      -0.55129      -0.29075
                        -----------------------------------------
Magnitude (a.u.)       :      0.85994
Magnitude (Debye)      :      2.18579



--------------------
Rotational spectrum 
--------------------
 
Rotational constants in cm-1:     0.001036     0.000728     0.000692 
Rotational constants in MHz :    31.059646    21.811119    20.739945 

 Dipole components along the rotational axes: 
x,y,z [a.u.] :     0.853220     0.001345     0.107263 
x,y,z [Debye]:     2.168713     0.003418     0.272641 

 

Timings for individual modules:

Sum of individual times         ...     7569.040 sec (= 126.151 min)
GTO integral calculation        ...       41.447 sec (=   0.691 min)   0.5 %
SCF iterations                  ...       35.756 sec (=   0.596 min)   0.5 %
CASSCF iterations               ...     7491.837 sec (= 124.864 min)  99.0 %
                             ****ORCA TERMINATED NORMALLY****
TOTAL RUN TIME: 0 days 2 hours 6 minutes 9 seconds 746 msec
