
                                 *****************
                                 * O   R   C   A *
                                 *****************

                                            #,                                       
                                            ###                                      
                                            ####                                     
                                            #####                                    
                                            ######                                   
                                           ########,                                 
                                     ,,################,,,,,                         
                               ,,#################################,,                 
                          ,,##########################################,,             
                       ,#########################################, ''#####,          
                    ,#############################################,,   '####,        
                  ,##################################################,,,,####,       
                ,###########''''           ''''###############################       
              ,#####''   ,,,,##########,,,,          '''####'''          '####       
            ,##' ,,,,###########################,,,                        '##       
           ' ,,###''''                  '''############,,,                           
         ,,##''                                '''############,,,,        ,,,,,,###''
      ,#''                                            '''#######################'''  
     '                                                          ''''####''''         
             ,#######,   #######,   ,#######,      ##                                
            ,#'     '#,  ##    ##  ,#'     '#,    #''#        ######   ,####,        
            ##       ##  ##   ,#'  ##            #'  '#       #        #'  '#        
            ##       ##  #######   ##           ,######,      #####,   #    #        
            '#,     ,#'  ##    ##  '#,     ,#' ,#      #,         ##   #,  ,#        
             '#######'   ##     ##  '#######'  #'      '#     #####' # '####'        



                  #######################################################
                  #                        -***-                        #
                  #          Department of theory and spectroscopy      #
                  #    Directorship and core code : Frank Neese         #
                  #        Max Planck Institute fuer Kohlenforschung    #
                  #                Kaiser Wilhelm Platz 1               #
                  #                 D-45470 Muelheim/Ruhr               #
                  #                      Germany                        #
                  #                                                     #
                  #                  All rights reserved                #
                  #                        -***-                        #
                  #######################################################


                         Program Version 5.0.3 -  RELEASE  -


 With contributions from (in alphabetic order):
   Daniel Aravena         : Magnetic Suceptibility
   Michael Atanasov       : Ab Initio Ligand Field Theory (pilot matlab implementation)
   Alexander A. Auer      : GIAO ZORA, VPT2 properties, NMR spectrum
   Ute Becker             : Parallelization
   Giovanni Bistoni       : ED, misc. LED, open-shell LED, HFLD
   Martin Brehm           : Molecular dynamics
   Dmytro Bykov           : SCF Hessian
   Vijay G. Chilkuri      : MRCI spin determinant printing, contributions to CSF-ICE
   Dipayan Datta          : RHF DLPNO-CCSD density
   Achintya Kumar Dutta   : EOM-CC, STEOM-CC
   Dmitry Ganyushin       : Spin-Orbit,Spin-Spin,Magnetic field MRCI
   Miquel Garcia          : C-PCM and meta-GGA Hessian, CC/C-PCM, Gaussian charge scheme
   Yang Guo               : DLPNO-NEVPT2, F12-NEVPT2, CIM, IAO-localization
   Andreas Hansen         : Spin unrestricted coupled pair/coupled cluster methods
   Benjamin Helmich-Paris : MC-RPA, TRAH-SCF, COSX integrals
   Lee Huntington         : MR-EOM, pCC
   Robert Izsak           : Overlap fitted RIJCOSX, COSX-SCS-MP3, EOM
   Marcus Kettner         : VPT2
   Christian Kollmar      : KDIIS, OOCD, Brueckner-CCSD(T), CCSD density, CASPT2, CASPT2-K
   Simone Kossmann        : Meta GGA functionals, TD-DFT gradient, OOMP2, MP2 Hessian
   Martin Krupicka        : Initial AUTO-CI
   Lucas Lang             : DCDCAS
   Marvin Lechner         : AUTO-CI (C++ implementation), FIC-MRCC
   Dagmar Lenk            : GEPOL surface, SMD
   Dimitrios Liakos       : Extrapolation schemes; Compound Job, initial MDCI parallelization
   Dimitrios Manganas     : Further ROCIS development; embedding schemes
   Dimitrios Pantazis     : SARC Basis sets
   Anastasios Papadopoulos: AUTO-CI, single reference methods and gradients
   Taras Petrenko         : DFT Hessian,TD-DFT gradient, ASA, ECA, R-Raman, ABS, FL, XAS/XES, NRVS
   Peter Pinski           : DLPNO-MP2, DLPNO-MP2 Gradient
   Christoph Reimann      : Effective Core Potentials
   Marius Retegan         : Local ZFS, SOC
   Christoph Riplinger    : Optimizer, TS searches, QM/MM, DLPNO-CCSD(T), (RO)-DLPNO pert. Triples
   Tobias Risthaus        : Range-separated hybrids, TD-DFT gradient, RPA, STAB
   Michael Roemelt        : Original ROCIS implementation
   Masaaki Saitow         : Open-shell DLPNO-CCSD energy and density
   Barbara Sandhoefer     : DKH picture change effects
   Avijit Sen             : IP-ROCIS
   Kantharuban Sivalingam : CASSCF convergence, NEVPT2, FIC-MRCI
   Bernardo de Souza      : ESD, SOC TD-DFT
   Georgi Stoychev        : AutoAux, RI-MP2 NMR, DLPNO-MP2 response
   Willem Van den Heuvel  : Paramagnetic NMR
   Boris Wezisla          : Elementary symmetry handling
   Frank Wennmohs         : Technical directorship


 We gratefully acknowledge several colleagues who have allowed us to
 interface, adapt or use parts of their codes:
   Stefan Grimme, W. Hujo, H. Kruse, P. Pracht,  : VdW corrections, initial TS optimization,
                  C. Bannwarth, S. Ehlert          DFT functionals, gCP, sTDA/sTD-DF
   Ed Valeev, F. Pavosevic, A. Kumar             : LibInt (2-el integral package), F12 methods
   Garnet Chan, S. Sharma, J. Yang, R. Olivares  : DMRG
   Ulf Ekstrom                                   : XCFun DFT Library
   Mihaly Kallay                                 : mrcc  (arbitrary order and MRCC methods)
   Jiri Pittner, Ondrej Demel                    : Mk-CCSD
   Frank Weinhold                                : gennbo (NPA and NBO analysis)
   Christopher J. Cramer and Donald G. Truhlar   : smd solvation model
   Lars Goerigk                                  : TD-DFT with DH, B97 family of functionals
   V. Asgeirsson, H. Jonsson                     : NEB implementation
   FAccTs GmbH                                   : IRC, NEB, NEB-TS, DLPNO-Multilevel, CI-OPT
                                                   MM, QMMM, 2- and 3-layer-ONIOM, Crystal-QMMM,
                                                   LR-CPCM, SF, NACMEs, symmetry and pop. for TD-DFT,
                                                   nearIR, NL-DFT gradient (VV10), updates on ESD,
                                                   ML-optimized integration grids
   S Lehtola, MJT Oliveira, MAL Marques          : LibXC Library
   Liviu Ungur et al                             : ANISO software


 Your calculation uses the libint2 library for the computation of 2-el integrals
 For citations please refer to: http://libint.valeyev.net

 Your ORCA version has been built with support for libXC version: 5.1.0
 For citations please refer to: https://tddft.org/programs/libxc/

 This ORCA versions uses:
   CBLAS   interface :  Fast vector & matrix operations
   LAPACKE interface :  Fast linear algebra routines
   SCALAPACK package :  Parallel linear algebra routines
   Shared memory     :  Shared parallel matrices
   BLAS/LAPACK       :  OpenBLAS 0.3.15  USE64BITINT DYNAMIC_ARCH NO_AFFINITY Haswell SINGLE_THREADED
        Core in use  :  Haswell
   Copyright (c) 2011-2014, The OpenBLAS Project




***************************************
The coordinates will be read from file: pbe.xyz
***************************************


================================================================================

cite the ECPs for Au [Def2-ECP] as follows:
Ce-Yb(ecp-28): M. Dolg, H. Stoll, H.Preuss, J. Chem. Phys., 1989, 90, 1730-1734.
Y-Cd(ecp-28), Hf-Hg(ecp-46): D. Andrae,U. Haeussermann, M. Dolg, H. Stoll, H. Preuss, Theor. Chim. Acta, 1990, 77, 123-141.
In-Sb(ecp-28), Tl-Bi(ecp-46): B. Metz, H. Stoll, M. Dolg, J. Chem. Phys., 2000, 113, 2563-2569.
Te-Xe(ecp-28), Po-Rn(ecp-46): K. A. Peterson, D. Figgen, E. Goll, H. Stoll, M. Dolg, J. Chem. Phys., 2003, 119, 11113-11123.
Rb(ecp-28), Cs(ecp-46): T. Leininger, A. Nicklass, W. Kuechle, H. Stoll, M. Dolg, A. Bergner, Chem. Phys. Lett., 1996, 255, 274-280.
Sr(ecp-28), Ba(ecp-46): M. Kaupp, P. V. Schleyer, H. Stoll and H. Preuss, J. Chem. Phys., 1991, 94, 1360-1366.
La(ecp-46): M. Dolg, H. Stoll, A. Savin, H. Preuss, Theor. Chim. Acta, 1989, 75, 173-194.
Lu(ecp-28): X. Cao, M. Dolg, J. Chem. Phys., 2001, 115, 7348-7355.

ECP parameters for Au [Def2-ECP] have been obtained from:
TURBOMOLE (7.0.2)

----- Orbital basis set information -----
Your calculation utilizes the basis: def2-TZVP
   F. Weigend and R. Ahlrichs, Phys. Chem. Chem. Phys. 7, 3297 (2005).

----- AuxJ basis set information -----
Your calculation utilizes the auxiliary basis: def2/J
   F. Weigend, Phys. Chem. Chem. Phys. 8, 1057 (2006).

----- AuxC basis set information -----
Your calculation utilizes the auxiliary basis: def2-TZVP/C
  H-La, Hf-Rn : A. Hellweg, C. Hattig, S. Hofener and W. Klopper, Theor. Chem. Acc. 117, 587 (2007).
        Ce-Lu : J. Chmela and M. E. Harding, Mol. Phys. (2018).

================================================================================
                                        WARNINGS
                       Please study these warnings very carefully!
================================================================================


WARNING: your system is open-shell and RHF/RKS was chosen
  ===> : WILL SWITCH to UHF/UKS


WARNING: No MP2 level density has been requested!
         To caclulate MP2 level properties use
         %mp2 Density relaxed end
         or
         %mp2 Density unrelaxed end
         Otherwise for double-hybrid DFT only the energy is correct!

WARNING: The frozen-core approximation is turned on by default for 
         the MP2 part of double-hybrid DFT.

INFO   : the flag for use of the SHARK integral package has been found!



***************************************
The coordinates will be read from file: pbe.xyz
***************************************


================================================================================

cite the ECPs for Au [Def2-ECP] as follows:
Ce-Yb(ecp-28): M. Dolg, H. Stoll, H.Preuss, J. Chem. Phys., 1989, 90, 1730-1734.
Y-Cd(ecp-28), Hf-Hg(ecp-46): D. Andrae,U. Haeussermann, M. Dolg, H. Stoll, H. Preuss, Theor. Chim. Acta, 1990, 77, 123-141.
In-Sb(ecp-28), Tl-Bi(ecp-46): B. Metz, H. Stoll, M. Dolg, J. Chem. Phys., 2000, 113, 2563-2569.
Te-Xe(ecp-28), Po-Rn(ecp-46): K. A. Peterson, D. Figgen, E. Goll, H. Stoll, M. Dolg, J. Chem. Phys., 2003, 119, 11113-11123.
Rb(ecp-28), Cs(ecp-46): T. Leininger, A. Nicklass, W. Kuechle, H. Stoll, M. Dolg, A. Bergner, Chem. Phys. Lett., 1996, 255, 274-280.
Sr(ecp-28), Ba(ecp-46): M. Kaupp, P. V. Schleyer, H. Stoll and H. Preuss, J. Chem. Phys., 1991, 94, 1360-1366.
La(ecp-46): M. Dolg, H. Stoll, A. Savin, H. Preuss, Theor. Chim. Acta, 1989, 75, 173-194.
Lu(ecp-28): X. Cao, M. Dolg, J. Chem. Phys., 2001, 115, 7348-7355.

ECP parameters for Au [Def2-ECP] have been obtained from:
TURBOMOLE (7.0.2)

----- Orbital basis set information -----
Your calculation utilizes the basis: def2-TZVP
   F. Weigend and R. Ahlrichs, Phys. Chem. Chem. Phys. 7, 3297 (2005).

----- AuxJ basis set information -----
Your calculation utilizes the auxiliary basis: def2/J
   F. Weigend, Phys. Chem. Chem. Phys. 8, 1057 (2006).

----- AuxC basis set information -----
Your calculation utilizes the auxiliary basis: def2-TZVP/C
  H-La, Hf-Rn : A. Hellweg, C. Hattig, S. Hofener and W. Klopper, Theor. Chem. Acc. 117, 587 (2007).
        Ce-Lu : J. Chmela and M. E. Harding, Mol. Phys. (2018).

================================================================================
                                        WARNINGS
                       Please study these warnings very carefully!
================================================================================


WARNING: No MP2 level density has been requested!
         To caclulate MP2 level properties use
         %mp2 Density relaxed end
         or
         %mp2 Density unrelaxed end
         Otherwise for double-hybrid DFT only the energy is correct!

WARNING: The frozen-core approximation is turned on by default for 
         the MP2 part of double-hybrid DFT.

INFO   : the flag for use of the SHARK integral package has been found!

================================================================================
                                       INPUT FILE
================================================================================
NAME = b2plyp.inp
|  1> !RI-B2PLYP def2-TZVP def2-TZVP/C
|  2> !RIJCOSX VERYSLOWCONV
|  3> 
|  4> %scf
|  5>   AutoTRAHIter 200
|  6>   maxiter 400
|  7> end
|  8> 
|  9> 
| 10> %pal nprocs 6 end 
| 11> 
| 12> *xyzfile 0 5 pbe.xyz
| 13> 
| 14> $new_job
| 15> 
| 16> !RI-B2PLYP def2-TZVP def2-TZVP/C
| 17> !RIJCOSX VERYSLOWCONV
| 18> 
| 19> %scf
| 20>   AutoTRAHIter 200
| 21>   maxiter 400
| 22> end
| 23> 
| 24> 
| 25> %pal nprocs 6 end 
| 26> 
| 27> *xyzfile 0 3 pbe.xyz
| 28> 
| 29> 
| 30> 
| 31> 
| 32> 
| 33>                          ****END OF INPUT****
================================================================================


                 $$$$$$$$$$$$$$$$$$$$$$$$$$$$$$$$$$$$$$$$$$$$$$ 
                 $ THERE ARE  2 JOBS TO BE PROCESSED THIS RUN $
                 $$$$$$$$$$$$$$$$$$$$$$$$$$$$$$$$$$$$$$$$$$$$$$ 




                 $$$$$$$$$$$$$$$$  JOB NUMBER  1 $$$$$$$$$$$$$$


                       ****************************
                       * Single Point Calculation *
                       ****************************

---------------------------------
CARTESIAN COORDINATES (ANGSTROEM)
---------------------------------
  Au     7.722206    9.747631    8.327318
  Au     4.837493    8.971830    8.873584
  Au     7.152397    5.990227    9.613166
  Au     4.735771    6.841996   10.647861
  Au     3.796102    8.012834    6.492862
  Au     6.869665    8.652049   10.737040
  Au     5.576466   10.329929    6.609694
  Au     4.812886    5.902193    8.056915
  Au     5.296595    5.912859    5.316292
  Au     5.709863    8.571842    4.407863
  Au     9.388266    7.617816    6.932962
  Au     8.084259    9.582362    5.541721
  Au     7.938822    6.767410    4.732386
  Au     9.315550    7.918423    9.688873
  Au     7.401721    5.120490    6.952643
  Au     9.631819    5.379527    8.548681
  Fe     6.539907    7.750953    6.935006

----------------------------
CARTESIAN COORDINATES (A.U.)
----------------------------
  NO LB      ZA    FRAG     MASS         X           Y           Z
   0 Au   19.0000*   0   196.966   14.592854   18.420353   15.736350
   1 Au   19.0000*   0   196.966    9.141537   16.954301   16.768643
   2 Au   19.0000*   0   196.966   13.516072   11.319888   18.166251
   3 Au   19.0000*   0   196.966    8.949310   12.929498   20.121541
   4 Au   19.0000*   0   196.966    7.173594   15.142061   12.269731
   5 Au   19.0000*   0   196.966   12.981785   16.350003   20.290065
   6 Au   19.0000*   0   196.966   10.537993   19.520736   12.490512
   7 Au   19.0000*   0   196.966    9.095037   11.153529   15.225363
   8 Au   19.0000*   0   196.966   10.009113   11.173685   10.046336
   9 Au   19.0000*   0   196.966   10.790077   16.198433    8.329654
  10 Au   19.0000*   0   196.966   17.741252   14.395585   13.101399
  11 Au   19.0000*   0   196.966   15.277036   18.108039   10.472335
  12 Au   19.0000*   0   196.966   15.002200   12.788551    8.942913
  13 Au   19.0000*   0   196.966   17.603839   14.963650   18.309316
  14 Au   19.0000*   0   196.966   13.987226    9.676324   13.138591
  15 Au   19.0000*   0   196.966   18.201501   10.165833   16.154666
  16 Fe   26.0000    0    55.850   12.358633   14.647178   13.105263
* core charge reduced due to ECP

--------------------------------
INTERNAL COORDINATES (ANGSTROEM)
--------------------------------
 Au     0   0   0     0.000000000000     0.00000000     0.00000000
 Au     1   0   0     3.036748782273     0.00000000     0.00000000
 Au     2   1   0     3.846520712427    70.17953125     0.00000000
 Au     3   2   1     2.763365417214    46.11309503   149.51556501
 Au     2   1   3     2.769838098849   106.91717598   268.44098864
 Au     2   1   3     2.775689278398    56.95619832    53.04400671
 Au     2   1   3     2.741479557353    57.91597016   225.30036842
 Au     4   3   2     2.757204473186    61.22459571    68.32223769
 Au     8   4   3     2.783002620508   158.27102527   282.88748525
 Au     7   2   1     2.820766607863   110.40070571   101.55297796
 Au     1   2   3     3.042384144278   115.07481568    41.27641384
 Au    11   1   2     2.737777433634    57.97650617    93.50905901
 Au    11   1   2     2.768864966420   107.01286167    49.99672569
 Au     6   2   1     2.760293079119   115.11446713   323.57340026
 Au     9   8   4     2.781555690002    63.32821883    86.95660199
 Au    15   9   8     2.754591550112   157.93891116   272.30503332
 Fe     1   2   3     2.706120301062    59.27158576    61.70450897

---------------------------
INTERNAL COORDINATES (A.U.)
---------------------------
 Au     0   0   0     0.000000000000     0.00000000     0.00000000
 Au     1   0   0     5.738623536015     0.00000000     0.00000000
 Au     2   1   0     7.268870714943    70.17953125     0.00000000
 Au     3   2   1     5.222003846484    46.11309503   149.51556501
 Au     2   1   3     5.234235442126   106.91717598   268.44098864
 Au     2   1   3     5.245292569034    56.95619832    53.04400671
 Au     2   1   3     5.180645565141    57.91597016   225.30036842
 Au     4   3   2     5.210361349544    61.22459571    68.32223769
 Au     8   4   3     5.259112782745   158.27102527   282.88748525
 Au     7   2   1     5.330476376572   110.40070571   101.55297796
 Au     1   2   3     5.749272826869   115.07481568    41.27641384
 Au    11   1   2     5.173649565197    57.97650617    93.50905901
 Au    11   1   2     5.232396488342   107.01286167    49.99672569
 Au     6   2   1     5.216197968892   115.11446713   323.57340026
 Au     9   8   4     5.256378480353    63.32821883    86.95660199
 Au    15   9   8     5.205423640526   157.93891116   272.30503332
 Fe     1   2   3     5.113826254451    59.27158576    61.70450897

---------------------
BASIS SET INFORMATION
---------------------
There are 2 groups of distinct atoms

 Group   1 Type Au  : 8s7p6d1f contracted to 6s4p3d1f pattern {311111/4111/411/1}
 Group   2 Type Fe  : 17s11p7d1f contracted to 6s4p4d1f pattern {842111/6311/4111/1}

Atom   0Au   basis set group =>   1
Atom   1Au   basis set group =>   1
Atom   2Au   basis set group =>   1
Atom   3Au   basis set group =>   1
Atom   4Au   basis set group =>   1
Atom   5Au   basis set group =>   1
Atom   6Au   basis set group =>   1
Atom   7Au   basis set group =>   1
Atom   8Au   basis set group =>   1
Atom   9Au   basis set group =>   1
Atom  10Au   basis set group =>   1
Atom  11Au   basis set group =>   1
Atom  12Au   basis set group =>   1
Atom  13Au   basis set group =>   1
Atom  14Au   basis set group =>   1
Atom  15Au   basis set group =>   1
Atom  16Fe   basis set group =>   2
---------------------------------
AUXILIARY/J BASIS SET INFORMATION
---------------------------------
There are 2 groups of distinct atoms

 Group   1 Type Au  : 11s5p5d3f3g contracted to 8s5p5d2f3g pattern {41111111/11111/11111/21/111}
 Group   2 Type Fe  : 19s5p5d3f3g contracted to 8s5p5d2f3g pattern {121111111/11111/11111/21/111}

Atom   0Au   basis set group =>   1
Atom   1Au   basis set group =>   1
Atom   2Au   basis set group =>   1
Atom   3Au   basis set group =>   1
Atom   4Au   basis set group =>   1
Atom   5Au   basis set group =>   1
Atom   6Au   basis set group =>   1
Atom   7Au   basis set group =>   1
Atom   8Au   basis set group =>   1
Atom   9Au   basis set group =>   1
Atom  10Au   basis set group =>   1
Atom  11Au   basis set group =>   1
Atom  12Au   basis set group =>   1
Atom  13Au   basis set group =>   1
Atom  14Au   basis set group =>   1
Atom  15Au   basis set group =>   1
Atom  16Fe   basis set group =>   2
---------------------------------
AUXILIARY/C BASIS SET INFORMATION
---------------------------------
There are 2 groups of distinct atoms

 Group   1 Type Au  : 8s8p7d5f3g2h contracted to 8s8p7d5f3g2h pattern {11111111/11111111/1111111/11111/111/11}
 Group   2 Type Fe  : 11s9p8d6f5g2h contracted to 9s8p8d6f5g2h pattern {311111111/21111111/11111111/111111/11111/11}

Atom   0Au   basis set group =>   1
Atom   1Au   basis set group =>   1
Atom   2Au   basis set group =>   1
Atom   3Au   basis set group =>   1
Atom   4Au   basis set group =>   1
Atom   5Au   basis set group =>   1
Atom   6Au   basis set group =>   1
Atom   7Au   basis set group =>   1
Atom   8Au   basis set group =>   1
Atom   9Au   basis set group =>   1
Atom  10Au   basis set group =>   1
Atom  11Au   basis set group =>   1
Atom  12Au   basis set group =>   1
Atom  13Au   basis set group =>   1
Atom  14Au   basis set group =>   1
Atom  15Au   basis set group =>   1
Atom  16Fe   basis set group =>   2
-------------------------
ECP PARAMETER INFORMATION
-------------------------

 Group 1, Type Au ECP Def2-ECP (replacing 60 core electrons, lmax=3)

Atom   0Au   ECP group =>   1
Atom   1Au   ECP group =>   1
Atom   2Au   ECP group =>   1
Atom   3Au   ECP group =>   1
Atom   4Au   ECP group =>   1
Atom   5Au   ECP group =>   1
Atom   6Au   ECP group =>   1
Atom   7Au   ECP group =>   1
Atom   8Au   ECP group =>   1
Atom   9Au   ECP group =>   1
Atom  10Au   ECP group =>   1
Atom  11Au   ECP group =>   1
Atom  12Au   ECP group =>   1
Atom  13Au   ECP group =>   1
Atom  14Au   ECP group =>   1
Atom  15Au   ECP group =>   1



           ************************************************************
           *        Program running with 6 parallel MPI-processes     *
           *              working on a common directory               *
           ************************************************************
------------------------------------------------------------------------------
                           ORCA GTO INTEGRAL CALCULATION
                           -- RI-GTO INTEGRALS CHOSEN --
------------------------------------------------------------------------------
------------------------------------------------------------------------------
                   ___                                                        
                  /   \      - P O W E R E D   B Y -                         
                 /     \                                                     
                 |  |  |   _    _      __       _____    __    __             
                 |  |  |  | |  | |    /  \     |  _  \  |  |  /  |          
                  \  \/   | |  | |   /    \    | | | |  |  | /  /          
                 / \  \   | |__| |  /  /\  \   | |_| |  |  |/  /          
                |  |  |   |  __  | /  /__\  \  |    /   |      \           
                |  |  |   | |  | | |   __   |  |    \   |  |\   \          
                \     /   | |  | | |  |  |  |  | |\  \  |  | \   \       
                 \___/    |_|  |_| |__|  |__|  |_| \__\ |__|  \__/        
                                                                              
                      - O R C A' S   B I G   F R I E N D -                    
                                      &                                       
                       - I N T E G R A L  F E E D E R -                       
                                                                              
 v1 FN, 2020, v2 2021                                                         
------------------------------------------------------------------------------


Reading SHARK input file b2plyp.SHARKINP.tmp ... ok
----------------------
SHARK INTEGRAL PACKAGE
----------------------

Number of atoms                             ...     17
Number of basis functions                   ...    685
Number of shells                            ...    239
Maximum angular momentum                    ...      3
Integral batch strategy                     ... SHARK/LIBINT Hybrid
RI-J (if used) integral strategy            ... SPLIT-RIJ (Revised 2003 algorithm where possible)
Printlevel                                  ...      1
Contraction scheme used                     ... SEGMENTED contraction
Coulomb Range Separation                    ... NOT USED
Exchange Range Separation                   ... NOT USED
Finite Nucleus Model                        ... NOT USED
Auxiliary Coulomb fitting basis             ... AVAILABLE
   # of basis functions in Aux-J            ...   1513
   # of shells in Aux-J                     ...    391
   Maximum angular momentum in Aux-J        ...      4
Auxiliary J/K fitting basis                 ... NOT available
Auxiliary Correlation fitting basis         ... AVAILABLE
   # of basis functions in Aux-C            ...   2598
   # of shells in Aux-C                     ...    566
   Maximum angular momentum in Aux-C        ...      5
Auxiliary 'external' fitting basis          ... NOT available
Integral threshold                          ...     1.000000e-10
Primitive cut-off                           ...     1.000000e-11
Primitive pair pre-selection threshold      ...     1.000000e-11

Calculating pre-screening integrals         ... done (  0.1 sec) Dimension = 239
Organizing shell pair data                  ... done (  0.4 sec)
Shell pair information
Total number of shell pairs                 ...     28680
Shell pairs after pre-screening             ...     22403
Total number of primitive shell pairs       ...     75765
Primitive shell pairs kept                  ...     42508
          la=0 lb=0:   3550 shell pairs
          la=1 lb=0:   5094 shell pairs
          la=1 lb=1:   1925 shell pairs
          la=2 lb=0:   4464 shell pairs
          la=2 lb=1:   3136 shell pairs
          la=2 lb=2:   1291 shell pairs
          la=3 lb=0:   1149 shell pairs
          la=3 lb=1:    891 shell pairs
          la=3 lb=2:    784 shell pairs
          la=3 lb=3:    119 shell pairs

Calculating one electron integrals          ... done (  0.0 sec)
Calculating ECP integrals                   ... done ( 11.6 sec)
Calculating RI/J V-Matrix + Cholesky decomp.... done (  0.1 sec)
Calculating RI/C V-Matrix + Cholesky decomp.... done (  0.3 sec)
Calculating Nuclear repulsion               ... done (  0.0 sec) ENN=   7135.651894569399 Eh

SHARK setup successfully completed in  12.8 seconds

Maximum memory used throughout the entire GTOINT-calculation: 61.0 MB


           ************************************************************
           *        Program running with 6 parallel MPI-processes     *
           *              working on a common directory               *
           ************************************************************
-------------------------------------------------------------------------------
                                 ORCA SCF
-------------------------------------------------------------------------------

------------
SCF SETTINGS
------------
Hamiltonian:
 Density Functional     Method          .... DFT(GTOs)
 Exchange Functional    Exchange        .... B88
   X-Alpha parameter    XAlpha          ....  0.666667
   Becke's b parameter  XBeta           ....  0.004200
 Correlation Functional Correlation     .... LYP
 LDA part of GGA corr.  LDAOpt          .... VWN-3
 Gradients option       PostSCFGGA      .... off
 Hybrid DFT is turned on
   Fraction HF Exchange ScalHFX         ....  0.530000
   Scaling of DF-GGA-X  ScalDFX         ....  0.470000
   Scaling of DF-GGA-C  ScalDFC         ....  0.730000
   Scaling of DF-LDA-C  ScalLDAC        ....  0.730000
   Perturbative correction              ....  0.270000
   Density functional embedding theory  .... OFF
   NL short-range parameter             ....  7.800000
 RI-approximation to the Coulomb term is turned on
   Number of AuxJ basis functions       .... 1513
   RIJ-COSX (HFX calculated with COS-X)).... on


General Settings:
 Integral files         IntName         .... b2plyp
 Hartree-Fock type      HFTyp           .... UHF
 Total Charge           Charge          ....    0
 Multiplicity           Mult            ....    5
 Number of Electrons    NEL             ....  330
 Basis Dimension        Dim             ....  685
 Nuclear Repulsion      ENuc            ....   7135.6518945694 Eh

Convergence Acceleration:
 DIIS                   CNVDIIS         .... on
   Start iteration      DIISMaxIt       ....     0
   Startup error        DIISStart       ....  0.200000
   # of expansion vecs  DIISMaxEq       ....     5
   Bias factor          DIISBfac        ....   1.050
   Max. coefficient     DIISMaxC        ....  10.000
 Trust-Rad. Augm. Hess. CNVTRAH         .... auto
   Auto Start mean grad. ratio tolernc. ....  1.125000
   Auto Start start iteration           ....   200
   Auto Start num. interpolation iter.  ....    10
   Max. Number of Micro iterations      ....    16
   Max. Number of Macro iterations      .... Maxiter - #DIIS iter
   Number of Davidson start vectors     ....     2
   Converg. threshold I  (grad. norm)   ....   5.000e-05
   Converg. threshold II (energy diff.) ....   1.000e-06
   Grad. Scal. Fac. for Micro threshold ....   0.100
   Minimum threshold for Micro iter.    ....   0.010
   NR start threshold (gradient norm)   ....   0.001
   Initial trust radius                 ....   0.400
   Minimum AH scaling param. (alpha)    ....   1.000
   Maximum AH scaling param. (alpha)    .... 1000.000
   Orbital update algorithm             .... Taylor
   White noise on init. David. guess    .... on
   Maximum white noise                  ....   0.010
   Quad. conv. algorithm                .... NR
 SOSCF                  CNVSOSCF        .... off
 Level Shifting         CNVShift        .... on
   Level shift para.    LevelShift      ....    0.2500
   Turn off err/grad.   ShiftErr        ....    0.0000
 Zerner damping         CNVZerner       .... off
 Static damping         CNVDamp         .... on
   Fraction old density DampFac         ....    0.9200
   Max. Damping (<1)    DampMax         ....    0.9800
   Min. Damping (>=0)   DampMin         ....    0.0000
   Turn off err/grad.   DampErr         ....    0.0030
 Fernandez-Rico         CNVRico         .... off

SCF Procedure:
 Maximum # iterations   MaxIter         ....   400
 SCF integral mode      SCFMode         .... Direct
   Integral package                     .... SHARK and LIBINT hybrid scheme
 Reset frequency        DirectResetFreq ....    20
 Integral Threshold     Thresh          ....  1.000e-10 Eh
 Primitive CutOff       TCut            ....  1.000e-11 Eh

Convergence Tolerance:
 Convergence Check Mode ConvCheckMode   .... Total+1el-Energy
 Convergence forced     ConvForced      .... 0
 Energy Change          TolE            ....  1.000e-06 Eh
 1-El. energy change                    ....  1.000e-03 Eh
 DIIS Error             TolErr          ....  1.000e-06


Diagonalization of the overlap matrix:
Smallest eigenvalue                        ... 3.082e-04
Time for diagonalization                   ...    0.092 sec
Threshold for overlap eigenvalues          ... 1.000e-08
Number of eigenvalues below threshold      ... 0
Time for construction of square roots      ...    0.041 sec
Total time needed                          ...    0.134 sec

Time for model grid setup =    0.471 sec

------------------------------
INITIAL GUESS: MODEL POTENTIAL
------------------------------
Loading Hartree-Fock densities                     ... done
  calling /media/Programs/ORCA501/orca b2plyp_atom79.inp > b2plyp_atom79.out in order to generate an atomic fitting density for atom 0 (Au with ECP) on-the-fly... 
    atom 0 (Au), assumed electronic state with S=2: 1s2 2s2 2p6 3s2 3p6 4s2 3d10 4p6 5s2 4d10 5p6 6s1 4f14 5d10           ... done
Calculating cut-offs                               ... done
Initializing the effective Hamiltonian             ... done
Setting up the integral package (SHARK)            ... done
Starting the Coulomb interaction                   ... done (   0.5 sec)
Reading the grid                                   ... done
Mapping shells                                     ... done
Starting the XC term evaluation                    ... done (   0.5 sec)
  promolecular density results
     # of electrons  =   1290.015117341
     EX              =  -5932.421762359
     EC              =    -26.251927723
     EX+EC           =  -5958.673690082
Transforming the Hamiltonian                       ... done (   0.0 sec)
Diagonalizing the Hamiltonian                      ... done (   0.1 sec)
Back transforming the eigenvectors                 ... done (   0.0 sec)
Now organizing SCF variables                       ... done
                      ------------------
                      INITIAL GUESS DONE (   2.1 sec)
                      ------------------
-------------------
DFT GRID GENERATION
-------------------

General Integration Accuracy     IntAcc      ... 4.388
Radial Grid Type                 RadialGrid  ... OptM3 with GC (2021)
Angular Grid (max. ang.)         AngularGrid ... 4 (Lebedev-302)
Angular grid pruning method      GridPruning ... 4 (adaptive)
Weight generation scheme         WeightScheme... Becke
Basis function cutoff            BFCut       ... 1.0000e-10
Integration weight cutoff        WCut        ... 1.0000e-14
Angular grids for H and He will be reduced by one unit
Partially contracted basis set               ... off
Rotationally invariant grid construction     ... off

Total number of grid points                  ...   186727
Total number of batches                      ...     2925
Average number of points per batch           ...       63
Average number of grid points per atom       ...    10984
Time for grid setup =    1.480 sec

--------------------
COSX GRID GENERATION
--------------------

GRIDX 1
-------
General Integration Accuracy     IntAcc      ... 3.816
Radial Grid Type                 RadialGrid  ... OptM3 with GC (2021)
Angular Grid (max. ang.)         AngularGrid ... 1 (Lebedev-50)
Angular grid pruning method      GridPruning ... 4 (adaptive)
Weight generation scheme         WeightScheme... Becke
Basis function cutoff            BFCut       ... 1.0000e-10
Integration weight cutoff        WCut        ... 1.0000e-14
Angular grids for H and He will be reduced by one unit
Partially contracted basis set               ... on
Rotationally invariant grid construction     ... off

Total number of grid points                  ...    19493
Total number of batches                      ...      312
Average number of points per batch           ...       62
Average number of grid points per atom       ...     1147
UseSFitting                                  ... on

GRIDX 2
-------
General Integration Accuracy     IntAcc      ... 4.020
Radial Grid Type                 RadialGrid  ... OptM3 with GC (2021)
Angular Grid (max. ang.)         AngularGrid ... 2 (Lebedev-110)
Angular grid pruning method      GridPruning ... 4 (adaptive)
Weight generation scheme         WeightScheme... Becke
Basis function cutoff            BFCut       ... 1.0000e-10
Integration weight cutoff        WCut        ... 1.0000e-14
Angular grids for H and He will be reduced by one unit
Partially contracted basis set               ... on
Rotationally invariant grid construction     ... off

Total number of grid points                  ...    59213
Total number of batches                      ...      932
Average number of points per batch           ...       63
Average number of grid points per atom       ...     3483
UseSFitting                                  ... on

GRIDX 3
-------
General Integration Accuracy     IntAcc      ... 4.338
Radial Grid Type                 RadialGrid  ... OptM3 with GC (2021)
Angular Grid (max. ang.)         AngularGrid ... 3 (Lebedev-194)
Angular grid pruning method      GridPruning ... 4 (adaptive)
Weight generation scheme         WeightScheme... Becke
Basis function cutoff            BFCut       ... 1.0000e-10
Integration weight cutoff        WCut        ... 1.0000e-14
Angular grids for H and He will be reduced by one unit
Partially contracted basis set               ... on
Rotationally invariant grid construction     ... off

Total number of grid points                  ...   107196
Total number of batches                      ...     1684
Average number of points per batch           ...       63
Average number of grid points per atom       ...     6306
UseSFitting                                  ... on

Time for X-Grid setup             =    1.550 sec

--------------
SCF ITERATIONS
--------------
ITER       Energy         Delta-E        Max-DP      RMS-DP      [F,P]     Damp
               ***  Starting incremental Fock matrix formation  ***
  0  -3426.2175551784   0.000000000000 0.08416612  0.00052895  0.5699357 0.9200
  1  -3427.4704504994  -1.252895321029 0.07423187  0.00048356  0.3776260 0.9200
                               ***Turning on DIIS***
  2  -3428.1778075374  -0.707357038010 0.05873034  0.00042305  0.2342897 0.9200
  3  -3428.5072807576  -0.329473220121 0.04570534  0.00037564  0.2155141 0.9200
  4  -3428.6167621974  -0.109481439789 0.02540392  0.00024701  0.1983381 0.9200
  5  -3428.7166361578  -0.099873960447 0.02357730  0.00022798  0.1824832 0.9200
  6  -3428.8025795150  -0.085943357196 0.02154740  0.00020906  0.1678698 0.9200
  7  -3428.8618934369  -0.059313921920 0.01948168  0.00019031  0.1544425 0.9200
  8  -3428.9353318378  -0.073438400863 0.01709231  0.00020663  0.1420966 0.9200
  9  -3429.0366344407  -0.101302602935 0.01628669  0.00018325  0.1307846 0.9200
 10  -3429.1171229768  -0.080488536121 0.01551009  0.00015870  0.1203334 0.9200
 11  -3429.1909243572  -0.073801380387 0.01443433  0.00014775  0.1106960 0.9200
 12  -3429.2548084504  -0.063884093182 0.01346675  0.00013831  0.1018250 0.9200
 13  -3429.3178219588  -0.063013508399 0.01229866  0.00013266  0.0936743 0.9200
 14  -3429.3846158118  -0.066793853026 0.01141456  0.00012902  0.0861920 0.9200
 15  -3429.4472605705  -0.062644758675 0.01072528  0.00011975  0.0793033 0.9200
 16  -3429.5052356585  -0.057975088032 0.00974731  0.00011068  0.0729539 0.9200
 17  -3429.5592329233  -0.053997264714 0.00962214  0.00010396  0.0671101 0.9200
 18  -3429.6102415235  -0.051008600199 0.00972941  0.00009860  0.0617367 0.9200
 19  -3429.6594277527  -0.049186229247 0.00901342  0.00009372  0.0567962 0.9200
               *** Restarting incremental Fock matrix formation ***
                                   *** Resetting DIIS ***
 20  -3429.7073960504  -0.047968297672 0.00698108  0.00008345  0.0522538 0.9200
 21  -3429.7522140932  -0.044818042866 0.00651277  0.00007628  0.0480783 0.9200
 22  -3429.7942272275  -0.042013134259 0.00600702  0.00007115  0.0442350 0.9200
 23  -3429.8334934358  -0.039266208254 0.00754832  0.00006795  0.0406946 0.9200
 24  -3429.8701808124  -0.036687376664 0.00802879  0.00006550  0.0374359 0.9200
 25  -3429.9045575967  -0.034376784237 0.00713938  0.00006257  0.0344395 0.9200
 26  -3429.9368906911  -0.032333094421 0.00632689  0.00005953  0.0316864 0.9200
 27  -3429.9671819719  -0.030291280822 0.00583323  0.00005639  0.0291543 0.9200
 28  -3429.9955127996  -0.028330827671 0.00555425  0.00005320  0.0268227 0.9200
 29  -3430.0220187706  -0.026505971049 0.00533560  0.00005008  0.0246753 0.9200
 30  -3430.0468325975  -0.024813826890 0.00501294  0.00004708  0.0226987 0.9200
 31  -3430.0700549736  -0.023222376119 0.00458172  0.00004420  0.0208811 0.9200
 32  -3430.0917602389  -0.021705265291 0.00414874  0.00004144  0.0192102 0.9200
 33  -3430.1120242176  -0.020263978721 0.00380116  0.00003881  0.0176735 0.9200
 34  -3430.1309291792  -0.018904961596 0.00353792  0.00003632  0.0162595 0.9200
 35  -3430.1485563905  -0.017627211239 0.00329757  0.00003397  0.0149582 0.9200
 36  -3430.1649808153  -0.016424424843 0.00310660  0.00003175  0.0137608 0.9200
 37  -3430.1802715867  -0.015290771366 0.00294954  0.00002967  0.0126594 0.9200
 38  -3430.1944954424  -0.014223855732 0.00279575  0.00002771  0.0116463 0.9200
 39  -3430.2077177345  -0.013222292112 0.00262232  0.00002615  0.0107144 0.9200
               *** Restarting incremental Fock matrix formation ***
                                   *** Resetting DIIS ***
 40  -3430.2199962137  -0.012278479184 0.00212334  0.00002119  0.0098570 0.9200
 41  -3430.2314937542  -0.011497540499 0.00181843  0.00001883  0.0090737 0.9200
 42  -3430.2421445306  -0.010650776354 0.00166924  0.00001775  0.0083546 0.9200
 43  -3430.2519954873  -0.009850956730 0.00192288  0.00001735  0.0080222 0.9200
 44  -3430.2610986511  -0.009103163786 0.00200626  0.00001712  0.0075481 0.9200
 45  -3430.2695103286  -0.008411677557 0.00177184  0.00001650  0.0070308 0.9200
 46  -3430.2772927485  -0.007782419824 0.00167696  0.00001582  0.0067115 0.9200
 47  -3430.2844901200  -0.007197371575 0.00163634  0.00001513  0.0064465 0.9200
 48  -3430.2911444253  -0.006654305314 0.00158473  0.00001440  0.0061256 0.9200
 49  -3430.2972967261  -0.006152300746 0.00153071  0.00001364  0.0057579 0.9200
 50  -3430.3029854774  -0.005688751311 0.00147375  0.00001289  0.0053975 0.9200
 51  -3430.3082453688  -0.005259891438 0.00140991  0.00001215  0.0050793 0.9200
 52  -3430.3131075902  -0.004862221342 0.00134018  0.00001145  0.0047914 0.9200
 53  -3430.3176010104  -0.004493420232 0.00127035  0.00001078  0.0045124 0.9200
 54  -3430.3217527575  -0.004151747122 0.00120381  0.00001014  0.0042378 0.9200
 55  -3430.3255881479  -0.003835390369 0.00114032  0.00000953  0.0039752 0.9200
 56  -3430.3291306122  -0.003542464322 0.00107888  0.00000895  0.0037309 0.9200
 57  -3430.3324018220  -0.003271209775 0.00101793  0.00000841  0.0035034 0.9200
 58  -3430.3354219065  -0.003020084524 0.00095953  0.00000790  0.0032882 0.9200
 59  -3430.3382096452  -0.002787738628 0.00111162  0.00000768  0.0030836 0.9200
               *** Restarting incremental Fock matrix formation ***
                                   *** Resetting DIIS ***
 60  -3430.3407679368  -0.002558291598 0.00904173  0.00007313  0.0028900 0.0000
 61  -3430.3708964672  -0.030128530479 0.00466815  0.00001827  0.0028935 0.0000
 62  -3430.3709420386  -0.000045571328 0.00115141  0.00000939  0.0019221 0.0000
 63  -3430.3709892551  -0.000047216490 0.00155021  0.00000742  0.0005065 0.0000
               *** Restarting incremental Fock matrix formation ***
                                   *** Resetting DIIS ***
 64  -3430.3697662372   0.001223017900 0.00801885  0.00010882  0.0005831 0.0000
 65  -3430.3699623207  -0.000196083546 0.00265886  0.00003606  0.0001889 0.0000
 66  -3430.3699893239  -0.000027003251 0.00097571  0.00001409  0.0002277 0.0000
 67  -3430.3699997251  -0.000010401180 0.00052657  0.00000672  0.0001003 0.0000
 68  -3430.3700031998  -0.000003474659 0.00036934  0.00000369  0.0000926 0.0000
 69  -3430.3700054460  -0.000002246239 0.00035980  0.00000305  0.0000918 0.0000
 70  -3430.3700069643  -0.000001518306 0.00030366  0.00000278  0.0000852 0.0000
 71  -3430.3700083654  -0.000001401058 0.00029318  0.00000270  0.0000820 0.0000
 72  -3430.3700095018  -0.000001136450 0.00026529  0.00000234  0.0000785 0.0000
 73  -3430.3700104643  -0.000000962493 0.00028457  0.00000242  0.0000726 0.0000
 74  -3430.3700115663  -0.000001102007 0.00027470  0.00000238  0.0000717 0.0000
 75  -3430.3700123326  -0.000000766292 0.00021308  0.00000193  0.0000703 0.0000
 76  -3430.3700132501  -0.000000917450 0.00025029  0.00000212  0.0000673 0.0000
                 **** Energy Check signals convergence ****

               *****************************************************
               *                     SUCCESS                       *
               *           SCF CONVERGED AFTER  77 CYCLES          *
               *****************************************************

Old exchange energy                            =   -130.025559653 Eh
New exchange energy                            =   -130.025210062 Eh
Exchange energy change after final integration =      0.000349592 Eh
Total energy after final integration           =  -3430.369664435 Eh
Final COS-X integration done in                =    28.753 sec

----------------
TOTAL SCF ENERGY
----------------

Total Energy       :        -3430.36966443 Eh          -93345.10414 eV

Components:
Nuclear Repulsion  :         7135.65189457 Eh          194170.95951 eV
Electronic Energy  :       -10566.02155900 Eh         -287516.06365 eV
One Electron Energy:       -19828.02621626 Eh         -539548.02344 eV
Two Electron Energy:         9262.00465726 Eh          252031.95978 eV
Max COSX asymmetry :            0.00000833 Eh               0.00023 eV

Virial components:
Potential Energy   :        -5427.80723556 Eh         -147698.14371 eV
Kinetic Energy     :         1997.43757112 Eh           54353.03957 eV
Virial Ratio       :            2.71738517


DFT components:
N(Alpha)           :      166.999956772358 electrons
N(Beta)            :      162.999957997879 electrons
N(Total)           :      329.999914770237 electrons
E(X)               :     -117.171534130980 Eh       
E(C)               :       -9.102656175793 Eh       
E(XC)              :     -126.274190306772 Eh       
DFET-embed. en.    :        0.000000000000 Eh       

---------------
SCF CONVERGENCE
---------------

  Last Energy change         ...   -7.7612e-07  Tolerance :   1.0000e-06
  Last MAX-Density change    ...    0.0000e+00  Tolerance :   1.0000e-05
  Last RMS-Density change    ...    0.0000e+00  Tolerance :   1.0000e-06
  Last DIIS Error            ...    6.6242e-05  Tolerance :   1.0000e-06

             **** THE GBW FILE WAS UPDATED (b2plyp.gbw) ****
             **** DENSITY b2plyp.scfp WAS UPDATED ****
             **** ENERGY FILE WAS UPDATED (b2plyp.en.tmp) ****
----------------------
UHF SPIN CONTAMINATION
----------------------

Warning: in a DFT calculation there is little theoretical justification to 
         calculate <S**2> as in Hartree-Fock theory. We will do it anyways
         but you should keep in mind that the values have only limited relevance

Expectation value of <S**2>     :     6.035369
Ideal value S*(S+1) for S=2.0   :     6.000000
Deviation                       :     0.035369

             **** THE GBW FILE WAS UPDATED (b2plyp.gbw) ****
             **** DENSITY b2plyp.scfp WAS UPDATED ****
----------------
ORBITAL ENERGIES
----------------
                 SPIN UP ORBITALS
  NO   OCC          E(Eh)            E(eV) 
   0   1.0000    -258.348271     -7030.0139 
   1   1.0000     -30.906727      -841.0148 
   2   1.0000     -26.625319      -724.5118 
   3   1.0000     -26.595549      -723.7017 
   4   1.0000     -26.594195      -723.6648 
   5   1.0000      -4.408346      -119.9572 
   6   1.0000      -4.407221      -119.9266 
   7   1.0000      -4.403675      -119.8301 
   8   1.0000      -4.403602      -119.8281 
   9   1.0000      -4.401864      -119.7808 
  10   1.0000      -4.401712      -119.7767 
  11   1.0000      -4.399989      -119.7298 
  12   1.0000      -4.397843      -119.6714 
  13   1.0000      -4.397718      -119.6680 
  14   1.0000      -4.396948      -119.6470 
  15   1.0000      -4.396644      -119.6388 
  16   1.0000      -4.396556      -119.6364 
  17   1.0000      -4.393460      -119.5521 
  18   1.0000      -4.393389      -119.5502 
  19   1.0000      -4.393081      -119.5418 
  20   1.0000      -4.392900      -119.5369 
  21   1.0000      -3.920957      -106.6947 
  22   1.0000      -2.672416       -72.7201 
  23   1.0000      -2.609990       -71.0214 
  24   1.0000      -2.607362       -70.9499 
  25   1.0000      -2.528776       -68.8115 
  26   1.0000      -2.527963       -68.7894 
  27   1.0000      -2.525665       -68.7268 
  28   1.0000      -2.525210       -68.7145 
  29   1.0000      -2.525085       -68.7111 
  30   1.0000      -2.523236       -68.6607 
  31   1.0000      -2.522368       -68.6371 
  32   1.0000      -2.522324       -68.6359 
  33   1.0000      -2.521885       -68.6240 
  34   1.0000      -2.521600       -68.6162 
  35   1.0000      -2.521530       -68.6143 
  36   1.0000      -2.521330       -68.6089 
  37   1.0000      -2.521288       -68.6077 
  38   1.0000      -2.519180       -68.5504 
  39   1.0000      -2.518969       -68.5446 
  40   1.0000      -2.518879       -68.5422 
  41   1.0000      -2.518429       -68.5299 
  42   1.0000      -2.517799       -68.5128 
  43   1.0000      -2.517470       -68.5038 
  44   1.0000      -2.517310       -68.4995 
  45   1.0000      -2.516228       -68.4700 
  46   1.0000      -2.515779       -68.4578 
  47   1.0000      -2.515580       -68.4524 
  48   1.0000      -2.515127       -68.4401 
  49   1.0000      -2.514946       -68.4352 
  50   1.0000      -2.514797       -68.4311 
  51   1.0000      -2.514491       -68.4228 
  52   1.0000      -2.514314       -68.4180 
  53   1.0000      -2.513805       -68.4041 
  54   1.0000      -2.513737       -68.4023 
  55   1.0000      -2.512989       -68.3819 
  56   1.0000      -2.512901       -68.3795 
  57   1.0000      -2.512739       -68.3751 
  58   1.0000      -2.512030       -68.3558 
  59   1.0000      -2.511785       -68.3491 
  60   1.0000      -2.511579       -68.3435 
  61   1.0000      -2.511540       -68.3425 
  62   1.0000      -2.511228       -68.3340 
  63   1.0000      -2.510739       -68.3207 
  64   1.0000      -2.510444       -68.3127 
  65   1.0000      -2.510396       -68.3113 
  66   1.0000      -2.509019       -68.2739 
  67   1.0000      -2.509009       -68.2736 
  68   1.0000      -2.508756       -68.2667 
  69   1.0000      -2.508569       -68.2616 
  70   1.0000      -2.508192       -68.2514 
  71   1.0000      -2.508092       -68.2487 
  72   1.0000      -2.507892       -68.2432 
  73   1.0000      -0.571917       -15.5627 
  74   1.0000      -0.564475       -15.3602 
  75   1.0000      -0.563925       -15.3452 
  76   1.0000      -0.540832       -14.7168 
  77   1.0000      -0.521927       -14.2024 
  78   1.0000      -0.509220       -13.8566 
  79   1.0000      -0.479713       -13.0537 
  80   1.0000      -0.476308       -12.9610 
  81   1.0000      -0.472166       -12.8483 
  82   1.0000      -0.469789       -12.7836 
  83   1.0000      -0.469532       -12.7766 
  84   1.0000      -0.467927       -12.7329 
  85   1.0000      -0.462347       -12.5811 
  86   1.0000      -0.461184       -12.5494 
  87   1.0000      -0.460879       -12.5412 
  88   1.0000      -0.457633       -12.4528 
  89   1.0000      -0.455273       -12.3886 
  90   1.0000      -0.453429       -12.3384 
  91   1.0000      -0.453193       -12.3320 
  92   1.0000      -0.452086       -12.3019 
  93   1.0000      -0.449128       -12.2214 
  94   1.0000      -0.449065       -12.2197 
  95   1.0000      -0.447914       -12.1883 
  96   1.0000      -0.447212       -12.1693 
  97   1.0000      -0.446895       -12.1606 
  98   1.0000      -0.444819       -12.1041 
  99   1.0000      -0.442172       -12.0321 
 100   1.0000      -0.441275       -12.0077 
 101   1.0000      -0.440314       -11.9816 
 102   1.0000      -0.438656       -11.9364 
 103   1.0000      -0.435162       -11.8414 
 104   1.0000      -0.433671       -11.8008 
 105   1.0000      -0.432044       -11.7565 
 106   1.0000      -0.431014       -11.7285 
 107   1.0000      -0.426120       -11.5953 
 108   1.0000      -0.423856       -11.5337 
 109   1.0000      -0.418171       -11.3790 
 110   1.0000      -0.417260       -11.3542 
 111   1.0000      -0.414302       -11.2737 
 112   1.0000      -0.412935       -11.2365 
 113   1.0000      -0.408696       -11.1212 
 114   1.0000      -0.406612       -11.0645 
 115   1.0000      -0.401853       -10.9350 
 116   1.0000      -0.399792       -10.8789 
 117   1.0000      -0.398093       -10.8327 
 118   1.0000      -0.391229       -10.6459 
 119   1.0000      -0.387073       -10.5328 
 120   1.0000      -0.385939       -10.5019 
 121   1.0000      -0.385542       -10.4911 
 122   1.0000      -0.380986       -10.3672 
 123   1.0000      -0.378544       -10.3007 
 124   1.0000      -0.377328       -10.2676 
 125   1.0000      -0.376231       -10.2378 
 126   1.0000      -0.374678       -10.1955 
 127   1.0000      -0.374362       -10.1869 
 128   1.0000      -0.372662       -10.1406 
 129   1.0000      -0.370588       -10.0842 
 130   1.0000      -0.370245       -10.0749 
 131   1.0000      -0.369119       -10.0442 
 132   1.0000      -0.368555       -10.0289 
 133   1.0000      -0.367181        -9.9915 
 134   1.0000      -0.366943        -9.9850 
 135   1.0000      -0.366390        -9.9700 
 136   1.0000      -0.364489        -9.9182 
 137   1.0000      -0.363892        -9.9020 
 138   1.0000      -0.363516        -9.8918 
 139   1.0000      -0.359968        -9.7952 
 140   1.0000      -0.358501        -9.7553 
 141   1.0000      -0.357984        -9.7412 
 142   1.0000      -0.357641        -9.7319 
 143   1.0000      -0.355516        -9.6741 
 144   1.0000      -0.351736        -9.5712 
 145   1.0000      -0.349645        -9.5143 
 146   1.0000      -0.349138        -9.5005 
 147   1.0000      -0.347825        -9.4648 
 148   1.0000      -0.347058        -9.4439 
 149   1.0000      -0.345930        -9.4132 
 150   1.0000      -0.344748        -9.3811 
 151   1.0000      -0.344431        -9.3725 
 152   1.0000      -0.341184        -9.2841 
 153   1.0000      -0.333209        -9.0671 
 154   1.0000      -0.332959        -9.0603 
 155   1.0000      -0.331398        -9.0178 
 156   1.0000      -0.330507        -8.9936 
 157   1.0000      -0.329585        -8.9685 
 158   1.0000      -0.325105        -8.8466 
 159   1.0000      -0.324021        -8.8171 
 160   1.0000      -0.316323        -8.6076 
 161   1.0000      -0.311186        -8.4678 
 162   1.0000      -0.258589        -7.0366 
 163   1.0000      -0.241030        -6.5588 
 164   1.0000      -0.231448        -6.2980 
 165   1.0000      -0.216135        -5.8813 
 166   1.0000      -0.213766        -5.8169 
 167   0.0000      -0.097636        -2.6568 
 168   0.0000      -0.079100        -2.1524 
 169   0.0000      -0.074568        -2.0291 
 170   0.0000      -0.071807        -1.9540 
 171   0.0000      -0.068490        -1.8637 
 172   0.0000      -0.063402        -1.7252 
 173   0.0000      -0.046593        -1.2679 
 174   0.0000      -0.043147        -1.1741 
 175   0.0000      -0.020498        -0.5578 
 176   0.0000      -0.015182        -0.4131 
 177   0.0000      -0.008862        -0.2412 
 178   0.0000       0.018531         0.5043 
 179   0.0000       0.022700         0.6177 
 180   0.0000       0.025174         0.6850 
 181   0.0000       0.031463         0.8561 
 182   0.0000       0.033006         0.8981 
 183   0.0000       0.035542         0.9671 
 184   0.0000       0.036205         0.9852 
 185   0.0000       0.048510         1.3200 
 186   0.0000       0.053473         1.4551 
 187   0.0000       0.063904         1.7389 
 188   0.0000       0.068575         1.8660 
 189   0.0000       0.070238         1.9113 
 190   0.0000       0.079518         2.1638 
 191   0.0000       0.080838         2.1997 
 192   0.0000       0.093922         2.5558 
 193   0.0000       0.097631         2.6567 
 194   0.0000       0.097862         2.6630 
 195   0.0000       0.100218         2.7271 
 196   0.0000       0.103684         2.8214 
 197   0.0000       0.105910         2.8820 
 198   0.0000       0.110788         3.0147 
 199   0.0000       0.113117         3.0781 
 200   0.0000       0.117067         3.1856 
 201   0.0000       0.121760         3.3133 
 202   0.0000       0.123468         3.3597 
 203   0.0000       0.127818         3.4781 
 204   0.0000       0.128356         3.4927 
 205   0.0000       0.137663         3.7460 
 206   0.0000       0.139735         3.8024 
 207   0.0000       0.140055         3.8111 
 208   0.0000       0.141528         3.8512 
 209   0.0000       0.146907         3.9975 
 210   0.0000       0.148343         4.0366 
 211   0.0000       0.153201         4.1688 
 212   0.0000       0.160006         4.3540 
 213   0.0000       0.166812         4.5392 
 214   0.0000       0.181359         4.9350 
 215   0.0000       0.188188         5.1208 
 216   0.0000       0.192927         5.2498 
 217   0.0000       0.193167         5.2563 
 218   0.0000       0.195658         5.3241 
 219   0.0000       0.199514         5.4291 
 220   0.0000       0.199643         5.4326 
 221   0.0000       0.213386         5.8065 
 222   0.0000       0.213846         5.8190 
 223   0.0000       0.220191         5.9917 
 224   0.0000       0.221362         6.0236 
 225   0.0000       0.226216         6.1557 
 226   0.0000       0.234497         6.3810 
 227   0.0000       0.238671         6.4946 
 228   0.0000       0.241750         6.5784 
 229   0.0000       0.247636         6.7385 
 230   0.0000       0.249618         6.7925 
 231   0.0000       0.261021         7.1028 
 232   0.0000       0.277932         7.5629 
 233   0.0000       0.282129         7.6771 
 234   0.0000       0.282318         7.6823 
 235   0.0000       0.289964         7.8903 
 236   0.0000       0.290101         7.8941 
 237   0.0000       0.291713         7.9379 
 238   0.0000       0.295403         8.0383 
 239   0.0000       0.301346         8.2001 
 240   0.0000       0.302791         8.2394 
 241   0.0000       0.312390         8.5006 
 242   0.0000       0.317736         8.6460 
 243   0.0000       0.318585         8.6691 
 244   0.0000       0.320851         8.7308 
 245   0.0000       0.329235         8.9589 
 246   0.0000       0.332288         9.0420 
 247   0.0000       0.336935         9.1685 
 248   0.0000       0.339749         9.2450 
 249   0.0000       0.340668         9.2700 
 250   0.0000       0.349018         9.4973 
 251   0.0000       0.359393         9.7796 
 252   0.0000       0.368310        10.0222 
 253   0.0000       0.369599        10.0573 
 254   0.0000       0.376126        10.2349 
 255   0.0000       0.379827        10.3356 
 256   0.0000       0.386799        10.5253 
 257   0.0000       0.401136        10.9155 
 258   0.0000       0.402341        10.9482 
 259   0.0000       0.406404        11.0588 
 260   0.0000       0.411560        11.1991 
 261   0.0000       0.413603        11.2547 
 262   0.0000       0.414424        11.2770 
 263   0.0000       0.415837        11.3155 
 264   0.0000       0.419443        11.4136 
 265   0.0000       0.422579        11.4990 
 266   0.0000       0.425574        11.5805 
 267   0.0000       0.433383        11.7929 
 268   0.0000       0.434397        11.8205 
 269   0.0000       0.443208        12.0603 
 270   0.0000       0.444670        12.1001 
 271   0.0000       0.455309        12.3896 
 272   0.0000       0.458503        12.4765 
 273   0.0000       0.464797        12.6478 
 274   0.0000       0.466657        12.6984 
 275   0.0000       0.470611        12.8060 
 276   0.0000       0.473974        12.8975 
 277   0.0000       0.481501        13.1023 
 278   0.0000       0.483095        13.1457 
 279   0.0000       0.487480        13.2650 
 280   0.0000       0.489330        13.3154 
 281   0.0000       0.494995        13.4695 
 282   0.0000       0.498911        13.5761 
 283   0.0000       0.501713        13.6523 
 284   0.0000       0.506322        13.7777 
 285   0.0000       0.506826        13.7914 
 286   0.0000       0.516515        14.0551 
 287   0.0000       0.519987        14.1496 
 288   0.0000       0.534464        14.5435 
 289   0.0000       0.536583        14.6012 
 290   0.0000       0.538788        14.6612 
 291   0.0000       0.544168        14.8076 
 292   0.0000       0.544732        14.8229 
 293   0.0000       0.550997        14.9934 
 294   0.0000       0.557392        15.1674 
 295   0.0000       0.559600        15.2275 
 296   0.0000       0.561053        15.2670 
 297   0.0000       0.566844        15.4246 
 298   0.0000       0.569994        15.5103 
 299   0.0000       0.572670        15.5831 
 300   0.0000       0.573992        15.6191 
 301   0.0000       0.581912        15.8346 
 302   0.0000       0.582376        15.8472 
 303   0.0000       0.583079        15.8664 
 304   0.0000       0.590070        16.0566 
 305   0.0000       0.594579        16.1793 
 306   0.0000       0.595286        16.1986 
 307   0.0000       0.603178        16.4133 
 308   0.0000       0.605172        16.4676 
 309   0.0000       0.608691        16.5633 
 310   0.0000       0.609148        16.5758 
 311   0.0000       0.611035        16.6271 
 312   0.0000       0.611575        16.6418 
 313   0.0000       0.617949        16.8152 
 314   0.0000       0.619214        16.8497 
 315   0.0000       0.624354        16.9895 
 316   0.0000       0.627265        17.0688 
 317   0.0000       0.642083        17.4720 
 318   0.0000       0.644312        17.5326 
 319   0.0000       0.649447        17.6723 
 320   0.0000       0.654990        17.8232 
 321   0.0000       0.658610        17.9217 
 322   0.0000       0.665561        18.1108 
 323   0.0000       0.673092        18.3158 
 324   0.0000       0.675387        18.3782 
 325   0.0000       0.686955        18.6930 
 326   0.0000       0.688739        18.7415 
 327   0.0000       0.700581        19.0638 
 328   0.0000       0.789268        21.4771 
 329   0.0000       0.796820        21.6826 
 330   0.0000       0.803120        21.8540 
 331   0.0000       0.810476        22.0542 
 332   0.0000       0.818647        22.2765 
 333   0.0000       0.833584        22.6830 
 334   0.0000       0.840030        22.8584 
 335   0.0000       0.848289        23.0831 
 336   0.0000       0.855841        23.2886 
 337   0.0000       0.863758        23.5041 
 338   0.0000       0.866190        23.5702 
 339   0.0000       0.880877        23.9699 
 340   0.0000       0.885434        24.0939 
 341   0.0000       0.887742        24.1567 
 342   0.0000       0.889720        24.2105 
 343   0.0000       0.894781        24.3482 
 344   0.0000       0.925872        25.1943 
 345   0.0000       0.936363        25.4797 
 346   0.0000       0.937081        25.4993 
 347   0.0000       0.939925        25.5767 
 348   0.0000       0.953399        25.9433 
 349   0.0000       0.964130        26.2353 
 350   0.0000       0.974358        26.5136 
 351   0.0000       0.975226        26.5373 
 352   0.0000       0.993761        27.0416 
 353   0.0000       1.008279        27.4367 
 354   0.0000       1.012519        27.5521 
 355   0.0000       1.021085        27.7851 
 356   0.0000       1.043772        28.4025 
 357   0.0000       1.044763        28.4294 
 358   0.0000       1.050998        28.5991 
 359   0.0000       1.054362        28.6906 
 360   0.0000       1.063847        28.9488 
 361   0.0000       1.064760        28.9736 
 362   0.0000       1.067120        29.0378 
 363   0.0000       1.074363        29.2349 
 364   0.0000       1.075117        29.2554 
 365   0.0000       1.100196        29.9379 
 366   0.0000       1.101141        29.9636 
 367   0.0000       1.107566        30.1384 
 368   0.0000       1.111737        30.2519 
 369   0.0000       1.119719        30.4691 
 370   0.0000       1.134529        30.8721 
 371   0.0000       1.152878        31.3714 
 372   0.0000       1.168732        31.8028 
 373   0.0000       1.209566        32.9140 
 374   0.0000       1.224960        33.3329 
 375   0.0000       1.299274        35.3550 
 376   0.0000       1.316678        35.8286 
 377   0.0000       1.346808        36.6485 
 378   0.0000       1.357575        36.9415 
 379   0.0000       1.368907        37.2498 
 380   0.0000       1.379775        37.5456 
 381   0.0000       1.397555        38.0294 
 382   0.0000       1.399248        38.0755 
 383   0.0000       1.409610        38.3574 
 384   0.0000       1.422919        38.7196 
 385   0.0000       1.437327        39.1117 
 386   0.0000       1.446886        39.3718 
 387   0.0000       1.464212        39.8432 
 388   0.0000       1.468368        39.9563 
 389   0.0000       1.475538        40.1514 
 390   0.0000       1.477518        40.2053 
 391   0.0000       1.482296        40.3353 
 392   0.0000       1.484376        40.3919 
 393   0.0000       1.489900        40.5422 
 394   0.0000       1.490791        40.5665 
 395   0.0000       1.495979        40.7077 
 396   0.0000       1.503055        40.9002 
 397   0.0000       1.505441        40.9651 
 398   0.0000       1.515136        41.2289 
 399   0.0000       1.524634        41.4874 
 400   0.0000       1.533745        41.7353 
 401   0.0000       1.536336        41.8058 
 402   0.0000       1.549217        42.1563 
 403   0.0000       1.555048        42.3150 
 404   0.0000       1.565985        42.6126 
 405   0.0000       1.572000        42.7763 
 406   0.0000       1.581506        43.0350 
 407   0.0000       1.584154        43.1070 
 408   0.0000       1.587845        43.2075 
 409   0.0000       1.592495        43.3340 
 410   0.0000       1.605137        43.6780 
 411   0.0000       1.607608        43.7452 
 412   0.0000       1.607904        43.7533 
 413   0.0000       1.610988        43.8372 
 414   0.0000       1.611729        43.8574 
 415   0.0000       1.616892        43.9979 
 416   0.0000       1.624576        44.2070 
 417   0.0000       1.626291        44.2536 
 418   0.0000       1.631666        44.3999 
 419   0.0000       1.634704        44.4826 
 420   0.0000       1.634950        44.4893 
 421   0.0000       1.638075        44.5743 
 422   0.0000       1.638632        44.5894 
 423   0.0000       1.642160        44.6854 
 424   0.0000       1.645192        44.7679 
 425   0.0000       1.648958        44.8704 
 426   0.0000       1.655438        45.0467 
 427   0.0000       1.658640        45.1339 
 428   0.0000       1.658932        45.1418 
 429   0.0000       1.660783        45.1922 
 430   0.0000       1.661833        45.2208 
 431   0.0000       1.667912        45.3862 
 432   0.0000       1.668624        45.4056 
 433   0.0000       1.670968        45.4693 
 434   0.0000       1.676014        45.6067 
 435   0.0000       1.676823        45.6287 
 436   0.0000       1.677682        45.6520 
 437   0.0000       1.680234        45.7215 
 438   0.0000       1.683132        45.8004 
 439   0.0000       1.685436        45.8630 
 440   0.0000       1.686068        45.8802 
 441   0.0000       1.687459        45.9181 
 442   0.0000       1.687746        45.9259 
 443   0.0000       1.689906        45.9847 
 444   0.0000       1.690010        45.9875 
 445   0.0000       1.691682        46.0330 
 446   0.0000       1.692880        46.0656 
 447   0.0000       1.694275        46.1036 
 448   0.0000       1.695140        46.1271 
 449   0.0000       1.696040        46.1516 
 450   0.0000       1.698374        46.2151 
 451   0.0000       1.698964        46.2312 
 452   0.0000       1.700219        46.2653 
 453   0.0000       1.700772        46.2804 
 454   0.0000       1.701013        46.2869 
 455   0.0000       1.703782        46.3623 
 456   0.0000       1.704771        46.3892 
 457   0.0000       1.705085        46.3977 
 458   0.0000       1.706914        46.4475 
 459   0.0000       1.707225        46.4560 
 460   0.0000       1.708933        46.5024 
 461   0.0000       1.710073        46.5334 
 462   0.0000       1.711546        46.5735 
 463   0.0000       1.711805        46.5806 
 464   0.0000       1.713606        46.6296 
 465   0.0000       1.714658        46.6582 
 466   0.0000       1.714986        46.6671 
 467   0.0000       1.716370        46.7048 
 468   0.0000       1.718213        46.7549 
 469   0.0000       1.719237        46.7828 
 470   0.0000       1.719386        46.7869 
 471   0.0000       1.720190        46.8088 
 472   0.0000       1.724120        46.9157 
 473   0.0000       1.724212        46.9182 
 474   0.0000       1.727858        47.0174 
 475   0.0000       1.728179        47.0262 
 476   0.0000       1.730610        47.0923 
 477   0.0000       1.732294        47.1381 
 478   0.0000       1.734769        47.2055 
 479   0.0000       1.737323        47.2750 
 480   0.0000       1.738544        47.3082 
 481   0.0000       1.743781        47.4507 
 482   0.0000       1.744673        47.4750 
 483   0.0000       1.747449        47.5505 
 484   0.0000       1.747735        47.5583 
 485   0.0000       1.749336        47.6019 
 486   0.0000       1.753936        47.7270 
 487   0.0000       1.755321        47.7647 
 488   0.0000       1.755402        47.7669 
 489   0.0000       1.758852        47.8608 
 490   0.0000       1.759912        47.8896 
 491   0.0000       1.762408        47.9576 
 492   0.0000       1.764097        48.0035 
 493   0.0000       1.764597        48.0171 
 494   0.0000       1.769090        48.1394 
 495   0.0000       1.770237        48.1706 
 496   0.0000       1.771097        48.1940 
 497   0.0000       1.772685        48.2372 
 498   0.0000       1.774177        48.2778 
 499   0.0000       1.777052        48.3561 
 500   0.0000       1.780167        48.4408 
 501   0.0000       1.780904        48.4609 
 502   0.0000       1.782609        48.5072 
 503   0.0000       1.788846        48.6770 
 504   0.0000       1.792473        48.7757 
 505   0.0000       1.795204        48.8500 
 506   0.0000       1.797534        48.9134 
 507   0.0000       1.802602        49.0513 
 508   0.0000       1.804696        49.1083 
 509   0.0000       1.807787        49.1924 
 510   0.0000       1.813287        49.3420 
 511   0.0000       1.816001        49.4159 
 512   0.0000       1.817346        49.4525 
 513   0.0000       1.818808        49.4923 
 514   0.0000       1.819306        49.5058 
 515   0.0000       1.823844        49.6293 
 516   0.0000       1.828752        49.7629 
 517   0.0000       1.831700        49.8431 
 518   0.0000       1.834455        49.9181 
 519   0.0000       1.836757        49.9807 
 520   0.0000       1.838602        50.0309 
 521   0.0000       1.842211        50.1291 
 522   0.0000       1.842440        50.1353 
 523   0.0000       1.846635        50.2495 
 524   0.0000       1.854001        50.4499 
 525   0.0000       1.854239        50.4564 
 526   0.0000       1.858134        50.5624 
 527   0.0000       1.865284        50.7570 
 528   0.0000       1.880552        51.1724 
 529   0.0000       1.880774        51.1785 
 530   0.0000       1.894514        51.5523 
 531   0.0000       1.897932        51.6454 
 532   0.0000       1.901725        51.7486 
 533   0.0000       1.904127        51.8139 
 534   0.0000       1.912664        52.0462 
 535   0.0000       1.919507        52.2324 
 536   0.0000       1.928163        52.4680 
 537   0.0000       1.932373        52.5825 
 538   0.0000       1.936975        52.7078 
 539   0.0000       1.939550        52.7778 
 540   0.0000       1.947347        52.9900 
 541   0.0000       1.956478        53.2385 
 542   0.0000       1.963037        53.4170 
 543   0.0000       1.968458        53.5645 
 544   0.0000       1.971503        53.6473 
 545   0.0000       1.976503        53.7834 
 546   0.0000       1.977605        53.8134 
 547   0.0000       1.985576        54.0303 
 548   0.0000       1.991295        54.1859 
 549   0.0000       1.993280        54.2399 
 550   0.0000       2.001654        54.4678 
 551   0.0000       2.010485        54.7081 
 552   0.0000       2.012950        54.7751 
 553   0.0000       2.013193        54.7818 
 554   0.0000       2.019931        54.9651 
 555   0.0000       2.022384        55.0319 
 556   0.0000       2.031095        55.2689 
 557   0.0000       2.043139        55.5966 
 558   0.0000       2.050931        55.8087 
 559   0.0000       2.052554        55.8528 
 560   0.0000       2.062590        56.1259 
 561   0.0000       2.064693        56.1832 
 562   0.0000       2.114140        57.5287 
 563   0.0000       2.118503        57.6474 
 564   0.0000       2.123731        57.7897 
 565   0.0000       2.140320        58.2411 
 566   0.0000       2.151728        58.5515 
 567   0.0000       2.154176        58.6181 
 568   0.0000       2.229884        60.6782 
 569   0.0000       2.241510        60.9946 
 570   0.0000       2.301930        62.6387 
 571   0.0000       2.356670        64.1283 
 572   0.0000       2.391074        65.0644 
 573   0.0000       2.431281        66.1585 
 574   0.0000       2.525927        68.7340 
 575   0.0000       2.539521        69.1039 
 576   0.0000       2.566161        69.8288 
 577   0.0000       2.637118        71.7596 
 578   0.0000       2.664260        72.4982 
 579   0.0000       2.682706        73.0001 
 580   0.0000       2.704642        73.5971 
 581   0.0000       2.718161        73.9649 
 582   0.0000       2.750261        74.8384 
 583   0.0000       2.751634        74.8758 
 584   0.0000       2.763352        75.1946 
 585   0.0000       2.773360        75.4670 
 586   0.0000       2.782209        75.7078 
 587   0.0000       2.808850        76.4327 
 588   0.0000       2.811762        76.5119 
 589   0.0000       2.827993        76.9536 
 590   0.0000       2.842429        77.3464 
 591   0.0000       2.864937        77.9589 
 592   0.0000       3.654906        99.4550 
 593   0.0000       3.941719       107.2596 
 594   0.0000       3.955468       107.6338 
 595   0.0000       3.976989       108.2194 
 596   0.0000       3.977857       108.2430 
 597   0.0000       3.984297       108.4182 
 598   0.0000       4.098473       111.5251 
 599   0.0000       4.104396       111.6863 
 600   0.0000       4.106645       111.7475 
 601   0.0000       4.110160       111.8431 
 602   0.0000       4.131223       112.4163 
 603   0.0000       4.151091       112.9569 
 604   0.0000       4.151618       112.9713 
 605   0.0000      24.196559       658.4218 
 606   0.0000      24.331558       662.0954 
 607   0.0000      24.491049       666.4353 
 608   0.0000      24.599466       669.3855 
 609   0.0000      24.640501       670.5021 
 610   0.0000      24.672103       671.3621 
 611   0.0000      24.760268       673.7611 
 612   0.0000      24.899497       677.5498 
 613   0.0000      24.978753       679.7064 
 614   0.0000      25.432817       692.0621 
 615   0.0000      25.441632       692.3020 
 616   0.0000      25.556384       695.4246 
 617   0.0000      25.605056       696.7490 
 618   0.0000      25.645323       697.8447 
 619   0.0000      25.789012       701.7547 
 620   0.0000      25.854246       703.5298 
 621   0.0000      25.920924       705.3442 
 622   0.0000      26.019874       708.0368 
 623   0.0000      26.030535       708.3269 
 624   0.0000      26.251038       714.3271 
 625   0.0000      26.305735       715.8154 
 626   0.0000      26.315197       716.0729 
 627   0.0000      26.383383       717.9284 
 628   0.0000      26.451129       719.7718 
 629   0.0000      26.551706       722.5087 
 630   0.0000      26.680257       726.0067 
 631   0.0000      26.699973       726.5432 
 632   0.0000      26.839424       730.3379 
 633   0.0000      26.870119       731.1731 
 634   0.0000      26.947968       733.2915 
 635   0.0000      27.077977       736.8292 
 636   0.0000      27.146789       738.7017 
 637   0.0000      27.174525       739.4564 
 638   0.0000      27.282686       742.3996 
 639   0.0000      27.310292       743.1508 
 640   0.0000      27.557222       749.8701 
 641   0.0000      27.699847       753.7512 
 642   0.0000      27.763509       755.4835 
 643   0.0000      27.862378       758.1738 
 644   0.0000      27.882094       758.7104 
 645   0.0000      28.104556       764.7638 
 646   0.0000      28.110638       764.9294 
 647   0.0000      28.878655       785.8281 
 648   0.0000      28.952199       787.8294 
 649   0.0000      29.672838       807.4390 
 650   0.0000      30.364243       826.2530 
 651   0.0000      30.478091       829.3510 
 652   0.0000      32.791249       892.2952 
 653   0.0000      44.132277      1200.9003 
 654   0.0000      44.259352      1204.3582 
 655   0.0000      44.264883      1204.5087 
 656   0.0000      44.302786      1205.5401 
 657   0.0000      44.354287      1206.9415 
 658   0.0000      44.357172      1207.0200 
 659   0.0000      44.363303      1207.1869 
 660   0.0000      44.364367      1207.2158 
 661   0.0000      44.382129      1207.6991 
 662   0.0000      44.390654      1207.9311 
 663   0.0000      44.406140      1208.3525 
 664   0.0000      44.432166      1209.0607 
 665   0.0000      44.444960      1209.4088 
 666   0.0000      44.451401      1209.5841 
 667   0.0000      44.466785      1210.0027 
 668   0.0000      44.490215      1210.6403 
 669   0.0000     202.677869      5515.1452 
 670   0.0000     202.729124      5516.5399 
 671   0.0000     202.736042      5516.7282 
 672   0.0000     202.748218      5517.0595 
 673   0.0000     202.770632      5517.6694 
 674   0.0000     202.774585      5517.7770 
 675   0.0000     202.779399      5517.9080 
 676   0.0000     202.780934      5517.9497 
 677   0.0000     202.785593      5518.0765 
 678   0.0000     202.790494      5518.2099 
 679   0.0000     202.795561      5518.3478 
 680   0.0000     202.805712      5518.6240 
 681   0.0000     202.807512      5518.6730 
 682   0.0000     202.812546      5518.8099 
 683   0.0000     202.821004      5519.0401 
 684   0.0000     202.829508      5519.2715 

                 SPIN DOWN ORBITALS
  NO   OCC          E(Eh)            E(eV) 
   0   1.0000    -258.346313     -7029.9606 
   1   1.0000     -30.813252      -838.4712 
   2   1.0000     -26.525258      -721.7890 
   3   1.0000     -26.517202      -721.5697 
   4   1.0000     -26.516586      -721.5530 
   5   1.0000      -4.407237      -119.9270 
   6   1.0000      -4.406686      -119.9120 
   7   1.0000      -4.403076      -119.8138 
   8   1.0000      -4.403004      -119.8118 
   9   1.0000      -4.401497      -119.7708 
  10   1.0000      -4.401346      -119.7667 
  11   1.0000      -4.399409      -119.7140 
  12   1.0000      -4.397407      -119.6595 
  13   1.0000      -4.397298      -119.6566 
  14   1.0000      -4.396513      -119.6352 
  15   1.0000      -4.396393      -119.6319 
  16   1.0000      -4.396307      -119.6296 
  17   1.0000      -4.393278      -119.5472 
  18   1.0000      -4.393205      -119.5452 
  19   1.0000      -4.392992      -119.5394 
  20   1.0000      -4.392815      -119.5346 
  21   1.0000      -3.674709       -99.9939 
  22   1.0000      -2.527117       -68.7664 
  23   1.0000      -2.526913       -68.7608 
  24   1.0000      -2.524629       -68.6987 
  25   1.0000      -2.524182       -68.6865 
  26   1.0000      -2.523974       -68.6808 
  27   1.0000      -2.522586       -68.6431 
  28   1.0000      -2.521739       -68.6200 
  29   1.0000      -2.521424       -68.6114 
  30   1.0000      -2.521256       -68.6069 
  31   1.0000      -2.520882       -68.5967 
  32   1.0000      -2.520812       -68.5948 
  33   1.0000      -2.520722       -68.5923 
[...]
  7 Aus       :    -0.006429  s :    -0.006429
      pz      :     0.004656  p :    -0.066527
      px      :    -0.035317
      py      :    -0.035867
      dz2     :    -0.012460  d :    -0.014921
      dxz     :     0.002970
      dyz     :    -0.001003
      dx2y2   :    -0.006625
      dxy     :     0.002197
      f0      :     0.000003  f :    -0.000016
      f+1     :    -0.000002
      f-1     :    -0.000020
      f+2     :    -0.000023
      f-2     :     0.000019
      f+3     :     0.000006
      f-3     :     0.000002
  8 Aus       :    -0.076821  s :    -0.076821
      pz      :    -0.009947  p :    -0.026004
      px      :    -0.000815
      py      :    -0.015242
      dz2     :    -0.004473  d :     0.000166
      dxz     :    -0.001817
      dyz     :     0.002174
      dx2y2   :     0.000570
      dxy     :     0.003713
      f0      :    -0.000009  f :     0.000003
      f+1     :    -0.000022
      f-1     :    -0.000014
      f+2     :     0.000008
      f-2     :     0.000035
      f+3     :     0.000004
      f-3     :     0.000002
  9 Aus       :    -0.001260  s :    -0.001260
      pz      :     0.002071  p :    -0.003555
      px      :     0.005513
      py      :    -0.011138
      dz2     :     0.003901  d :    -0.014535
      dxz     :    -0.001010
      dyz     :     0.001529
      dx2y2   :    -0.009878
      dxy     :    -0.009077
      f0      :     0.000003  f :    -0.000071
      f+1     :     0.000000
      f-1     :     0.000017
      f+2     :    -0.000039
      f-2     :    -0.000020
      f+3     :    -0.000004
      f-3     :    -0.000027
 10 Aus       :    -0.070063  s :    -0.070063
      pz      :    -0.019352  p :    -0.059944
      px      :    -0.030985
      py      :    -0.009607
      dz2     :    -0.001192  d :    -0.012945
      dxz     :    -0.002868
      dyz     :    -0.000950
      dx2y2   :    -0.003653
      dxy     :    -0.004282
      f0      :     0.000001  f :    -0.000027
      f+1     :     0.000006
      f-1     :    -0.000002
      f+2     :    -0.000007
      f-2     :    -0.000005
      f+3     :    -0.000011
      f-3     :    -0.000009
 11 Aus       :    -0.016197  s :    -0.016197
      pz      :    -0.003135  p :    -0.081483
      px      :    -0.016984
      py      :    -0.061364
      dz2     :    -0.003288  d :    -0.004175
      dxz     :     0.002387
      dyz     :     0.000336
      dx2y2   :    -0.004462
      dxy     :     0.000852
      f0      :     0.000005  f :    -0.000023
      f+1     :    -0.000018
      f-1     :    -0.000012
      f+2     :    -0.000012
      f-2     :     0.000035
      f+3     :    -0.000012
      f-3     :    -0.000010
 12 Aus       :    -0.043708  s :    -0.043708
      pz      :     0.001885  p :    -0.030940
      px      :    -0.028353
      py      :    -0.004472
      dz2     :    -0.000412  d :    -0.005151
      dxz     :    -0.003056
      dyz     :    -0.000141
      dx2y2   :     0.000091
      dxy     :    -0.001633
      f0      :    -0.000013  f :    -0.000066
      f+1     :     0.000004
      f-1     :    -0.000008
      f+2     :    -0.000001
      f-2     :    -0.000026
      f+3     :    -0.000011
      f-3     :    -0.000011
 13 Aus       :     0.019329  s :     0.019329
      pz      :    -0.005905  p :    -0.036743
      px      :    -0.034273
      py      :     0.003435
      dz2     :    -0.001540  d :    -0.004428
      dxz     :     0.001042
      dyz     :    -0.001692
      dx2y2   :    -0.001010
      dxy     :    -0.001227
      f0      :     0.000003  f :    -0.000028
      f+1     :     0.000003
      f-1     :    -0.000011
      f+2     :     0.000001
      f-2     :    -0.000014
      f+3     :    -0.000008
      f-3     :    -0.000001
 14 Aus       :    -0.005085  s :    -0.005085
      pz      :    -0.018377  p :    -0.067697
      px      :    -0.029779
      py      :    -0.019541
      dz2     :     0.003391  d :    -0.014810
      dxz     :    -0.007696
      dyz     :    -0.001873
      dx2y2   :    -0.008265
      dxy     :    -0.000367
      f0      :    -0.000008  f :    -0.000019
      f+1     :    -0.000004
      f-1     :     0.000020
      f+2     :     0.000000
      f-2     :    -0.000020
      f+3     :     0.000014
      f-3     :    -0.000022
 15 Aus       :    -0.120484  s :    -0.120484
      pz      :    -0.010237  p :    -0.069635
      px      :    -0.056418
      py      :    -0.002980
      dz2     :    -0.005071  d :    -0.041004
      dxz     :    -0.003836
      dyz     :    -0.006353
      dx2y2   :    -0.021525
      dxy     :    -0.004218
      f0      :    -0.000017  f :    -0.000101
      f+1     :    -0.000001
      f-1     :    -0.000027
      f+2     :    -0.000006
      f-2     :    -0.000003
      f+3     :    -0.000031
      f-3     :    -0.000016
 16 Fes       :     0.000445  s :     0.000445
      pz      :     0.001673  p :     0.013761
      px      :     0.004702
      py      :     0.007386
      dz2     :     0.606609  d :     3.551191
      dxz     :     0.488996
      dyz     :     0.884965
      dx2y2   :     0.823040
      dxy     :     0.747581
      f0      :    -0.000026  f :    -0.000055
      f+1     :    -0.000034
      f-1     :    -0.000004
      f+2     :    -0.000006
      f-2     :    -0.000006
      f+3     :     0.000006
      f-3     :     0.000014


                      *****************************
                      * MAYER POPULATION ANALYSIS *
                      *****************************

  NA   - Mulliken gross atomic population
  ZA   - Total nuclear charge
  QA   - Mulliken gross atomic charge
  VA   - Mayer's total valence
  BVA  - Mayer's bonded valence
  FA   - Mayer's free valence

  ATOM       NA         ZA         QA         VA         BVA        FA
  0 Au    19.1207    19.0000    -0.1207     1.9459     1.9314     0.0145
  1 Au    19.1437    19.0000    -0.1437     1.9118     1.8734     0.0384
  2 Au    19.5923    19.0000    -0.5923     2.1736     2.1279     0.0457
  3 Au    18.5996    19.0000     0.4004     1.2829     1.1833     0.0995
  4 Au    18.6569    19.0000     0.3431     1.3137     1.3023     0.0114
  5 Au    18.7694    19.0000     0.2306     1.4753     1.4721     0.0032
  6 Au    18.6647    19.0000     0.3353     1.4504     1.4390     0.0113
  7 Au    19.0239    19.0000    -0.0239     1.7032     1.6960     0.0072
  8 Au    18.6872    19.0000     0.3128     1.4544     1.4233     0.0311
  9 Au    18.8244    19.0000     0.1756     1.4278     1.4256     0.0022
 10 Au    19.1486    19.0000    -0.1486     1.9103     1.8749     0.0355
 11 Au    18.6613    19.0000     0.3387     1.4482     1.4363     0.0119
 12 Au    18.6534    19.0000     0.3466     1.3093     1.2965     0.0128
 13 Au    18.7709    19.0000     0.2291     1.4781     1.4749     0.0033
 14 Au    19.0258    19.0000    -0.0258     1.7017     1.6948     0.0069
 15 Au    18.5987    19.0000     0.4013     1.2840     1.1848     0.0991
 16 Fe    28.0585    26.0000    -2.0585     8.1997     4.6690     3.5307

  Mayer bond orders larger than 0.100000
B(  0-Au,  1-Au) :   0.1543 B(  0-Au,  5-Au) :   0.2881 B(  0-Au,  6-Au) :   0.1993 
B(  0-Au, 10-Au) :   0.1511 B(  0-Au, 11-Au) :   0.1960 B(  0-Au, 13-Au) :   0.2863 
B(  0-Au, 16-Fe) :   0.4819 B(  1-Au,  2-Au) :   0.1315 B(  1-Au,  3-Au) :   0.2658 
B(  1-Au,  4-Au) :   0.1645 B(  1-Au,  5-Au) :   0.2730 B(  1-Au,  6-Au) :   0.3109 
B(  1-Au,  7-Au) :   0.1143 B(  1-Au, 16-Fe) :   0.3457 B(  2-Au,  3-Au) :   0.2778 
B(  2-Au,  5-Au) :   0.2462 B(  2-Au,  7-Au) :   0.2378 B(  2-Au, 10-Au) :   0.1301 
B(  2-Au, 13-Au) :   0.2475 B(  2-Au, 14-Au) :   0.2394 B(  2-Au, 15-Au) :   0.2779 
B(  2-Au, 16-Fe) :   0.2283 B(  3-Au,  5-Au) :   0.1658 B(  3-Au,  7-Au) :   0.2383 
B(  4-Au,  7-Au) :   0.1902 B(  4-Au,  8-Au) :   0.1436 B(  4-Au,  9-Au) :   0.1475 
B(  4-Au, 16-Fe) :   0.3902 B(  5-Au, 13-Au) :   0.2417 B(  6-Au,  9-Au) :   0.1752 
B(  6-Au, 11-Au) :   0.1430 B(  6-Au, 16-Fe) :   0.3344 B(  7-Au,  8-Au) :   0.2157 
B(  7-Au, 16-Fe) :   0.4483 B(  8-Au,  9-Au) :   0.1594 B(  8-Au, 12-Au) :   0.1429 
B(  8-Au, 14-Au) :   0.2166 B(  8-Au, 16-Fe) :   0.3423 B(  9-Au, 11-Au) :   0.1747 
B(  9-Au, 12-Au) :   0.1470 B(  9-Au, 16-Fe) :   0.3730 B( 10-Au, 11-Au) :   0.3142 
B( 10-Au, 12-Au) :   0.1629 B( 10-Au, 13-Au) :   0.2755 B( 10-Au, 14-Au) :   0.1118 
B( 10-Au, 15-Au) :   0.2666 B( 10-Au, 16-Fe) :   0.3476 B( 11-Au, 16-Fe) :   0.3342 
B( 12-Au, 14-Au) :   0.1882 B( 12-Au, 16-Fe) :   0.3917 B( 13-Au, 15-Au) :   0.1653 
B( 14-Au, 15-Au) :   0.2389 B( 14-Au, 16-Fe) :   0.4483 

-------
TIMINGS
-------

Total SCF time: 0 days 0 hours 8 min 49 sec 

Total time                  ....     529.143 sec
Sum of individual times     ....     527.228 sec  ( 99.6%)

Fock matrix formation       ....     513.634 sec  ( 97.1%)
  Split-RI-J                ....      29.577 sec  (  5.8% of F)
  Chain of spheres X        ....     423.708 sec  ( 82.5% of F)
  XC integration            ....      58.923 sec  ( 11.5% of F)
    Basis function eval.    ....       6.900 sec  ( 11.7% of XC)
    Density eval.           ....      30.227 sec  ( 51.3% of XC)
    XC-Functional eval.     ....       0.987 sec  (  1.7% of XC)
    XC-Potential eval.      ....      16.239 sec  ( 27.6% of XC)
Diagonalization             ....       6.804 sec  (  1.3%)
Density matrix formation    ....       0.421 sec  (  0.1%)
Population analysis         ....       0.193 sec  (  0.0%)
Initial guess               ....       0.291 sec  (  0.1%)
Orbital Transformation      ....       0.000 sec  (  0.0%)
Orbital Orthonormalization  ....       0.249 sec  (  0.0%)
DIIS solution               ....       2.874 sec  (  0.5%)
Grid generation             ....       3.012 sec  (  0.6%)

Maximum memory used throughout the entire SCF-calculation: 169.5 MB


           ************************************************************
           *        Program running with 6 parallel MPI-processes     *
           *              working on a common directory               *
           ************************************************************

------------------------------------------------------------------------------
                                ORCA  MP2 
------------------------------------------------------------------------------

Freezing NCore=10 chemical core electrons

   <<< Use J-auxbasis for calculation of Separable RI-J derivative contributions (Dim=1513) >>> 


-------------
RI-MP2 ENERGY
-------------
Dimension of the basis                    ...  685
Memory devoted to MP2                     ...  256 MB   
Data format for buffers                   ... DOUBLE
Compression type for matrix containers    ... UNCOMPRESSED
Overall scaling of the MP2 energy         ...   2.700e-01
Calculating two index integrals           ... done (    0.056 sec)
Cholesky decomposition of V**-1           ... done (    0.536 sec)

-----------------
RI-TRANSFORMATION (AUX index driven)
-----------------

Dimension of the orbital-basis         ... 685
Dimension of the aux-basis             ... 2598
Transformation of internal/external MOs...    5- 165 to  166- 684
Number Format for Storage              ... Double (8 Byte)
Integral mode                          ... Direct

First Phase: integral generation and transformation of MO indices
  Aux angular momentum 0               ... done (    0.298 sec)
  Aux angular momentum 1               ... done (    0.745 sec)
  Aux angular momentum 2               ... done (    1.071 sec)
  Aux angular momentum 3               ... done (    1.130 sec)
  Aux angular momentum 4               ... done (    0.901 sec)
  Aux angular momentum 5               ... done (    0.780 sec)
Closing buffer VIA ( 1.62 GB; CompressionRatio= 1.00)
  Phase 1 completed in     5.015 sec
Second Phase: sorting and transformation of aux index

IA-Transformation
Memory available                       ... 150 MB 
Max. # MO pairs treated in a batch     ... 13    
# of internal orbitals                 ... 161
# batches for internal orbitals        ... 3
Closing buffer IAV ( 1.62 GB; CompressionRatio= 1.00)
(ia|v) transformation done in     5.337 sec

  Phase 2 completed in     5.511 sec
RI-Integral transformation completed in    10.526 sec

-----------------
RI-TRANSFORMATION (AUX index driven)
-----------------

Dimension of the orbital-basis         ... 685
Dimension of the aux-basis             ... 2598
Transformation of internal/external MOs...    5- 163 to  164- 684
Number Format for Storage              ... Double (8 Byte)
Integral mode                          ... Direct

First Phase: integral generation and transformation of MO indices
  Aux angular momentum 0               ... done (    0.297 sec)
  Aux angular momentum 1               ... done (    0.740 sec)
  Aux angular momentum 2               ... done (    1.068 sec)
  Aux angular momentum 3               ... done (    1.136 sec)
  Aux angular momentum 4               ... done (    0.888 sec)
  Aux angular momentum 5               ... done (    0.787 sec)
Closing buffer VIA ( 1.60 GB; CompressionRatio= 1.00)
  Phase 1 completed in     5.003 sec
Second Phase: sorting and transformation of aux index

IA-Transformation
Memory available                       ... 150 MB 
Max. # MO pairs treated in a batch     ... 13    
# of internal orbitals                 ... 159
# batches for internal orbitals        ... 3
Closing buffer IAV ( 1.60 GB; CompressionRatio= 1.00)
(ia|v) transformation done in     5.876 sec

  Phase 2 completed in     6.024 sec
RI-Integral transformation completed in    11.027 sec
Opening buffers                              ... done

Starting loop over batches of integrals:

Operator 0  - window                       ... (  5-165)x(166-684)
Operator 0  - Memory available             ...   256 MB
Operator 0  - Memory needed per MO         ...  10.3 MB
Operator 0  - Number of orbitals per batch ... 15
Operator 0  - Number of batches            ... 2

OPERATOR  0   PASS   0:  MOs     5 ...   19 +   20 ...   34 +   35 ...   49 +   50 ...   64
                            +   65 ...   79 +   80 ...   94
  Reading integrals       ... ok
  Internal MO   7
  Internal MO  10
  Internal MO  13
  Internal MO  16
  Internal MO  19
OPERATOR  0   PASS   1:  MOs    95 ...  106 +  107 ...  118 +  119 ...  130 +  131 ...  142
                            +  143 ...  154 +  155 ...  165
  Reading integrals       ... ok
  Internal MO 157
  Internal MO 160
  Internal MO 163

Operator 1  - window                       ... (  5-163)x(164-684)
Operator 1  - Memory available             ...   256 MB
Operator 1  - Memory needed per MO         ...  10.3 MB
Operator 1  - Number of orbitals per batch ... 15
Operator 1  - Number of batches            ... 2

OPERATOR  1   PASS   0:  MOs     5 ...   19 +   20 ...   34 +   35 ...   49 +   50 ...   64
                            +   65 ...   79 +   80 ...   94
  Reading integrals       ... ok
  Internal MO   7
  Internal MO  10
  Internal MO  13
  Internal MO  16
  Internal MO  19
OPERATOR  1   PASS   1:  MOs    95 ...  106 +  107 ...  118 +  119 ...  130 +  131 ...  141
                            +  142 ...  152 +  153 ...  163
  Reading integrals       ... ok
  Internal MO 154
  Internal MO 157
  Internal MO 160
  Internal MO 163
Time spent in pair loops =   534.220 sec
Deleting buffer (Ka|jb)[aa] ...done
Deleting buffer (Ka|jb)[ba] ...done
Deleting buffer (Ka|jb)[ab] ...done
Deleting buffer (Ka|jb)[bb] ...done

Correlation energy components}
 E2 and T2 for alpha/alpha pairs :     -0.487438036 Eh      0.000000000
 E2 and T2 for beta/beta   pairs :     -0.485668258 Eh      0.000000000
 E2 and T2 for alpha/beta  pairs :     -1.641332081 Eh      0.000000000


-----------------------------------------------
 RI-MP2 CORRELATION ENERGY:     -2.614438375 Eh
-----------------------------------------------


-------
TIMINGS
-------

Total time                :  556.425 sec
Integral trafo            :   21.570 sec (  3.9%)
I/O of integrals          :    0.359 sec (  0.1%)
K(i,j) Operators          :  394.342 sec ( 70.9%)
T(i,j) pair energies      :   17.273 sec (  3.1%)
V-calculation             :    0.056 sec (  0.0%)
V**(-1/2)                 :    0.536 sec (  0.1%)
Gamma(ia|P)               :    0.000 sec (  0.0%)
Gamma-Trafo               :    0.000 sec (  0.0%)
D(virtual)                :    0.000 sec (  0.0%)
D(internal)               :    0.000 sec (  0.0%)
W(virtual)                :    0.000 sec (  0.0%)
W(internal)               :    0.000 sec (  0.0%)
L(virtual)                :    0.000 sec (  0.0%)
L(internal)               :    0.000 sec (  0.0%)
G(D)                      :    0.000 sec (  0.0%)
G(Z)                      :    0.000 sec (  0.0%)
Z-Vector Solution         :    0.000 sec (  0.0%)
3-Index Derivative        :    0.000 sec (  0.0%)
2-Index Derivative        :    0.000 sec (  0.0%)
Separable Gradient (RIJ)  :    0.000 sec (  0.0%)
Separable Gradient (COSX) :    0.000 sec (  0.0%)


---------------------------------------
MP2 TOTAL ENERGY:    -3432.941926754 Eh
---------------------------------------

Maximum memory used throughout the entire MP2-calculation: 299.1 MB

-------------------------   --------------------
FINAL SINGLE POINT ENERGY     -3432.941926754226
-------------------------   --------------------


                            ***************************************
                            *     ORCA property calculations      *
                            ***************************************


  WARNING: The energy has been calculated at the MP2 level but the densities
           used in the property calculations are still SCF densities
           MP2 response densities have not been calculated 
           use %mp2 Density relaxed end
           or  %mp2 Density unrelaxed end

                                    ---------------------
                                    Active property flags
                                    ---------------------
   (+) Dipole Moment


------------------------------------------------------------------------------
                       ORCA ELECTRIC PROPERTIES CALCULATION
------------------------------------------------------------------------------

Dipole Moment Calculation                       ... on
Quadrupole Moment Calculation                   ... off
Polarizability Calculation                      ... off
GBWName                                         ... b2plyp_job2.gbw
Electron density                                ... b2plyp_job2.scfp
The origin for moment calculation is the CENTER OF MASS  = (12.780058, 14.334324 14.326094)

-------------
DIPOLE MOMENT
-------------
                                X             Y             Z
Electronic contribution:      8.56863      -6.32812      24.80440
Nuclear contribution   :     -8.68665       6.44872     -25.16442
                        -----------------------------------------
Total Dipole Moment    :     -0.11802       0.12060      -0.36002
                        -----------------------------------------
Magnitude (a.u.)       :      0.39761
Magnitude (Debye)      :      1.01063



--------------------
Rotational spectrum 
--------------------
 
Rotational constants in cm-1:     0.000949     0.000833     0.000742 
Rotational constants in MHz :    28.443922    24.982853    22.258270 

 Dipole components along the rotational axes: 
x,y,z [a.u.] :    -0.395846     0.002160    -0.037303 
x,y,z [Debye]:    -1.006161     0.005490    -0.094816 

 

Timings for individual modules:

Sum of individual times         ...     1099.049 sec (=  18.317 min)
GTO integral calculation        ...       12.918 sec (=   0.215 min)   1.2 %
SCF iterations                  ...      529.303 sec (=   8.822 min)  48.2 %
MP2 module                      ...      556.829 sec (=   9.280 min)  50.7 %



                             ****ORCA TERMINATED NORMALLY****
TOTAL RUN TIME: 0 days 0 hours 41 minutes 26 seconds 969 msec
