
                                 *****************
                                 * O   R   C   A *
                                 *****************

                                            #,                                       
                                            ###                                      
                                            ####                                     
                                            #####                                    
                                            ######                                   
                                           ########,                                 
                                     ,,################,,,,,                         
                               ,,#################################,,                 
                          ,,##########################################,,             
                       ,#########################################, ''#####,          
                    ,#############################################,,   '####,        
                  ,##################################################,,,,####,       
                ,###########''''           ''''###############################       
              ,#####''   ,,,,##########,,,,          '''####'''          '####       
            ,##' ,,,,###########################,,,                        '##       
           ' ,,###''''                  '''############,,,                           
         ,,##''                                '''############,,,,        ,,,,,,###''
      ,#''                                            '''#######################'''  
     '                                                          ''''####''''         
             ,#######,   #######,   ,#######,      ##                                
            ,#'     '#,  ##    ##  ,#'     '#,    #''#        ######   ,####,        
            ##       ##  ##   ,#'  ##            #'  '#       #        #'  '#        
            ##       ##  #######   ##           ,######,      #####,   #    #        
            '#,     ,#'  ##    ##  '#,     ,#' ,#      #,         ##   #,  ,#        
             '#######'   ##     ##  '#######'  #'      '#     #####' # '####'        



                  #######################################################
                  #                        -***-                        #
                  #          Department of theory and spectroscopy      #
                  #    Directorship and core code : Frank Neese         #
                  #        Max Planck Institute fuer Kohlenforschung    #
                  #                Kaiser Wilhelm Platz 1               #
                  #                 D-45470 Muelheim/Ruhr               #
                  #                      Germany                        #
                  #                                                     #
                  #                  All rights reserved                #
                  #                        -***-                        #
                  #######################################################


                         Program Version 5.0.3 -  RELEASE  -


 With contributions from (in alphabetic order):
   Daniel Aravena         : Magnetic Suceptibility
   Michael Atanasov       : Ab Initio Ligand Field Theory (pilot matlab implementation)
   Alexander A. Auer      : GIAO ZORA, VPT2 properties, NMR spectrum
   Ute Becker             : Parallelization
   Giovanni Bistoni       : ED, misc. LED, open-shell LED, HFLD
   Martin Brehm           : Molecular dynamics
   Dmytro Bykov           : SCF Hessian
   Vijay G. Chilkuri      : MRCI spin determinant printing, contributions to CSF-ICE
   Dipayan Datta          : RHF DLPNO-CCSD density
   Achintya Kumar Dutta   : EOM-CC, STEOM-CC
   Dmitry Ganyushin       : Spin-Orbit,Spin-Spin,Magnetic field MRCI
   Miquel Garcia          : C-PCM and meta-GGA Hessian, CC/C-PCM, Gaussian charge scheme
   Yang Guo               : DLPNO-NEVPT2, F12-NEVPT2, CIM, IAO-localization
   Andreas Hansen         : Spin unrestricted coupled pair/coupled cluster methods
   Benjamin Helmich-Paris : MC-RPA, TRAH-SCF, COSX integrals
   Lee Huntington         : MR-EOM, pCC
   Robert Izsak           : Overlap fitted RIJCOSX, COSX-SCS-MP3, EOM
   Marcus Kettner         : VPT2
   Christian Kollmar      : KDIIS, OOCD, Brueckner-CCSD(T), CCSD density, CASPT2, CASPT2-K
   Simone Kossmann        : Meta GGA functionals, TD-DFT gradient, OOMP2, MP2 Hessian
   Martin Krupicka        : Initial AUTO-CI
   Lucas Lang             : DCDCAS
   Marvin Lechner         : AUTO-CI (C++ implementation), FIC-MRCC
   Dagmar Lenk            : GEPOL surface, SMD
   Dimitrios Liakos       : Extrapolation schemes; Compound Job, initial MDCI parallelization
   Dimitrios Manganas     : Further ROCIS development; embedding schemes
   Dimitrios Pantazis     : SARC Basis sets
   Anastasios Papadopoulos: AUTO-CI, single reference methods and gradients
   Taras Petrenko         : DFT Hessian,TD-DFT gradient, ASA, ECA, R-Raman, ABS, FL, XAS/XES, NRVS
   Peter Pinski           : DLPNO-MP2, DLPNO-MP2 Gradient
   Christoph Reimann      : Effective Core Potentials
   Marius Retegan         : Local ZFS, SOC
   Christoph Riplinger    : Optimizer, TS searches, QM/MM, DLPNO-CCSD(T), (RO)-DLPNO pert. Triples
   Tobias Risthaus        : Range-separated hybrids, TD-DFT gradient, RPA, STAB
   Michael Roemelt        : Original ROCIS implementation
   Masaaki Saitow         : Open-shell DLPNO-CCSD energy and density
   Barbara Sandhoefer     : DKH picture change effects
   Avijit Sen             : IP-ROCIS
   Kantharuban Sivalingam : CASSCF convergence, NEVPT2, FIC-MRCI
   Bernardo de Souza      : ESD, SOC TD-DFT
   Georgi Stoychev        : AutoAux, RI-MP2 NMR, DLPNO-MP2 response
   Willem Van den Heuvel  : Paramagnetic NMR
   Boris Wezisla          : Elementary symmetry handling
   Frank Wennmohs         : Technical directorship


 We gratefully acknowledge several colleagues who have allowed us to
 interface, adapt or use parts of their codes:
   Stefan Grimme, W. Hujo, H. Kruse, P. Pracht,  : VdW corrections, initial TS optimization,
                  C. Bannwarth, S. Ehlert          DFT functionals, gCP, sTDA/sTD-DF
   Ed Valeev, F. Pavosevic, A. Kumar             : LibInt (2-el integral package), F12 methods
   Garnet Chan, S. Sharma, J. Yang, R. Olivares  : DMRG
   Ulf Ekstrom                                   : XCFun DFT Library
   Mihaly Kallay                                 : mrcc  (arbitrary order and MRCC methods)
   Jiri Pittner, Ondrej Demel                    : Mk-CCSD
   Frank Weinhold                                : gennbo (NPA and NBO analysis)
   Christopher J. Cramer and Donald G. Truhlar   : smd solvation model
   Lars Goerigk                                  : TD-DFT with DH, B97 family of functionals
   V. Asgeirsson, H. Jonsson                     : NEB implementation
   FAccTs GmbH                                   : IRC, NEB, NEB-TS, DLPNO-Multilevel, CI-OPT
                                                   MM, QMMM, 2- and 3-layer-ONIOM, Crystal-QMMM,
                                                   LR-CPCM, SF, NACMEs, symmetry and pop. for TD-DFT,
                                                   nearIR, NL-DFT gradient (VV10), updates on ESD,
                                                   ML-optimized integration grids
   S Lehtola, MJT Oliveira, MAL Marques          : LibXC Library
   Liviu Ungur et al                             : ANISO software


 Your calculation uses the libint2 library for the computation of 2-el integrals
 For citations please refer to: http://libint.valeyev.net

 Your ORCA version has been built with support for libXC version: 5.1.0
 For citations please refer to: https://tddft.org/programs/libxc/

 This ORCA versions uses:
   CBLAS   interface :  Fast vector & matrix operations
   LAPACKE interface :  Fast linear algebra routines
   SCALAPACK package :  Parallel linear algebra routines
   Shared memory     :  Shared parallel matrices
   BLAS/LAPACK       :  OpenBLAS 0.3.15  USE64BITINT DYNAMIC_ARCH NO_AFFINITY Sandybridge SINGLE_THREADED
        Core in use  :  Sandybridge
   Copyright (c) 2011-2014, The OpenBLAS Project




***************************************
The coordinates will be read from file: 4.xyz
***************************************


================================================================================

cite the ECPs for Au [Def2-ECP] as follows:
Ce-Yb(ecp-28): M. Dolg, H. Stoll, H.Preuss, J. Chem. Phys., 1989, 90, 1730-1734.
Y-Cd(ecp-28), Hf-Hg(ecp-46): D. Andrae,U. Haeussermann, M. Dolg, H. Stoll, H. Preuss, Theor. Chim. Acta, 1990, 77, 123-141.
In-Sb(ecp-28), Tl-Bi(ecp-46): B. Metz, H. Stoll, M. Dolg, J. Chem. Phys., 2000, 113, 2563-2569.
Te-Xe(ecp-28), Po-Rn(ecp-46): K. A. Peterson, D. Figgen, E. Goll, H. Stoll, M. Dolg, J. Chem. Phys., 2003, 119, 11113-11123.
Rb(ecp-28), Cs(ecp-46): T. Leininger, A. Nicklass, W. Kuechle, H. Stoll, M. Dolg, A. Bergner, Chem. Phys. Lett., 1996, 255, 274-280.
Sr(ecp-28), Ba(ecp-46): M. Kaupp, P. V. Schleyer, H. Stoll and H. Preuss, J. Chem. Phys., 1991, 94, 1360-1366.
La(ecp-46): M. Dolg, H. Stoll, A. Savin, H. Preuss, Theor. Chim. Acta, 1989, 75, 173-194.
Lu(ecp-28): X. Cao, M. Dolg, J. Chem. Phys., 2001, 115, 7348-7355.

ECP parameters for Au [Def2-ECP] have been obtained from:
TURBOMOLE (7.0.2)

----- Orbital basis set information -----
Your calculation utilizes the basis: def2-TZVP
   F. Weigend and R. Ahlrichs, Phys. Chem. Chem. Phys. 7, 3297 (2005).

----- AuxJ basis set information -----
Your calculation utilizes the auxiliary basis: def2/J
   F. Weigend, Phys. Chem. Chem. Phys. 8, 1057 (2006).

================================================================================
                                        WARNINGS
                       Please study these warnings very carefully!
================================================================================


WARNING: your system is open-shell and RHF/RKS was chosen
  ===> : WILL SWITCH to UHF/UKS


WARNING: Geometry Optimization
  ===> : Switching off AutoStart
         For restart on a previous wavefunction, please use MOREAD

INFO   : the flag for use of the SHARK integral package has been found!

================================================================================
                                       INPUT FILE
================================================================================
NAME = pbe.inp
|  1> %pal nprocs 1 end 
|  2> 
|  3> !PBE def2-TZVP OPT UNO
|  4> !SLOWCONV KDIIS 
|  5> 
|  6> %geom maxiter 300 end
|  7> 
|  8> *xyzfile 0 4 4.xyz                           ****END OF INPUT****
================================================================================

                       *****************************
                       * Geometry Optimization Run *
                       *****************************

Geometry optimization settings:
Update method            Update   .... BFGS
Choice of coordinates    CoordSys .... Z-matrix Internals
Initial Hessian          InHess   .... Almoef's Model

Convergence Tolerances:
Energy Change            TolE     ....  5.0000e-06 Eh
Max. Gradient            TolMAXG  ....  3.0000e-04 Eh/bohr
RMS Gradient             TolRMSG  ....  1.0000e-04 Eh/bohr
Max. Displacement        TolMAXD  ....  4.0000e-03 bohr
RMS Displacement         TolRMSD  ....  2.0000e-03 bohr
Strict Convergence                ....  False
------------------------------------------------------------------------------
                        ORCA OPTIMIZATION COORDINATE SETUP
------------------------------------------------------------------------------

The optimization will be done in new redundant internal coordinates
Making redundant internal coordinates   ...  (new redundants) done
Evaluating the initial hessian          ...  (Almloef) done
Evaluating the coordinates              ...  done
Calculating the B-matrix                .... done
Calculating the G-matrix                .... done
Diagonalizing the G-matrix              .... done
The first mode is                       ....  706
The number of degrees of freedom        ....   45

    -----------------------------------------------------------------
                    Redundant Internal Coordinates


    -----------------------------------------------------------------
         Definition                    Initial Value    Approx d2E/dq
    -----------------------------------------------------------------
      1. B(Au  2,Au  0)                  2.8229         0.006264   
      2. B(Au  3,Au  2)                  2.8058         0.006669   
      3. B(Au  3,Au  0)                  2.9404         0.004067   
      4. B(Au  3,Au  1)                  2.8965         0.004779   
      5. B(Au  4,Au  3)                  2.8449         0.005777   
      6. B(Au  5,Au  1)                  2.7876         0.007132   
      7. B(Au  5,Au  4)                  2.8279         0.006150   
      8. B(Au  5,Au  3)                  2.8233         0.006255   
      9. B(Au  7,Au  5)                  2.8461         0.005751   
     10. B(Au  8,Au  0)                  2.8550         0.005567   
     11. B(Au  8,Au  2)                  2.8303         0.006096   
     12. B(Au  9,Au  8)                  2.9017         0.004688   
     13. B(Au  9,Au  6)                  2.8526         0.005615   
     14. B(Au 10,Au  8)                  2.8083         0.006609   
     15. B(Au 10,Au  9)                  2.7807         0.007313   
     16. B(Au 11,Au  8)                  2.8330         0.006035   
     17. B(Au 11,Au  9)                  2.8953         0.004802   
     18. B(Au 12,Au  4)                  2.7678         0.007669   
     19. B(Au 12,Au 10)                  2.8137         0.006479   
     20. B(Au 12,Au  8)                  2.9302         0.004223   
     21. B(Au 12,Au  2)                  2.7944         0.006955   
     22. B(Au 12,Au  3)                  2.9112         0.004529   
     23. B(Au 13,Au  4)                  2.8643         0.005380   
     24. B(Au 13,Au 12)                  2.8239         0.006240   
     25. B(Au 13,Au  9)                  3.0111         0.003137   
     26. B(Au 13,Au 10)                  2.7817         0.007288   
     27. B(Au 14,Au  4)                  2.8413         0.005854   
     28. B(Au 14,Au 13)                  2.8061         0.006662   
     29. B(Au 14,Au  7)                  2.9044         0.004643   
     30. B(Au 14,Au  5)                  2.8009         0.006790   
     31. B(Au 15,Au 13)                  2.8053         0.006681   
     32. B(Au 15,Au 14)                  2.7608         0.007868   
     33. B(Au 15,Au  7)                  3.0323         0.002902   
     34. B(Au 15,Au  9)                  2.8228         0.006266   
     35. B(Au 15,Au  6)                  2.8088         0.006596   
     36. B(Mn 16,Au  6)                  2.4386         0.186838   
     37. B(Mn 16,Au 11)                  2.4793         0.160897   
     38. B(Mn 16,Au  7)                  2.4770         0.162259   
     39. B(Mn 16,Au  1)                  2.4313         0.191938   
     40. B(Mn 16,Au  0)                  2.5162         0.140503   
     41. A(Au  2,Au  0,Mn 16)          138.3641         0.196261   
     42. A(Au  8,Au  0,Mn 16)           95.2332         0.193436   
     43. A(Au  2,Au  0,Au  8)           59.7952         0.135057   
     44. A(Au  3,Au  0,Au  8)           90.4394         0.130769   
     45. A(Au  2,Au  0,Au  3)           58.2239         0.131899   
     46. A(Au  3,Au  0,Mn 16)           92.4119         0.186274   
     47. A(Au  3,Au  1,Au  5)           59.5266         0.134820   
     48. A(Au  3,Au  1,Mn 16)           95.2919         0.197271   
     49. A(Au  5,Au  1,Mn 16)           97.7563         0.207539   
     50. A(Au  8,Au  2,Au 12)           62.7881         0.137140   
     51. A(Au  0,Au  2,Au 12)           94.1823         0.137437   
     52. A(Au  3,Au  2,Au  8)           93.7640         0.136685   
     53. A(Au  3,Au  2,Au 12)           62.6410         0.138129   
     54. A(Au  0,Au  2,Au  3)           62.9855         0.136979   
     55. A(Au  0,Au  2,Au  8)           60.6658         0.136013   
     56. A(Au  0,Au  3,Au  4)          129.4044         0.131120   
     57. A(Au  2,Au  3,Au  5)          159.0000         0.136963   
     58. A(Au  0,Au  3,Au  2)           58.7907         0.132512   
     59. A(Au  1,Au  3,Au  2)          114.7085         0.134129   
     60. A(Au  2,Au  3,Au  4)          114.8670         0.136108   
     61. A(Au  0,Au  3,Au 12)           89.3543         0.128863   
     62. A(Au  4,Au  3,Au  5)           59.8537         0.135430   
     63. A(Au  1,Au  3,Au  5)           58.3166         0.133479   
     64. A(Au  0,Au  3,Au  1)           57.3481         0.129351   
     65. A(Au  1,Au  3,Au  4)          114.5263         0.132686   
     66. A(Au  4,Au  3,Au 12)           57.4677         0.132158   
     67. A(Au  1,Au  3,Au 12)          130.7925         0.130345   
     68. A(Au  0,Au  3,Au  5)          107.2111         0.131885   
     69. A(Au  5,Au  3,Au 12)          109.2102         0.132942   
     70. A(Au  2,Au  3,Au 12)           58.4874         0.133584   
     71. A(Au 12,Au  4,Au 13)           60.1563         0.136844   
     72. A(Au 13,Au  4,Au 14)           58.9186         0.134008   
     73. A(Au  3,Au  4,Au 14)          106.7100         0.134739   
     74. A(Au  5,Au  4,Au 13)          102.8370         0.134512   
     75. A(Au 12,Au  4,Au 14)          113.1686         0.137769   
     76. A(Au  3,Au  4,Au  5)           59.6930         0.135252   
     77. A(Au  3,Au  4,Au 12)           62.4686         0.137622   
     78. A(Au  3,Au  4,Au 13)          101.6749         0.133872   
     79. A(Au  5,Au  4,Au 14)           59.2155         0.135392   
     80. A(Au  5,Au  4,Au 12)          113.3193         0.138315   
     81. A(Au  7,Au  5,Au 14)           61.8977         0.136252   
     82. A(Au  1,Au  5,Au  3)           62.1568         0.137698   
     83. A(Au  1,Au  5,Au  7)           67.9872         0.136780   
     84. A(Au  3,Au  5,Au 14)          108.4247         0.137159   
     85. A(Au  3,Au  5,Au  7)          105.8873         0.135382   
     86. A(Au  4,Au  5,Au 14)           60.6305         0.136975   
     87. A(Au  1,Au  5,Au  4)          118.6431         0.137511   
     88. A(Au  4,Au  5,Au  7)          109.3194         0.135205   
     89. A(Au  1,Au  5,Au 14)          123.5275         0.138611   
     90. A(Au  3,Au  5,Au  4)           60.4532         0.136092   
     91. A(Au 15,Au  6,Mn 16)          102.0568         0.204755   
     92. A(Au  9,Au  6,Au 15)           59.8083         0.135691   
     93. A(Au  9,Au  6,Mn 16)           88.5662         0.200613   
     94. A(Au  5,Au  7,Mn 16)           95.1876         0.197692   
     95. A(Au 14,Au  7,Au 15)           55.3757         0.126140   
     96. A(Au  5,Au  7,Au 15)          108.1943         0.127983   
     97. A(Au 15,Au  7,Mn 16)           95.2226         0.182106   
     98. A(Au  5,Au  7,Au 14)           58.2863         0.132357   
     99. A(Au 14,Au  7,Mn 16)          119.9819         0.192552   
    100. A(Au  2,Au  8,Au 10)          111.9123         0.136587   
    101. A(Au  2,Au  8,Au 12)           58.0071         0.132001   
    102. A(Au  2,Au  8,Au  9)          140.5012         0.133030   
    103. A(Au  0,Au  8,Au  2)           59.5390         0.134775   
    104. A(Au  9,Au  8,Au 12)           90.4475         0.129520   
    105. A(Au  2,Au  8,Au 11)          119.2933         0.135619   
    106. A(Au 11,Au  8,Au 12)          129.1765         0.131903   
    107. A(Au 10,Au  8,Au 12)           58.6776         0.132794   
    108. A(Au  0,Au  8,Au 12)           90.6543         0.131126   
    109. A(Au 10,Au  8,Au 11)          118.4107         0.136479   
    110. A(Au  9,Au  8,Au 11)           60.6302         0.132930   
    111. A(Au  0,Au  8,Au 11)           60.2048         0.134671   
    112. A(Au  9,Au  8,Au 10)           58.2587         0.133842   
    113. A(Au  0,Au  8,Au 10)          140.4974         0.135619   
    114. A(Au  0,Au  8,Au  9)          102.0365         0.132134   
    115. A(Au  8,Au  9,Au 15)          132.3558         0.133306   
    116. A(Au  8,Au  9,Au 13)           88.0608         0.126884   
    117. A(Au  8,Au  9,Au 11)           58.5108         0.130714   
    118. A(Au  8,Au  9,Au 10)           59.1885         0.134881   
    119. A(Au  6,Au  9,Au  8)          111.0103         0.132219   
    120. A(Au 13,Au  9,Au 15)           57.3756         0.129455   
    121. A(Au 11,Au  9,Au 15)          114.1475         0.133545   
    122. A(Au 10,Au  9,Au 15)          112.1310         0.137995   
    123. A(Au  6,Au  9,Au 15)           59.3247         0.135152   
    124. A(Au 11,Au  9,Au 13)          126.2936         0.127089   
    125. A(Au 10,Au  9,Au 13)           57.2408         0.130893   
    126. A(Au  6,Au  9,Au 13)          107.0603         0.128462   
    127. A(Au 10,Au  9,Au 11)          117.2319         0.135129   
    128. A(Au  6,Au  9,Au 11)           59.0163         0.132452   
    129. A(Au  6,Au  9,Au 10)          159.5156         0.136793   
    130. A(Au  8,Au 10,Au 12)           62.8254         0.137248   
    131. A(Au  9,Au 10,Au 12)           95.4616         0.138366   
    132. A(Au 12,Au 10,Au 13)           60.6184         0.138327   
    133. A(Au  9,Au 10,Au 13)           65.5482         0.139698   
    134. A(Au  8,Au 10,Au  9)           62.5527         0.138588   
    135. A(Au  8,Au 10,Au 13)           94.6671         0.138550   
    136. A(Au  9,Au 11,Mn 16)           86.8329         0.193144   
    137. A(Au  8,Au 11,Au  9)           60.8590         0.133167   
    138. A(Au  8,Au 11,Mn 16)           96.6211         0.198675   
    139. A(Au  2,Au 12,Au  4)          117.7827         0.139707   
    140. A(Au  3,Au 12,Au 13)          101.0321         0.132918   
    141. A(Au  2,Au 12,Au 13)          141.6866         0.137395   
    142. A(Au  2,Au 12,Au 10)          112.8396         0.137808   
    143. A(Au  2,Au 12,Au  8)           59.2048         0.133303   
    144. A(Au  4,Au 12,Au 13)           61.6165         0.138477   
    145. A(Au  4,Au 12,Au 10)          120.2235         0.138900   
    146. A(Au  4,Au 12,Au  8)          130.4977         0.134294   
    147. A(Au 10,Au 12,Au 13)           59.1298         0.136624   
    148. A(Au  8,Au 12,Au 13)           91.1595         0.132228   
    149. A(Au  8,Au 12,Au 10)           58.4971         0.132598   
    150. A(Au  2,Au 12,Au  3)           58.8716         0.134009   
    151. A(Au  3,Au 12,Au  4)           60.0637         0.135016   
    152. A(Au  3,Au 12,Au 10)          139.1440         0.133293   
    153. A(Au  3,Au 12,Au  8)           89.5468         0.129204   
    154. A(Au  4,Au 13,Au 12)           58.2272         0.134662   
    155. A(Au  4,Au 13,Au  9)          128.7452         0.128082   
    156. A(Au  4,Au 13,Au 10)          117.9791         0.136295   
    157. A(Au  4,Au 13,Au 15)          114.9918         0.135374   
    158. A(Au  4,Au 13,Au 14)           60.1315         0.135344   
    159. A(Au  9,Au 13,Au 10)           57.2111         0.130861   
    160. A(Au  9,Au 13,Au 15)           57.9361         0.130045   
    161. A(Au  9,Au 13,Au 14)          108.3975         0.130019   
    162. A(Au  9,Au 13,Au 12)           90.3287         0.129416   
    163. A(Au 10,Au 13,Au 12)           60.2518         0.137910   
    164. A(Au 12,Au 13,Au 15)          134.7041         0.136957   
    165. A(Au 12,Au 13,Au 14)          112.5307         0.136926   
    166. A(Au 10,Au 13,Au 15)          112.6373         0.138672   
    167. A(Au 10,Au 13,Au 14)          161.7524         0.138640   
    168. A(Au 14,Au 13,Au 15)           58.9442         0.137673   
    169. A(Au 13,Au 14,Au 15)           60.5140         0.139508   
    170. A(Au  7,Au 14,Au 13)          101.0321         0.133825   
    171. A(Au  5,Au 14,Au 13)          105.0471         0.137851   
    172. A(Au  4,Au 14,Au 13)           60.9499         0.136240   
    173. A(Au  4,Au 14,Au 15)          117.1899         0.138052   
    174. A(Au  4,Au 14,Au  7)          107.3238         0.132533   
    175. A(Au  4,Au 14,Au  5)           60.1540         0.136443   
    176. A(Au  7,Au 14,Au 15)           64.6632         0.135544   
    177. A(Au  5,Au 14,Au 15)          117.8180         0.139725   
    178. A(Au  5,Au 14,Au  7)           59.8160         0.134018   
    179. A(Au  6,Au 15,Au 13)          114.2987         0.137563   
    180. A(Au  7,Au 15,Au 14)           59.9611         0.130849   
    181. A(Au  9,Au 15,Au 13)           64.6882         0.137003   
    182. A(Au  9,Au 15,Au 14)          115.3942         0.138813   
    183. A(Au  6,Au 15,Au 14)          116.4555         0.139394   
    184. A(Au  7,Au 15,Au  9)           98.4146         0.128748   
    185. A(Au  6,Au 15,Au  9)           60.8671         0.136865   
    186. A(Au  6,Au 15,Au  7)           58.6451         0.129212   
    187. A(Au 13,Au 15,Au 14)           60.5418         0.139540   
    188. A(Au  7,Au 15,Au 13)           97.9878         0.129328   
    189. A(Au  0,Mn 16,Au 11)           69.6479         0.339794   
    190. A(Au  6,Mn 16,Au  7)           71.3579         0.357016   
    191. A(Au  1,Mn 16,Au  6)          150.9598         0.367402   
    192. A(Au  7,Mn 16,Au 11)          137.2960         0.348100   
    193. A(Au  1,Mn 16,Au  7)           79.8478         0.358655   
    194. A(Au  6,Mn 16,Au 11)           70.2951         0.356505   
    195. A(Au  1,Mn 16,Au 11)          137.9695         0.358141   
    196. A(Au  0,Mn 16,Au  7)          134.3505         0.340272   
    197. A(Au  0,Mn 16,Au  6)          136.0409         0.348423   
    198. A(Au  0,Mn 16,Au  1)           68.9393         0.350010   
    199. D(Au  3,Au  2,Au  0,Au  8)   -111.7795         0.001501   
    200. D(Au 12,Au  2,Au  0,Au  3)     56.3232         0.001501   
    201. D(Au  3,Au  2,Au  0,Mn 16)    -51.5145         0.001501   
    202. D(Au 12,Au  2,Au  0,Mn 16)      4.8086         0.001501   
    203. D(Au 12,Au  2,Au  0,Au  8)    -55.4563         0.001501   
    204. D(Au  8,Au  2,Au  0,Mn 16)     60.2650         0.001501   
    205. D(Au  8,Au  2,Au  0,Au  3)    111.7795         0.001501   
    206. D(Au  5,Au  3,Au  2,Au  0)     52.2007         0.001502   
    207. D(Au 12,Au  3,Au  2,Au  0)    110.8540         0.001502   
    208. D(Au 12,Au  3,Au  0,Mn 16)     95.8137         0.001501   
    209. D(Au  0,Au  3,Au  2,Au  8)    -54.2230         0.001502   
    210. D(Au  1,Au  3,Au  0,Au  8)   -140.9993         0.001501   
    211. D(Au  2,Au  3,Au  1,Au  5)    157.4664         0.001501   
    212. D(Au  5,Au  3,Au  2,Au 12)    -58.6534         0.001502   
    213. D(Au  4,Au  3,Au  0,Au  8)    -44.5902         0.001501   
    214. D(Au  5,Au  3,Au  0,Mn 16)    -14.1235         0.001501   
    215. D(Au  4,Au  3,Au  0,Au  2)    -97.9660         0.001501   
    216. D(Au  4,Au  3,Au  2,Au 12)     11.6423         0.001502   
    217. D(Au  4,Au  3,Au  1,Au  5)     21.5151         0.001501   
    218. D(Au  4,Au  3,Au  2,Au  8)     68.2734         0.001502   
    219. D(Au  4,Au  3,Au  2,Au  0)    122.4964         0.001502   
    220. D(Au  1,Au  3,Au  0,Mn 16)    -45.7427         0.001501   
    221. D(Au  1,Au  3,Au  0,Au  2)    165.6249         0.001501   
    222. D(Au  0,Au  3,Au  1,Au  5)    143.9491         0.001501   
    223. D(Au  0,Au  3,Au  1,Mn 16)     48.0511         0.001501   
    224. D(Au  4,Au  3,Au  1,Mn 16)    -74.3829         0.001501   
    225. D(Au  2,Au  3,Au  1,Mn 16)     61.5684         0.001501   
    226. D(Au  2,Au  3,Au  0,Mn 16)    148.6324         0.001501   
    227. D(Au 12,Au  3,Au  1,Au  5)     88.7453         0.001501   
    228. D(Au  2,Au  3,Au  0,Au  8)     53.3759         0.001501   
    229. D(Au  0,Au  3,Au  2,Au 12)   -110.8540         0.001502   
    230. D(Au 12,Au  3,Au  0,Au  2)    -52.8187         0.001501   
    231. D(Au 12,Au  3,Au  2,Au  8)     56.6310         0.001502   
    232. D(Au  5,Au  3,Au  0,Au  8)   -109.3800         0.001501   
    233. D(Au 12,Au  3,Au  1,Mn 16)     -7.1527         0.001501   
    234. D(Au 12,Au  3,Au  0,Au  8)      0.5571         0.001501   
    235. D(Au  5,Au  3,Au  1,Mn 16)    -95.8980         0.001501   
    236. D(Au  4,Au  3,Au  0,Mn 16)     50.6664         0.001501   
    237. D(Au  1,Au  3,Au  2,Au  8)    -67.5260         0.001502   
    238. D(Au  1,Au  3,Au  2,Au 12)   -124.1570         0.001502   
    239. D(Au  1,Au  3,Au  2,Au  0)    -13.3030         0.001502   
    240. D(Au  5,Au  3,Au  0,Au  2)   -162.7559         0.001501   
    241. D(Au  5,Au  3,Au  2,Au  8)     -2.0223         0.001502   
    242. D(Au 14,Au  4,Au  3,Au  1)     16.2420         0.001501   
    243. D(Au 14,Au  4,Au  3,Au 12)   -107.8639         0.001501   
    244. D(Au 14,Au  4,Au  3,Au  2)   -119.6384         0.001501   
    245. D(Au 12,Au  4,Au  3,Au  1)    124.1059         0.001501   
    246. D(Au 13,Au  4,Au  3,Au  0)     10.1283         0.001501   
    247. D(Au 14,Au  4,Au  3,Au  5)     37.3975         0.001501   
    248. D(Au 13,Au  4,Au  3,Au 12)    -47.0975         0.001501   
    249. D(Au 12,Au  4,Au  3,Au  5)    145.2614         0.001501   
    250. D(Au 12,Au  4,Au  3,Au  0)     57.2258         0.001501   
    251. D(Au  5,Au  4,Au  3,Au  2)   -157.0359         0.001501   
    252. D(Au 13,Au  4,Au  3,Au  1)     77.0083         0.001501   
    253. D(Au  5,Au  4,Au  3,Au  1)    -21.1555         0.001501   
    254. D(Au 13,Au  4,Au  3,Au  2)    -58.8720         0.001501   
    255. D(Au  5,Au  4,Au  3,Au  0)    -88.0356         0.001501   
    256. D(Au 13,Au  4,Au  3,Au  5)     98.1639         0.001501   
    257. D(Au 14,Au  4,Au  3,Au  0)    -50.6381         0.001501   
    258. D(Au 12,Au  4,Au  3,Au  2)    -11.7745         0.001501   
    259. D(Au  5,Au  4,Au  3,Au 12)   -145.2614         0.001501   
    260. D(Au 14,Au  5,Au  4,Au  3)    137.3827         0.001501   
    261. D(Au  7,Au  5,Au  1,Mn 16)    -31.5978         0.001502   
    262. D(Au 14,Au  5,Au  1,Mn 16)     -2.9237         0.001502   
    263. D(Au  7,Au  5,Au  1,Au  3)   -123.1940         0.001502   
    264. D(Au 14,Au  5,Au  4,Au 13)     41.2284         0.001501   
    265. D(Au  3,Au  5,Au  4,Au 13)    -96.1542         0.001501   
    266. D(Au  3,Au  5,Au  4,Au 14)   -137.3827         0.001501   
    267. D(Au  1,Au  5,Au  3,Au 12)   -126.7235         0.001502   
    268. D(Au  4,Au  5,Au  3,Au  1)    157.3040         0.001502   
    269. D(Au  3,Au  5,Au  4,Au 12)    -33.3843         0.001501   
    270. D(Au 14,Au  5,Au  3,Au  0)     87.5979         0.001502   
    271. D(Au 14,Au  5,Au  3,Au  1)    118.8449         0.001502   
    272. D(Au  7,Au  5,Au  4,Au  3)     97.7424         0.001501   
    273. D(Au  7,Au  5,Au  4,Au 14)    -39.6403         0.001501   
    274. D(Au  1,Au  5,Au  4,Au 14)   -114.5061         0.001501   
    275. D(Au  7,Au  5,Au  4,Au 12)     64.3581         0.001501   
    276. D(Au 14,Au  5,Au  3,Au 12)     -7.8787         0.001502   
    277. D(Au  4,Au  5,Au  3,Au 12)     30.5805         0.001502   
    278. D(Au  1,Au  5,Au  4,Au 13)    -73.2777         0.001501   
    279. D(Au  1,Au  5,Au  4,Au 12)    -10.5078         0.001501   
    280. D(Au 14,Au  5,Au  3,Au  2)     42.5668         0.001502   
    281. D(Au  3,Au  5,Au  1,Mn 16)     91.5962         0.001502   
    282. D(Au  1,Au  5,Au  3,Au  0)    -31.2470         0.001502   
    283. D(Au  7,Au  5,Au  4,Au 13)      1.5881         0.001501   
    284. D(Au  4,Au  5,Au  3,Au  2)     81.0259         0.001502   
    285. D(Au  7,Au  5,Au  3,Au 12)    -72.9556         0.001502   
    286. D(Au  7,Au  5,Au  3,Au  1)     53.7679         0.001502   
    287. D(Au  1,Au  5,Au  4,Au  3)     22.8765         0.001501   
    288. D(Au 14,Au  5,Au  3,Au  4)    -38.4591         0.001502   
    289. D(Au  7,Au  5,Au  3,Au  2)    -22.5101         0.001502   
    290. D(Au  7,Au  5,Au  3,Au  0)     22.5210         0.001502   
    291. D(Au  4,Au  5,Au  1,Mn 16)     69.1094         0.001502   
    292. D(Au  4,Au  5,Au  3,Au  0)    126.0570         0.001502   
    293. D(Au  1,Au  5,Au  3,Au  4)   -157.3040         0.001502   
    294. D(Au  1,Au  5,Au  3,Au  2)    -76.2781         0.001502   
    295. D(Au 14,Au  5,Au  1,Au  3)    -94.5199         0.001502   
    296. D(Au  4,Au  5,Au  1,Au  3)    -22.4868         0.001502   
    297. D(Au  7,Au  5,Au  3,Au  4)   -103.5361         0.001502   
    298. D(Au 14,Au  5,Au  4,Au 12)    103.9983         0.001501   
    299. D(Au 15,Au  7,Au  5,Au  3)     77.7230         0.001501   
    300. D(Au 15,Au  7,Au  5,Au  4)     14.0525         0.001501   
    301. D(Au 15,Au  7,Au  5,Au 14)    -25.0179         0.001501   
    302. D(Au 15,Au  7,Au  5,Au  1)    128.0167         0.001501   
    303. D(Au 14,Au  7,Au  5,Au  3)    102.7409         0.001501   
    304. D(Au 14,Au  7,Au  5,Au  4)     39.0705         0.001501   
    305. D(Mn 16,Au  7,Au  5,Au  4)    -83.1889         0.001501   
    306. D(Mn 16,Au  7,Au  5,Au  3)    -19.5184         0.001501   
    307. D(Mn 16,Au  7,Au  5,Au 14)   -122.2594         0.001501   
    308. D(Mn 16,Au  7,Au  5,Au  1)     30.7752         0.001501   
    309. D(Au 14,Au  7,Au  5,Au  1)    153.0346         0.001501   
    310. D(Au  0,Au  8,Au  2,Au 12)    112.5210         0.001501   
    311. D(Au  9,Au  8,Au  0,Au  3)     90.0436         0.001501   
    312. D(Au 10,Au  8,Au  0,Mn 16)    -56.4754         0.001501   
    313. D(Au 12,Au  8,Au  0,Au  2)     51.5809         0.001501   
    314. D(Au 10,Au  8,Au  0,Au  2)     88.1214         0.001501   
    315. D(Au 11,Au  8,Au  0,Au  2)   -172.2448         0.001501   
    316. D(Au 12,Au  8,Au  0,Mn 16)    -93.0159         0.001501   
    317. D(Au 11,Au  8,Au  0,Au  3)    135.6207         0.001501   
    318. D(Au 11,Au  8,Au  0,Mn 16)     43.1584         0.001501   
    319. D(Au  9,Au  8,Au  0,Mn 16)     -2.4188         0.001501   
    320. D(Au 10,Au  8,Au  0,Au  3)     35.9870         0.001501   
    321. D(Au  2,Au  8,Au  0,Au  3)    -52.1344         0.001501   
    322. D(Au  0,Au  8,Au  2,Au  3)     56.0050         0.001501   
    323. D(Au 12,Au  8,Au  0,Au  3)     -0.5535         0.001501   
    324. D(Au  9,Au  8,Au  0,Au  2)    142.1780         0.001501   
    325. D(Au  2,Au  8,Au  0,Mn 16)   -144.5968         0.001501   
    326. D(Au 12,Au  8,Au  2,Au  0)   -112.5210         0.001501   
    327. D(Au  9,Au  8,Au  2,Au  3)    -14.5356         0.001501   
    328. D(Au  9,Au  8,Au  2,Au 12)     41.9804         0.001501   
    329. D(Au 10,Au  8,Au  2,Au 12)    -24.2215         0.001501   
    330. D(Au 11,Au  8,Au  2,Au  0)      7.7165         0.001501   
    331. D(Au 11,Au  8,Au  2,Au  3)     63.7215         0.001501   
    332. D(Au 10,Au  8,Au  2,Au  3)    -80.7375         0.001501   
    333. D(Au 10,Au  8,Au  2,Au  0)   -136.7425         0.001501   
    334. D(Au 12,Au  8,Au  2,Au  3)    -56.5160         0.001501   
    335. D(Au  9,Au  8,Au  2,Au  0)    -70.5406         0.001501   
    336. D(Au 11,Au  8,Au  2,Au 12)    120.2376         0.001501   
    337. D(Au 11,Au  9,Au  8,Au 12)    136.0962         0.001501   
    338. D(Au 13,Au  9,Au  8,Au  2)    -34.1322         0.001501   
    339. D(Au 15,Au  9,Au  8,Au  2)      6.3286         0.001501   
    340. D(Au 15,Au  9,Au  8,Au 12)     40.8908         0.001501   
    341. D(Au 15,Au  9,Au  8,Au 11)    -95.2054         0.001501   
    342. D(Au 15,Au  9,Au  8,Au  0)    -49.8736         0.001501   
    343. D(Au 13,Au  9,Au  8,Au 12)      0.4300         0.001501   
    344. D(Au 13,Au  9,Au  8,Au 11)   -135.6662         0.001501   
    345. D(Au 13,Au  9,Au  8,Au 10)     52.3958         0.001501   
    346. D(Au 13,Au  9,Au  8,Au  0)    -90.3344         0.001501   
    347. D(Au 11,Au  9,Au  8,Au  2)    101.5340         0.001501   
    348. D(Au 11,Au  9,Au  8,Au 10)   -171.9379         0.001501   
    349. D(Au 11,Au  9,Au  8,Au  0)     45.3318         0.001501   
    350. D(Au 10,Au  9,Au  8,Au  2)    -86.5280         0.001501   
    351. D(Au 10,Au  9,Au  8,Au 12)    -51.9658         0.001501   
    352. D(Au 10,Au  9,Au  8,Au 11)    171.9379         0.001501   
    353. D(Au 10,Au  9,Au  8,Au  0)   -142.7302         0.001501   
    354. D(Au  6,Au  9,Au  8,Au  2)     73.4124         0.001501   
    355. D(Au  6,Au  9,Au  8,Au  0)     17.2102         0.001501   
    356. D(Au 15,Au  9,Au  6,Mn 16)    104.8508         0.001501   
    357. D(Au 13,Au  9,Au  6,Au 15)    -33.0989         0.001501   
    358. D(Au 10,Au  9,Au  6,Mn 16)     34.4954         0.001501   
    359. D(Au 10,Au  9,Au  6,Au 15)    -70.3553         0.001501   
    360. D(Au 11,Au  9,Au  6,Au 15)   -155.6428         0.001501   
    361. D(Au 13,Au  9,Au  6,Mn 16)     71.7519         0.001501   
    362. D(Au 11,Au  9,Au  6,Mn 16)    -50.7920         0.001501   
    363. D(Au  8,Au  9,Au  6,Mn 16)    -22.8337         0.001501   
    364. D(Au 15,Au  9,Au  8,Au 10)     92.8566         0.001501   
    365. D(Au  8,Au  9,Au  6,Au 15)   -127.6844         0.001501   
    366. D(Au  6,Au  9,Au  8,Au 12)    107.9746         0.001501   
    367. D(Au  6,Au  9,Au  8,Au 11)    -28.1216         0.001501   
    368. D(Au  6,Au  9,Au  8,Au 10)    159.9404         0.001501   
    369. D(Au 12,Au 10,Au  9,Au  8)     55.4837         0.001502   
    370. D(Au 12,Au 10,Au  9,Au 15)    -71.6947         0.001502   
    371. D(Au 12,Au 10,Au  9,Au 13)    -54.2042         0.001502   
    372. D(Au 12,Au 10,Au  9,Au 11)     63.2134         0.001502   
    373. D(Au 12,Au 10,Au  9,Au  6)    -10.7163         0.001502   
    374. D(Au  8,Au 10,Au  9,Au 15)   -127.1783         0.001502   
    375. D(Au  8,Au 10,Au  9,Au  6)    -66.2000         0.001502   
    376. D(Au 13,Au 10,Au  9,Au  6)     43.4879         0.001502   
    377. D(Au 12,Au 10,Au  8,Au  0)    -44.1808         0.001502   
    378. D(Au  9,Au 10,Au  8,Au 11)     -7.9874         0.001502   
    379. D(Au  9,Au 10,Au  8,Au  0)     68.5997         0.001502   
    380. D(Au 13,Au 10,Au  8,Au  9)    -59.3105         0.001502   
    381. D(Au 13,Au 10,Au  8,Au  0)      9.2892         0.001502   
    382. D(Au 13,Au 10,Au  8,Au 12)     53.4700         0.001502   
    383. D(Au 13,Au 10,Au  8,Au 11)    -67.2980         0.001502   
    384. D(Au  9,Au 10,Au  8,Au  2)    136.8168         0.001502   
    385. D(Au  9,Au 10,Au  8,Au 12)    112.7805         0.001502   
    386. D(Au 13,Au 10,Au  8,Au  2)     77.5062         0.001502   
    387. D(Au 12,Au 10,Au  8,Au 11)   -120.7679         0.001502   
    388. D(Au 12,Au 10,Au  8,Au  9)   -112.7805         0.001502   
    389. D(Au 13,Au 10,Au  9,Au 15)    -17.4905         0.001502   
    390. D(Au 13,Au 10,Au  9,Au  8)    109.6879         0.001502   
    391. D(Au  8,Au 10,Au  9,Au 11)      7.7298         0.001502   
    392. D(Au 13,Au 10,Au  9,Au 11)    117.4176         0.001502   
    393. D(Au  8,Au 10,Au  9,Au 13)   -109.6879         0.001502   
    394. D(Au 12,Au 10,Au  8,Au  2)     24.0363         0.001502   
    395. D(Au  8,Au 11,Au  9,Au 10)     -7.7856         0.001501   
    396. D(Mn 16,Au 11,Au  9,Au 13)    -39.3243         0.001501   
    397. D(Au  8,Au 11,Au  9,Au 13)     60.0605         0.001501   
    398. D(Mn 16,Au 11,Au  9,Au  6)     49.7353         0.001501   
    399. D(Au  9,Au 11,Au  8,Au 12)    -63.4457         0.001501   
    400. D(Au  9,Au 11,Au  8,Au  2)   -134.3899         0.001501   
    401. D(Au  9,Au 11,Au  8,Au 10)      7.7934         0.001501   
    402. D(Mn 16,Au 11,Au  9,Au 15)     26.8598         0.001501   
    403. D(Mn 16,Au 11,Au  9,Au 10)   -107.1704         0.001501   
    404. D(Mn 16,Au 11,Au  8,Au  2)    -51.7669         0.001501   
    405. D(Mn 16,Au 11,Au  9,Au  8)    -99.3848         0.001501   
    406. D(Mn 16,Au 11,Au  8,Au 12)     19.1773         0.001501   
    407. D(Mn 16,Au 11,Au  8,Au 10)     90.4164         0.001501   
    408. D(Mn 16,Au 11,Au  8,Au  9)     82.6231         0.001501   
    409. D(Au  8,Au 11,Au  9,Au 15)    126.2446         0.001501   
    410. D(Mn 16,Au 11,Au  8,Au  0)    -44.1026         0.001501   
    411. D(Au  8,Au 11,Au  9,Au  6)    149.1201         0.001501   
    412. D(Au  9,Au 11,Au  8,Au  0)   -126.7256         0.001501   
    413. D(Au  8,Au 12,Au  4,Au  3)    -59.7481         0.001502   
    414. D(Au  8,Au 12,Au  4,Au 14)     37.6992         0.001502   
    415. D(Au  8,Au 12,Au  4,Au 13)     64.4565         0.001502   
    416. D(Au  4,Au 12,Au  2,Au  0)    -68.8716         0.001502   
    417. D(Au  2,Au 12,Au  3,Au  1)     96.8087         0.001501   
    418. D(Au  2,Au 12,Au  3,Au  0)     53.0635         0.001501   
    419. D(Au  4,Au 12,Au  3,Au  1)    -95.7340         0.001501   
    420. D(Au 13,Au 12,Au  3,Au  4)     47.8434         0.001501   
    421. D(Au 13,Au 12,Au  3,Au  2)   -144.6994         0.001501   
    422. D(Au 10,Au 12,Au  3,Au  0)    -36.6448         0.001501   
    423. D(Au 10,Au 12,Au  3,Au  4)    102.8345         0.001501   
    424. D(Au 13,Au 12,Au  3,Au  0)    -91.6359         0.001501   
    425. D(Au 13,Au 12,Au  3,Au  1)    -47.8906         0.001501   
    426. D(Au  8,Au 12,Au  3,Au  5)    107.4822         0.001501   
    427. D(Au 10,Au 12,Au  3,Au  5)     71.3803         0.001501   
    428. D(Au  8,Au 12,Au  3,Au  4)    138.9364         0.001501   
    429. D(Au  8,Au 12,Au  3,Au  2)    -53.6063         0.001501   
    430. D(Au  8,Au 12,Au  3,Au  1)     43.2024         0.001501   
    431. D(Au 10,Au 12,Au  3,Au  1)      7.1005         0.001501   
    432. D(Au 10,Au 12,Au  3,Au  2)    -89.7083         0.001501   
    433. D(Au  8,Au 12,Au  3,Au  0)     -0.5429         0.001501   
    434. D(Au  4,Au 12,Au  3,Au  0)   -139.4793         0.001501   
    435. D(Au  3,Au 12,Au  2,Au  8)   -110.4371         0.001502   
    436. D(Au  3,Au 12,Au  2,Au  0)    -56.5901         0.001502   
    437. D(Au  4,Au 12,Au  3,Au  5)    -31.4542         0.001501   
    438. D(Au  4,Au 12,Au  2,Au  3)    -12.2815         0.001502   
    439. D(Au  4,Au 12,Au  2,Au  8)   -122.7186         0.001502   
    440. D(Au  4,Au 12,Au  3,Au  2)    167.4572         0.001501   
    441. D(Au 13,Au 12,Au  3,Au  5)     16.3892         0.001501   
    442. D(Au  8,Au 12,Au  4,Au  5)    -27.3555         0.001502   
    443. D(Au 13,Au 12,Au  2,Au  3)     66.1879         0.001502   
    444. D(Au 13,Au 12,Au  2,Au  8)    -44.2491         0.001502   
    445. D(Au 13,Au 12,Au  2,Au  0)      9.5979         0.001502   
    446. D(Au  2,Au 12,Au  3,Au  5)    161.0886         0.001501   
    447. D(Au 10,Au 12,Au  2,Au  3)    134.7810         0.001502   
    448. D(Au  8,Au 12,Au  2,Au  3)    110.4371         0.001502   
    449. D(Au  2,Au 12,Au  3,Au  4)   -167.4572         0.001501   
    450. D(Au  8,Au 12,Au  2,Au  0)     53.8470         0.001502   
    451. D(Au 10,Au 12,Au  2,Au  8)     24.3440         0.001502   
    452. D(Au 10,Au 12,Au  4,Au  5)   -100.0329         0.001502   
    453. D(Au 10,Au 12,Au  2,Au  0)     78.1910         0.001502   
    454. D(Au  3,Au 12,Au 10,Au  8)     43.7139         0.001502   
    455. D(Au  3,Au 12,Au 10,Au 13)    -69.4906         0.001502   
    456. D(Au  2,Au 12,Au 10,Au  8)    -24.5384         0.001502   
    457. D(Au  2,Au 12,Au 10,Au  9)    -79.8181         0.001502   
    458. D(Au  4,Au 12,Au 10,Au  8)    121.6324         0.001502   
    459. D(Au  4,Au 12,Au 10,Au  9)     66.3527         0.001502   
    460. D(Au  4,Au 12,Au 10,Au 13)      8.4278         0.001502   
    461. D(Au 13,Au 12,Au 10,Au  9)     57.9248         0.001502   
    462. D(Au  8,Au 12,Au 10,Au  9)    -55.2797         0.001502   
    463. D(Au  8,Au 12,Au 10,Au 13)   -113.2046         0.001502   
    464. D(Au  3,Au 12,Au  8,Au  2)     53.3365         0.001501   
    465. D(Au  3,Au 12,Au  8,Au 11)    -50.2630         0.001501   
    466. D(Au  3,Au 12,Au  8,Au 10)   -153.1230         0.001501   
    467. D(Au  3,Au 12,Au  8,Au  9)   -101.4837         0.001501   
    468. D(Au  2,Au 12,Au  8,Au 11)   -103.5994         0.001501   
    469. D(Au  2,Au 12,Au  8,Au 10)    153.5406         0.001501   
    470. D(Au  2,Au 12,Au  8,Au  9)   -154.8202         0.001501   
    471. D(Au  4,Au 12,Au  8,Au  2)    101.8051         0.001501   
    472. D(Au  4,Au 12,Au  8,Au 11)     -1.7943         0.001501   
    473. D(Au  4,Au 12,Au  8,Au 10)   -104.6543         0.001501   
    474. D(Au  4,Au 12,Au  8,Au  9)    -53.0151         0.001501   
    475. D(Au  4,Au 12,Au  8,Au  0)     49.0277         0.001501   
    476. D(Au 13,Au 12,Au  8,Au  2)    154.3619         0.001501   
    477. D(Au 13,Au 12,Au  8,Au 11)     50.7625         0.001501   
    478. D(Au 13,Au 12,Au  8,Au 10)    -52.0975         0.001501   
    479. D(Au 13,Au 12,Au  8,Au  0)    101.5845         0.001501   
    480. D(Au  2,Au 12,Au  8,Au  0)    -52.7774         0.001501   
    481. D(Au 10,Au 12,Au  8,Au  2)   -153.5406         0.001501   
    482. D(Au  2,Au 12,Au  4,Au  3)     12.1294         0.001502   
    483. D(Au  3,Au 12,Au  4,Au 14)     97.4473         0.001502   
    484. D(Au  3,Au 12,Au  8,Au  0)      0.5591         0.001501   
    485. D(Au  3,Au 12,Au  4,Au 13)    124.2046         0.001502   
    486. D(Au  3,Au 12,Au  4,Au  5)     32.3926         0.001502   
    487. D(Au 10,Au 12,Au  8,Au  9)     51.6392         0.001501   
    488. D(Au  2,Au 12,Au  4,Au 14)    109.5767         0.001502   
    489. D(Au 10,Au 12,Au  8,Au  0)    153.6821         0.001501   
    490. D(Au  2,Au 12,Au  4,Au 13)    136.3341         0.001502   
    491. D(Au  2,Au 12,Au  4,Au  5)     44.5220         0.001502   
    492. D(Au 13,Au 12,Au 10,Au  8)    113.2046         0.001502   
    493. D(Au 13,Au 12,Au  4,Au  3)   -124.2046         0.001502   
    494. D(Au 13,Au 12,Au  4,Au 14)    -26.7573         0.001502   
    495. D(Au 13,Au 12,Au  8,Au  9)     -0.4583         0.001501   
    496. D(Au  2,Au 12,Au 10,Au 13)   -137.7430         0.001502   
    497. D(Au 10,Au 12,Au  8,Au 11)    102.8600         0.001501   
    498. D(Au 13,Au 12,Au  4,Au  5)    -91.8120         0.001502   
    499. D(Au 10,Au 12,Au  4,Au  3)   -132.4255         0.001502   
    500. D(Au  3,Au 12,Au 10,Au  9)    -11.5658         0.001502   
    501. D(Au 10,Au 12,Au  4,Au 14)    -34.9782         0.001502   
    502. D(Au 10,Au 12,Au  4,Au 13)     -8.2209         0.001502   
    503. D(Au  4,Au 13,Au 12,Au  3)    -46.9021         0.001502   
    504. D(Au  4,Au 13,Au 12,Au  2)    -99.8310         0.001502   
    505. D(Au  4,Au 13,Au 12,Au  8)   -136.6663         0.001502   
    506. D(Au  9,Au 13,Au 12,Au  3)     90.2059         0.001502   
    507. D(Au  9,Au 13,Au 12,Au  2)     37.2770         0.001502   
    508. D(Au  9,Au 13,Au 12,Au 10)    -51.1682         0.001502   
    509. D(Au  9,Au 13,Au 12,Au  8)      0.4417         0.001502   
    510. D(Au 10,Au 13,Au 12,Au  3)    141.3741         0.001502   
    511. D(Au 10,Au 13,Au 12,Au  2)     88.4453         0.001502   
    512. D(Au 10,Au 13,Au 12,Au  4)   -171.7238         0.001502   
    513. D(Au 10,Au 13,Au 12,Au  8)     51.6099         0.001502   
    514. D(Au 15,Au 13,Au 12,Au  3)     48.0432         0.001502   
    515. D(Au 15,Au 13,Au 12,Au  4)     94.9453         0.001502   
    516. D(Au 15,Au 13,Au 12,Au 10)    -93.3309         0.001502   
    517. D(Au 15,Au 13,Au 12,Au  8)    -41.7210         0.001502   
    518. D(Au 14,Au 13,Au 12,Au  2)    -72.8482         0.001502   
    519. D(Au 14,Au 13,Au 12,Au  4)     26.9828         0.001502   
    520. D(Au 14,Au 13,Au 12,Au 10)   -161.2934         0.001502   
    521. D(Au  4,Au 13,Au 10,Au 12)     -7.9651         0.001502   
    522. D(Au  4,Au 13,Au 10,Au  8)    -63.0872         0.001502   
    523. D(Au  4,Au 13,Au 10,Au  9)   -120.0522         0.001502   
    524. D(Au 12,Au 13,Au 10,Au  8)    -55.1221         0.001502   
    525. D(Au 12,Au 13,Au 10,Au  9)   -112.0870         0.001502   
    526. D(Au  9,Au 13,Au 10,Au 12)    112.0870         0.001502   
    527. D(Au  9,Au 13,Au 10,Au  8)     56.9650         0.001502   
    528. D(Au 15,Au 13,Au 10,Au  8)     74.6339         0.001502   
    529. D(Au 15,Au 13,Au 10,Au  9)     17.6690         0.001502   
    530. D(Au 14,Au 13,Au 10,Au 12)     71.1003         0.001502   
    531. D(Au 14,Au 13,Au 10,Au  9)    -40.9867         0.001502   
    532. D(Au  4,Au 13,Au  9,Au  8)     47.4460         0.001500   
    533. D(Au  4,Au 13,Au  9,Au 15)    -97.8473         0.001500   
    534. D(Au  4,Au 13,Au  9,Au 11)     -0.2315         0.001500   
    535. D(Au  4,Au 13,Au  9,Au 10)    101.4554         0.001500   
    536. D(Au  4,Au 13,Au  9,Au  6)    -63.9532         0.001500   
    537. D(Au 12,Au 13,Au  9,Au  8)     -0.4462         0.001500   
    538. D(Au 12,Au 13,Au  9,Au 15)   -145.7394         0.001500   
    539. D(Au 12,Au 13,Au  9,Au 11)    -48.1237         0.001500   
    540. D(Au 12,Au 13,Au  9,Au 10)     53.5632         0.001500   
    541. D(Au 12,Au 13,Au  9,Au  6)   -111.8454         0.001500   
    542. D(Au 10,Au 13,Au  9,Au  8)    -54.0094         0.001500   
    543. D(Au 10,Au 13,Au  9,Au 15)    160.6973         0.001500   
    544. D(Au 14,Au 13,Au 10,Au  8)     15.9783         0.001502   
    545. D(Au 10,Au 13,Au  9,Au 11)   -101.6869         0.001500   
    546. D(Au 10,Au 13,Au  9,Au  6)   -165.4086         0.001500   
    547. D(Au 15,Au 13,Au  9,Au  8)    145.2933         0.001500   
    548. D(Au 15,Au 13,Au 10,Au 12)    129.7560         0.001502   
    549. D(Au 15,Au 13,Au  9,Au 11)     97.6158         0.001500   
    550. D(Au 15,Au 13,Au  9,Au 10)   -160.6973         0.001500   
    551. D(Au 15,Au 13,Au  9,Au  6)     33.8941         0.001500   
    552. D(Au 14,Au 13,Au  9,Au  8)    113.4909         0.001500   
    553. D(Au 14,Au 13,Au  9,Au 15)    -31.8024         0.001500   
    554. D(Au 14,Au 13,Au  9,Au 11)     65.8134         0.001500   
    555. D(Au 14,Au 13,Au  9,Au 10)    167.5003         0.001500   
    556. D(Au 14,Au 13,Au 12,Au  8)   -109.6835         0.001502   
    557. D(Au 14,Au 13,Au  9,Au  6)      2.0917         0.001500   
    558. D(Au 12,Au 13,Au  4,Au  3)     48.4928         0.001501   
    559. D(Au 12,Au 13,Au  4,Au 14)    151.0997         0.001501   
    560. D(Au 14,Au 13,Au 12,Au  3)    -19.9193         0.001502   
    561. D(Au 12,Au 13,Au  4,Au  5)    109.7149         0.001501   
    562. D(Au  9,Au 13,Au  4,Au  3)    -12.2745         0.001501   
    563. D(Au  9,Au 13,Au  4,Au 14)     90.3324         0.001501   
    564. D(Au 15,Au 13,Au 12,Au  2)     -4.8856         0.001502   
    565. D(Au  9,Au 13,Au  4,Au 12)    -60.7673         0.001501   
    566. D(Au  9,Au 13,Au  4,Au  5)     48.9476         0.001501   
    567. D(Au 10,Au 13,Au  4,Au  3)     56.6284         0.001501   
    568. D(Au 10,Au 13,Au  4,Au 14)    159.2353         0.001501   
    569. D(Au 10,Au 13,Au  4,Au 12)      8.1356         0.001501   
    570. D(Au 10,Au 13,Au  4,Au  5)    117.8505         0.001501   
    571. D(Au 15,Au 13,Au  4,Au  3)    -80.1316         0.001501   
    572. D(Au  9,Au 13,Au 12,Au  4)    137.1080         0.001502   
    573. D(Au 15,Au 13,Au  4,Au 14)     22.4752         0.001501   
    574. D(Au 15,Au 13,Au  4,Au 12)   -128.6245         0.001501   
    575. D(Au 15,Au 13,Au  4,Au  5)    -18.9096         0.001501   
    576. D(Au  4,Au 13,Au 12,Au 10)    171.7238         0.001502   
    577. D(Au 14,Au 13,Au  4,Au  3)   -102.6069         0.001501   
    578. D(Au 14,Au 13,Au  4,Au 12)   -151.0997         0.001501   
    579. D(Au 14,Au 13,Au  4,Au  5)    -41.3848         0.001501   
    580. D(Au  4,Au 14,Au 13,Au 12)    -26.4114         0.001502   
    581. D(Au  4,Au 14,Au 13,Au  9)   -124.7212         0.001502   
    582. D(Au  4,Au 14,Au 13,Au 10)    -89.1946         0.001502   
    583. D(Au  4,Au 14,Au 13,Au 15)   -156.1425         0.001502   
    584. D(Au 15,Au 14,Au 13,Au  4)    156.1425         0.001502   
    585. D(Au 15,Au 14,Au 13,Au 12)    129.7311         0.001502   
    586. D(Au 15,Au 14,Au 13,Au 10)     66.9479         0.001502   
    587. D(Au  7,Au 14,Au 13,Au  4)    103.8125         0.001502   
    588. D(Au  7,Au 14,Au 13,Au 12)     77.4010         0.001502   
    589. D(Au  7,Au 14,Au 13,Au 10)     14.6179         0.001502   
    590. D(Au  7,Au 14,Au 13,Au 15)    -52.3300         0.001502   
    591. D(Au  5,Au 14,Au 13,Au  4)     42.3686         0.001502   
    592. D(Au  5,Au 14,Au 13,Au  9)    -82.3526         0.001502   
    593. D(Au  5,Au 14,Au 13,Au 10)    -46.8259         0.001502   
    594. D(Au  5,Au 14,Au 13,Au 15)   -113.7738         0.001502   
    595. D(Au  4,Au 14,Au  7,Au 15)    112.4519         0.001501   
    596. D(Au  4,Au 14,Au  7,Au  5)    -38.3241         0.001501   
    597. D(Au  4,Au 14,Au  7,Mn 16)     38.1549         0.001501   
    598. D(Au 13,Au 14,Au  7,Au 15)     49.6721         0.001501   
    599. D(Au 13,Au 14,Au  7,Mn 16)    -24.6249         0.001501   
    600. D(Au 15,Au 14,Au  7,Au  5)   -150.7760         0.001501   
    601. D(Au 15,Au 14,Au  7,Mn 16)    -74.2969         0.001501   
    602. D(Au  5,Au 14,Au  7,Au 15)    150.7760         0.001501   
    603. D(Au  5,Au 14,Au  7,Mn 16)     76.4791         0.001501   
    604. D(Au  4,Au 14,Au  5,Au  3)     38.3797         0.001502   
    605. D(Au  4,Au 14,Au  5,Au  7)    136.9605         0.001502   
    606. D(Au  4,Au 14,Au  5,Au  1)    106.6755         0.001502   
    607. D(Au 13,Au 14,Au  5,Au  3)     -4.4018         0.001502   
    608. D(Au 13,Au 14,Au  5,Au  4)    -42.7815         0.001502   
    609. D(Au 13,Au 14,Au  5,Au  7)     94.1790         0.001502   
    610. D(Au 13,Au 14,Au  5,Au  1)     63.8940         0.001502   
    611. D(Au 15,Au 14,Au  5,Au  3)    -68.6522         0.001502   
    612. D(Au 13,Au 14,Au  7,Au  5)   -101.1039         0.001501   
    613. D(Au 15,Au 14,Au  5,Au  4)   -107.0319         0.001502   
    614. D(Au 15,Au 14,Au  5,Au  7)     29.9286         0.001502   
    615. D(Au 15,Au 14,Au  5,Au  1)     -0.3564         0.001502   
    616. D(Au  7,Au 14,Au  5,Au  3)    -98.5807         0.001502   
    617. D(Au  7,Au 14,Au  5,Au  4)   -136.9605         0.001502   
    618. D(Au  7,Au 14,Au  5,Au  1)    -30.2849         0.001502   
    619. D(Au 13,Au 14,Au  4,Au  3)     93.7691         0.001501   
    620. D(Au  5,Au 14,Au 13,Au 12)     15.9572         0.001502   
    621. D(Au 13,Au 14,Au  4,Au 12)     27.1273         0.001501   
    622. D(Au 13,Au 14,Au  4,Au  5)    131.3829         0.001501   
    623. D(Au 15,Au 14,Au  4,Au  3)     70.4523         0.001501   
    624. D(Au  7,Au 14,Au 13,Au  9)    -20.9087         0.001502   
    625. D(Au 15,Au 14,Au  4,Au 13)    -23.3168         0.001501   
    626. D(Au 15,Au 14,Au  4,Au 12)      3.8105         0.001501   
    627. D(Au 15,Au 14,Au  4,Au  5)    108.0661         0.001501   
    628. D(Au 15,Au 14,Au 13,Au  9)     31.4213         0.001502   
    629. D(Au  7,Au 14,Au  4,Au  3)      0.5565         0.001501   
    630. D(Au  7,Au 14,Au  4,Au 13)    -93.2127         0.001501   
    631. D(Au  7,Au 14,Au  4,Au 12)    -66.0853         0.001501   
    632. D(Au  7,Au 14,Au  4,Au  5)     38.1702         0.001501   
    633. D(Au  5,Au 14,Au  4,Au  3)    -37.6138         0.001501   
    634. D(Au  5,Au 14,Au  4,Au 13)   -131.3829         0.001501   
    635. D(Au  5,Au 14,Au  4,Au 12)   -104.2556         0.001501   
    636. D(Au  9,Au 15,Au 14,Au  4)    -12.3187         0.001502   
    637. D(Au  9,Au 15,Au 14,Au 13)    -35.7411         0.001502   
    638. D(Au  9,Au 15,Au 14,Au  5)     56.4858         0.001502   
    639. D(Au 13,Au 15,Au 14,Au  4)     23.4224         0.001502   
    640. D(Au 13,Au 15,Au 14,Au  7)    120.7279         0.001502   
    641. D(Au 13,Au 15,Au 14,Au  5)     92.2269         0.001502   
    642. D(Au  7,Au 15,Au 14,Au  4)    -97.3056         0.001502   
    643. D(Au  7,Au 15,Au 14,Au 13)   -120.7279         0.001502   
    644. D(Au  7,Au 15,Au 14,Au  5)    -28.5010         0.001502   
    645. D(Au  6,Au 15,Au 14,Au 13)   -104.2891         0.001502   
    646. D(Au  6,Au 15,Au 14,Au  7)     16.4388         0.001502   
    647. D(Au  6,Au 15,Au 14,Au  5)    -12.0622         0.001502   
    648. D(Au  9,Au 15,Au 13,Au 12)     52.3774         0.001502   
    649. D(Au  9,Au 15,Au 13,Au 10)    -17.5229         0.001502   
    650. D(Au  9,Au 15,Au 13,Au 14)    144.2870         0.001502   
    651. D(Au 14,Au 15,Au 13,Au 12)    -91.9097         0.001502   
    652. D(Au 14,Au 15,Au 13,Au  9)   -144.2870         0.001502   
    653. D(Au 14,Au 15,Au 13,Au 10)   -161.8099         0.001502   
    654. D(Au  7,Au 15,Au 13,Au  4)     25.9488         0.001502   
    655. D(Au  7,Au 15,Au 13,Au 12)    -43.1946         0.001502   
    656. D(Au  7,Au 15,Au 13,Au  9)    -95.5720         0.001502   
    657. D(Au  7,Au 15,Au 13,Au 10)   -113.0949         0.001502   
    658. D(Au  6,Au 15,Au 13,Au  4)     85.0748         0.001502   
    659. D(Au  6,Au 15,Au 13,Au 12)     15.9313         0.001502   
    660. D(Au  6,Au 15,Au 13,Au  9)    -36.4460         0.001502   
    661. D(Au  6,Au 15,Au 13,Au 14)    107.8410         0.001502   
    662. D(Au 13,Au 15,Au  9,Au  8)    -50.3586         0.001502   
    663. D(Au 13,Au 15,Au  9,Au 11)   -118.8964         0.001502   
    664. D(Au 13,Au 15,Au  9,Au 10)     17.4632         0.001502   
    665. D(Au 13,Au 15,Au  9,Au  6)   -141.6944         0.001502   
    666. D(Au 14,Au 15,Au  9,Au  8)    -16.1215         0.001502   
    667. D(Au 14,Au 15,Au  9,Au 13)     34.2371         0.001502   
    668. D(Au 14,Au 15,Au  9,Au 11)    -84.6593         0.001502   
    669. D(Au 14,Au 15,Au  9,Au 10)     51.7003         0.001502   
    670. D(Au 14,Au 15,Au  9,Au  6)   -107.4574         0.001502   
    671. D(Au  7,Au 15,Au  9,Au  8)     44.5422         0.001502   
    672. D(Au  6,Au 15,Au 13,Au 10)    -53.9689         0.001502   
    673. D(Au  7,Au 15,Au  9,Au 13)     94.9008         0.001502   
    674. D(Au  7,Au 15,Au  9,Au 11)    -23.9956         0.001502   
    675. D(Au  7,Au 15,Au  9,Au 10)    112.3640         0.001502   
    676. D(Au  7,Au 15,Au 13,Au 14)     48.7150         0.001502   
    677. D(Au  7,Au 15,Au  9,Au  6)    -46.7937         0.001502   
    678. D(Au  6,Au 15,Au  9,Au  8)     91.3358         0.001502   
    679. D(Au  6,Au 15,Au  9,Au 13)    141.6944         0.001502   
    680. D(Au  6,Au 15,Au  9,Au 11)     22.7980         0.001502   
    681. D(Au  6,Au 15,Au  9,Au 10)    159.1577         0.001502   
    682. D(Au  9,Au 15,Au  7,Au 14)   -114.5338         0.001500   
    683. D(Au  9,Au 15,Au  7,Au  5)    -88.6095         0.001500   
    684. D(Au 14,Au 15,Au 13,Au  4)    -22.7662         0.001502   
    685. D(Au  9,Au 15,Au  7,Mn 16)      8.6068         0.001500   
    686. D(Au 13,Au 15,Au  7,Au 14)    -49.0955         0.001500   
    687. D(Au 13,Au 15,Au  7,Au  5)    -23.1712         0.001500   
    688. D(Au  9,Au 15,Au 13,Au  4)    121.5208         0.001502   
    689. D(Au 13,Au 15,Au  7,Mn 16)     74.0451         0.001500   
    690. D(Au 14,Au 15,Au  7,Au  5)     25.9244         0.001500   
    691. D(Au 14,Au 15,Au  7,Mn 16)    123.1406         0.001500   
    692. D(Au  6,Au 15,Au 14,Au  4)    -80.8668         0.001502   
    693. D(Au  6,Au 15,Au  7,Au 14)   -162.7414         0.001500   
    694. D(Au  6,Au 15,Au  7,Au  5)   -136.8171         0.001500   
    695. D(Au  6,Au 15,Au  7,Mn 16)    -39.6008         0.001500   
    696. D(Au  9,Au 15,Au  6,Mn 16)    -81.1484         0.001501   
    697. D(Au 13,Au 15,Au  6,Au  9)     37.9381         0.001501   
    698. D(Au 13,Au 15,Au  6,Mn 16)    -43.2103         0.001501   
    699. D(Au 14,Au 15,Au  6,Au  9)    105.7259         0.001501   
    700. D(Au  9,Au 15,Au 14,Au  7)     84.9869         0.001502   
    701. D(Au 14,Au 15,Au  6,Mn 16)     24.5775         0.001501   
    702. D(Au  7,Au 15,Au  6,Au  9)    122.3970         0.001501   
    703. D(Au  7,Au 15,Au  6,Mn 16)     41.2486         0.001501   
    704. D(Au  6,Mn 16,Au  0,Au  3)   -111.5257         0.001572   
    705. D(Au  6,Mn 16,Au  0,Au  2)    -69.7643         0.001572   
    706. D(Au  6,Mn 16,Au  0,Au  8)    -20.8630         0.001572   
    707. D(Au  1,Mn 16,Au  0,Au  3)     50.3403         0.001572   
    708. D(Au  1,Mn 16,Au  0,Au  2)     92.1016         0.001572   
    709. D(Au  1,Mn 16,Au  0,Au  8)    141.0029         0.001572   
    710. D(Au  7,Mn 16,Au 11,Au  8)    -87.2588         0.001588   
    711. D(Au  7,Mn 16,Au 11,Au  9)    -27.0871         0.001588   
    712. D(Au  6,Mn 16,Au 11,Au  9)    -54.3760         0.001588   
    713. D(Au  1,Mn 16,Au 11,Au  8)     57.2225         0.001588   
    714. D(Au  1,Mn 16,Au 11,Au  9)    117.3942         0.001588   
    715. D(Au  0,Mn 16,Au 11,Au  8)     46.9614         0.001588   
    716. D(Au  0,Mn 16,Au 11,Au  9)    107.1331         0.001588   
    717. D(Au 11,Mn 16,Au  7,Au 15)     14.3304         0.001595   
    718. D(Au 11,Mn 16,Au  7,Au 14)     67.0315         0.001595   
    719. D(Au  6,Mn 16,Au  7,Au 15)     41.4294         0.001595   
    720. D(Au  6,Mn 16,Au  7,Au 14)     94.1305         0.001595   
    721. D(Au  6,Mn 16,Au  7,Au  5)    150.2818         0.001595   
    722. D(Au  1,Mn 16,Au  7,Au 14)    -89.6925         0.001595   
    723. D(Au  1,Mn 16,Au  7,Au  5)    -33.5412         0.001595   
    724. D(Au  0,Mn 16,Au  7,Au 15)    -95.6756         0.001595   
    725. D(Au  0,Mn 16,Au  7,Au 14)    -42.9745         0.001595   
    726. D(Au  0,Mn 16,Au  7,Au  5)     13.1767         0.001595   
    727. D(Au 11,Mn 16,Au  6,Au  9)     55.4870         0.001617   
    728. D(Au 11,Mn 16,Au  6,Au 15)    114.1718         0.001617   
    729. D(Au  7,Mn 16,Au  6,Au  9)   -105.3558         0.001617   
    730. D(Au  7,Mn 16,Au  6,Au 15)    -46.6710         0.001617   
    731. D(Au  1,Mn 16,Au  6,Au  9)   -113.1261         0.001617   
    732. D(Au  1,Mn 16,Au  6,Au 15)    -54.4413         0.001617   
    733. D(Au  0,Mn 16,Au  6,Au  9)     30.1224         0.001617   
    734. D(Au  0,Mn 16,Au  6,Au 15)     88.8071         0.001617   
    735. D(Au 11,Mn 16,Au  1,Au  3)    -61.9532         0.001623   
    736. D(Au  1,Mn 16,Au  7,Au 15)   -142.3936         0.001595   
    737. D(Au 11,Mn 16,Au  1,Au  5)   -121.8608         0.001623   
    738. D(Au  7,Mn 16,Au  1,Au  3)     94.4507         0.001623   
    739. D(Au  7,Mn 16,Au  1,Au  5)     34.5431         0.001623   
    740. D(Au 11,Mn 16,Au  7,Au  5)    123.1827         0.001595   
    741. D(Au  6,Mn 16,Au  1,Au  3)    101.9288         0.001623   
    742. D(Au  6,Mn 16,Au  1,Au  5)     42.0211         0.001623   
    743. D(Au  0,Mn 16,Au  1,Au  3)    -51.6434         0.001623   
    744. D(Au  0,Mn 16,Au  1,Au  5)   -111.5511         0.001623   
    745. D(Au 11,Mn 16,Au  0,Au  3)   -137.0024         0.001572   
    746. D(Au 11,Mn 16,Au  0,Au  2)    -95.2411         0.001572   
    747. D(Au 11,Mn 16,Au  0,Au  8)    -46.3397         0.001572   
    748. D(Au  6,Mn 16,Au 11,Au  8)   -114.5477         0.001588   
    749. D(Au  7,Mn 16,Au  0,Au  3)      0.1760         0.001572   
    750. D(Au  7,Mn 16,Au  0,Au  2)     41.9373         0.001572   
    751. D(Au  7,Mn 16,Au  0,Au  8)     90.8387         0.001572   
    -----------------------------------------------------------------

Number of atoms                         .... 17
Number of degrees of freedom            .... 751

         *************************************************************
         *                GEOMETRY OPTIMIZATION CYCLE   1            *
         *************************************************************
---------------------------------
CARTESIAN COORDINATES (ANGSTROEM)
---------------------------------
  Au     7.817379    5.894753    9.859297
  Au     5.081092    5.346987    9.617955
  Au     9.527387    4.836661    7.878130
  Au     6.775792    4.817210    7.329454
  Au     6.019373    6.191892    4.956343
  Au     4.140800    5.785954    7.030745
  Au     5.762224   10.004197    9.885294
  Au     3.986906    8.132408    8.634176
  Au     9.588449    7.613214    8.423610
  Au     7.971867    9.998474    8.081130
  Au     9.690427    9.141681    6.069909
  Au     8.121901    8.625777   10.625869
  Au     8.605146    6.553027    5.875065
  Au     6.988546    8.835146    5.483738
  Au     4.251994    8.272004    5.745274
  Au     5.341698   10.393735    7.135595
  Mn     5.954835    7.577662   10.032410

----------------------------
CARTESIAN COORDINATES (A.U.)
----------------------------
  NO LB      ZA    FRAG     MASS         X           Y           Z
   0 Au   19.0000*   0   196.966   14.772705   11.139469   18.631371
   1 Au   19.0000*   0   196.966    9.601873   10.104342   18.175301
   2 Au   19.0000*   0   196.966   18.004152    9.139965   14.887509
   3 Au   19.0000*   0   196.966   12.804392    9.103208   13.850661
   4 Au   19.0000*   0   196.966   11.374967   11.700979    9.366131
   5 Au   19.0000*   0   196.966    7.824977   10.933869   13.286183
   6 Au   19.0000*   0   196.966   10.889026   18.905192   18.680498
   7 Au   19.0000*   0   196.966    7.534161   15.368025   16.316228
   8 Au   19.0000*   0   196.966   18.119542   14.386889   15.918316
   9 Au   19.0000*   0   196.966   15.064645   18.894377   15.271123
  10 Au   19.0000*   0   196.966   18.312254   17.275273   11.470466
  11 Au   19.0000*   0   196.966   15.348168   16.300357   20.079982
  12 Au   19.0000*   0   196.966   16.261369   12.383426   11.102265
  13 Au   19.0000*   0   196.966   13.206439   16.696006   10.362762
  14 Au   19.0000*   0   196.966    8.035104   15.631823   10.856994
  15 Au   19.0000*   0   196.966   10.094347   19.641314   13.484321
  16 Mn   25.0000    0    54.940   11.253007   14.319707   18.958508
* core charge reduced due to ECP

--------------------------------
INTERNAL COORDINATES (ANGSTROEM)
--------------------------------
 Au     0   0   0     0.000000000000     0.00000000     0.00000000
 Au     1   0   0     2.800992106375     0.00000000     0.00000000
 Au     1   2   0     2.822889681042   117.25805056     0.00000000
 Au     3   1   2     2.805832626034    62.98545731    14.07353274
 Au     4   3   1     2.844920542059   114.86696395   122.49636693
 Au     2   1   3     2.787561270945   112.25313768   313.03370933
 Au     1   2   3     4.594764961249    74.83756740   124.85571197
 Au     6   2   1     2.846141466127    67.98722729   271.00203804
 Au     3   1   2     2.830286159908    60.66583028   125.85303099
 Au     7   1   2     2.852640699540    69.40039111   227.55065641
 Au    10   7   1     2.780747384701   159.51555281    46.25455074
 Au     7   1   2     2.831353901821    36.22452044   158.44422441
 Au     5   4   3     2.767795139522    62.46857280   348.22548063
 Au    11  10   7     2.781676165267    65.54817806    43.48789510
 Au     6   2   1     2.800936709543   123.52745065   299.67612045
 Au    15   6   2     2.760831730971   117.81803045   359.64362961
 Mn     2   1   3     2.431277489904    56.96250855   228.32146419

---------------------------
INTERNAL COORDINATES (A.U.)
---------------------------
 Au     0   0   0     0.000000000000     0.00000000     0.00000000
 Au     1   0   0     5.293107984325     0.00000000     0.00000000
 Au     1   2   0     5.334488403441   117.25805056     0.00000000
 Au     3   1   2     5.302255240825    62.98545731    14.07353274
 Au     4   3   1     5.376120697258   114.86696395   122.49636693
 Au     2   1   3     5.267727383612   112.25313768   313.03370933
 Au     1   2   3     8.682847426497    74.83756740   124.85571197
 Au     6   2   1     5.378427909377    67.98722729   271.00203804
 Au     3   1   2     5.348465722854    60.66583028   125.85303099
 Au     7   1   2     5.390709680608    69.40039111   227.55065641
 Au    10   7   1     5.254851004702   159.51555281    46.25455074
 Au     7   1   2     5.350483462652    36.22452044   158.44422441
 Au     5   4   3     5.230374808494    62.46857280   348.22548063
 Au    11  10   7     5.256606145610    65.54817806    43.48789510
 Au     6   2   1     5.293003299484   123.52745065   299.67612045
 Au    15   6   2     5.217215873376   117.81803045   359.64362961
 Mn     2   1   3     4.594448611487    56.96250855   228.32146419

---------------------
BASIS SET INFORMATION
---------------------
There are 2 groups of distinct atoms

 Group   1 Type Au  : 8s7p6d1f contracted to 6s4p3d1f pattern {311111/4111/411/1}
 Group   2 Type Mn  : 17s11p7d1f contracted to 6s4p4d1f pattern {842111/6311/4111/1}

Atom   0Au   basis set group =>   1
Atom   1Au   basis set group =>   1
Atom   2Au   basis set group =>   1
Atom   3Au   basis set group =>   1
Atom   4Au   basis set group =>   1
Atom   5Au   basis set group =>   1
Atom   6Au   basis set group =>   1
Atom   7Au   basis set group =>   1
Atom   8Au   basis set group =>   1
Atom   9Au   basis set group =>   1
Atom  10Au   basis set group =>   1
Atom  11Au   basis set group =>   1
Atom  12Au   basis set group =>   1
Atom  13Au   basis set group =>   1
Atom  14Au   basis set group =>   1
Atom  15Au   basis set group =>   1
Atom  16Mn   basis set group =>   2
---------------------------------
AUXILIARY/J BASIS SET INFORMATION
---------------------------------
There are 2 groups of distinct atoms

 Group   1 Type Au  : 11s5p5d3f3g contracted to 8s5p5d2f3g pattern {41111111/11111/11111/21/111}
 Group   2 Type Mn  : 19s5p5d3f3g contracted to 8s5p5d2f3g pattern {121111111/11111/11111/21/111}

Atom   0Au   basis set group =>   1
Atom   1Au   basis set group =>   1
Atom   2Au   basis set group =>   1
Atom   3Au   basis set group =>   1
Atom   4Au   basis set group =>   1
Atom   5Au   basis set group =>   1
Atom   6Au   basis set group =>   1
Atom   7Au   basis set group =>   1
Atom   8Au   basis set group =>   1
Atom   9Au   basis set group =>   1
Atom  10Au   basis set group =>   1
Atom  11Au   basis set group =>   1
Atom  12Au   basis set group =>   1
Atom  13Au   basis set group =>   1
Atom  14Au   basis set group =>   1
Atom  15Au   basis set group =>   1
Atom  16Mn   basis set group =>   2
-------------------------
ECP PARAMETER INFORMATION
-------------------------

 Group 1, Type Au ECP Def2-ECP (replacing 60 core electrons, lmax=3)

Atom   0Au   ECP group =>   1
Atom   1Au   ECP group =>   1
Atom   2Au   ECP group =>   1
Atom   3Au   ECP group =>   1
Atom   4Au   ECP group =>   1
Atom   5Au   ECP group =>   1
Atom   6Au   ECP group =>   1
Atom   7Au   ECP group =>   1
Atom   8Au   ECP group =>   1
Atom   9Au   ECP group =>   1
Atom  10Au   ECP group =>   1
Atom  11Au   ECP group =>   1
Atom  12Au   ECP group =>   1
Atom  13Au   ECP group =>   1
Atom  14Au   ECP group =>   1
Atom  15Au   ECP group =>   1

------------------------------------------------------------------------------
                           ORCA GTO INTEGRAL CALCULATION
                           -- RI-GTO INTEGRALS CHOSEN --
------------------------------------------------------------------------------
------------------------------------------------------------------------------
                   ___                                                        
                  /   \      - P O W E R E D   B Y -                         
                 /     \                                                     
                 |  |  |   _    _      __       _____    __    __             
                 |  |  |  | |  | |    /  \     |  _  \  |  |  /  |          
                  \  \/   | |  | |   /    \    | | | |  |  | /  /          
                 / \  \   | |__| |  /  /\  \   | |_| |  |  |/  /          
                |  |  |   |  __  | /  /__\  \  |    /   |      \           
                |  |  |   | |  | | |   __   |  |    \   |  |\   \          
                \     /   | |  | | |  |  |  |  | |\  \  |  | \   \       
                 \___/    |_|  |_| |__|  |__|  |_| \__\ |__|  \__/        
                                                                              
                      - O R C A' S   B I G   F R I E N D -                    
                                      &                                       
                       - I N T E G R A L  F E E D E R -                       
                                                                              
 v1 FN, 2020, v2 2021                                                         
------------------------------------------------------------------------------


Reading SHARK input file pbe.SHARKINP.tmp ... ok
----------------------
SHARK INTEGRAL PACKAGE
----------------------

Number of atoms                             ...     17
Number of basis functions                   ...    685
Number of shells                            ...    239
Maximum angular momentum                    ...      3
Integral batch strategy                     ... SHARK/LIBINT Hybrid
RI-J (if used) integral strategy            ... SPLIT-RIJ (Revised 2003 algorithm where possible)
Printlevel                                  ...      1
Contraction scheme used                     ... SEGMENTED contraction
Coulomb Range Separation                    ... NOT USED
Exchange Range Separation                   ... NOT USED
Finite Nucleus Model                        ... NOT USED
Auxiliary Coulomb fitting basis             ... AVAILABLE
   # of basis functions in Aux-J            ...   1513
   # of shells in Aux-J                     ...    391
   Maximum angular momentum in Aux-J        ...      4
Auxiliary J/K fitting basis                 ... NOT available
Auxiliary Correlation fitting basis         ... NOT available
Auxiliary 'external' fitting basis          ... NOT available
Integral threshold                          ...     2.500000e-11
Primitive cut-off                           ...     2.500000e-12
Primitive pair pre-selection threshold      ...     2.500000e-12

Calculating pre-screening integrals         ... done (  0.8 sec) Dimension = 239
Organizing shell pair data                  ... done (  1.1 sec)
Shell pair information
Total number of shell pairs                 ...     28680
Shell pairs after pre-screening             ...     22075
Total number of primitive shell pairs       ...     75765
Primitive shell pairs kept                  ...     41281
          la=0 lb=0:   3504 shell pairs
          la=1 lb=0:   5053 shell pairs
          la=1 lb=1:   1902 shell pairs
          la=2 lb=0:   4361 shell pairs
          la=2 lb=1:   3117 shell pairs
          la=2 lb=2:   1295 shell pairs
          la=3 lb=0:   1104 shell pairs
          la=3 lb=1:    860 shell pairs
          la=3 lb=2:    768 shell pairs
          la=3 lb=3:    111 shell pairs

Calculating one electron integrals          ... done (  0.3 sec)
Calculating ECP integrals                   ... done ( 17.8 sec)
Calculating RI/J V-Matrix + Cholesky decomp.... done (  0.3 sec)
Calculating Nuclear repulsion               ... done (  0.0 sec) ENN=   6772.756489827732 Eh

SHARK setup successfully completed in  21.5 seconds

Maximum memory used throughout the entire GTOINT-calculation: 604.6 MB
-------------------------------------------------------------------------------
                                 ORCA SCF
-------------------------------------------------------------------------------

------------
SCF SETTINGS
------------
Hamiltonian:
 Density Functional     Method          .... DFT(GTOs)
 Exchange Functional    Exchange        .... PBE
   PBE kappa parameter   XKappa         ....  0.804000
   PBE mue parameter    XMuePBE         ....  0.219520
 Correlation Functional Correlation     .... PBE
   PBE beta parameter  CBetaPBE         ....  0.066725
 LDA part of GGA corr.  LDAOpt          .... PW91-LDA
 Gradients option       PostSCFGGA      .... off
   Density functional embedding theory  .... OFF
   NL short-range parameter             ....  6.400000
 RI-approximation to the Coulomb term is turned on
   Number of AuxJ basis functions       .... 1513


General Settings:
 Integral files         IntName         .... pbe
 Hartree-Fock type      HFTyp           .... UHF
 Total Charge           Charge          ....    0
 Multiplicity           Mult            ....    4
 Number of Electrons    NEL             ....  329
 Basis Dimension        Dim             ....  685
 Nuclear Repulsion      ENuc            ....   6772.7564898277 Eh

Convergence Acceleration:
 DIIS                   CNVDIIS         .... off
 Trust-Rad. Augm. Hess. CNVTRAH         .... auto
   Auto Start mean grad. ratio tolernc. ....  1.125000
   Auto Start start iteration           ....    20
   Auto Start num. interpolation iter.  ....    10
   Max. Number of Micro iterations      ....    16
   Max. Number of Macro iterations      .... Maxiter - #DIIS iter
   Number of Davidson start vectors     ....     2
   Converg. threshold I  (grad. norm)   ....   1.000e-05
   Converg. threshold II (energy diff.) ....   1.000e-08
   Grad. Scal. Fac. for Micro threshold ....   0.100
   Minimum threshold for Micro iter.    ....   0.010
   NR start threshold (gradient norm)   ....   0.001
   Initial trust radius                 ....   0.400
   Minimum AH scaling param. (alpha)    ....   1.000
   Maximum AH scaling param. (alpha)    .... 1000.000
   Orbital update algorithm             .... Taylor
   White noise on init. David. guess    .... on
   Maximum white noise                  ....   0.010
   Quad. conv. algorithm                .... NR
 SOSCF                  CNVSOSCF        .... off
 Level Shifting         CNVShift        .... off
 Zerner damping         CNVZerner       .... off
 Static damping         CNVDamp         .... off
 Fernandez-Rico         CNVRico         .... off

SCF Procedure:
 Maximum # iterations   MaxIter         ....   125
 SCF integral mode      SCFMode         .... Direct
   Integral package                     .... SHARK and LIBINT hybrid scheme
 Reset frequency        DirectResetFreq ....    20
 Integral Threshold     Thresh          ....  2.500e-11 Eh
 Primitive CutOff       TCut            ....  2.500e-12 Eh

Convergence Tolerance:
 Convergence Check Mode ConvCheckMode   .... Total+1el-Energy
 Convergence forced     ConvForced      .... 0
 Energy Change          TolE            ....  1.000e-08 Eh
 1-El. energy change                    ....  1.000e-05 Eh


Diagonalization of the overlap matrix:
Smallest eigenvalue                        ... 5.178e-04
Time for diagonalization                   ...    0.158 sec
Threshold for overlap eigenvalues          ... 1.000e-08
Number of eigenvalues below threshold      ... 0
Time for construction of square roots      ...    0.077 sec
Total time needed                          ...    0.236 sec

Time for model grid setup =    2.800 sec

------------------------------
INITIAL GUESS: MODEL POTENTIAL
------------------------------
Loading Hartree-Fock densities                     ... done
  calling /home/ehlert/src/miniconda3/envs/orca500/Programs/ORCA501/orca pbe_atom79.inp > pbe_atom79.out in order to generate an atomic fitting density for atom 0 (Au with ECP) on-the-fly... 
    atom 0 (Au), assumed electronic state with S=2: 1s2 2s2 2p6 3s2 3p6 4s2 3d10 4p6 5s2 4d10 5p6 6s1 4f14 5d10           ... done
Calculating cut-offs                               ... done
Initializing the effective Hamiltonian             ... done
Setting up the integral package (SHARK)            ... done
Starting the Coulomb interaction                   ... done (   4.6 sec)
[...]
 300( 0) :     0.475183 a.u.    12.930 eV
 301( 0) :     0.476187 a.u.    12.958 eV
 302( 0) :     0.478145 a.u.    13.011 eV
 303( 0) :     0.480776 a.u.    13.083 eV
 304( 0) :     0.482828 a.u.    13.138 eV
 305( 0) :     0.490888 a.u.    13.358 eV
 306( 0) :     0.491883 a.u.    13.385 eV
 307( 0) :     0.498079 a.u.    13.553 eV
 308( 0) :     0.499595 a.u.    13.595 eV
 309( 0) :     0.505207 a.u.    13.747 eV
 310( 0) :     0.507632 a.u.    13.813 eV
 311( 0) :     0.508993 a.u.    13.850 eV
 312( 0) :     0.514749 a.u.    14.007 eV
 313( 0) :     0.517005 a.u.    14.068 eV
 314( 0) :     0.517586 a.u.    14.084 eV
 315( 0) :     0.522204 a.u.    14.210 eV
 316( 0) :     0.525176 a.u.    14.291 eV
 317( 0) :     0.528146 a.u.    14.372 eV
 318( 0) :     0.531161 a.u.    14.454 eV
 319( 0) :     0.538849 a.u.    14.663 eV
 320( 0) :     0.547607 a.u.    14.901 eV
 321( 0) :     0.552733 a.u.    15.041 eV
 322( 0) :     0.555144 a.u.    15.106 eV
 323( 0) :     0.558137 a.u.    15.188 eV
 324( 0) :     0.569328 a.u.    15.492 eV
 325( 0) :     0.593193 a.u.    16.142 eV
 326( 0) :     0.600855 a.u.    16.350 eV
 327( 0) :     0.611752 a.u.    16.647 eV
 328( 0) :     0.637278 a.u.    17.341 eV
 329( 0) :     0.662896 a.u.    18.038 eV
 330( 0) :     0.670519 a.u.    18.246 eV
 331( 0) :     0.676017 a.u.    18.395 eV
 332( 0) :     0.684830 a.u.    18.635 eV
 333( 0) :     0.693292 a.u.    18.865 eV
 334( 0) :     0.702251 a.u.    19.109 eV
 335( 0) :     0.711096 a.u.    19.350 eV
 336( 0) :     0.717806 a.u.    19.532 eV
 337( 0) :     0.722371 a.u.    19.657 eV
 338( 0) :     0.729018 a.u.    19.838 eV
 339( 0) :     0.736868 a.u.    20.051 eV
 340( 0) :     0.740296 a.u.    20.144 eV
 341( 0) :     0.745565 a.u.    20.288 eV
 342( 0) :     0.754035 a.u.    20.518 eV
 343( 0) :     0.756713 a.u.    20.591 eV
 344( 0) :     0.764524 a.u.    20.804 eV
 345( 0) :     0.777850 a.u.    21.166 eV
 346( 0) :     0.785482 a.u.    21.374 eV
 347( 0) :     0.787402 a.u.    21.426 eV
 348( 0) :     0.800385 a.u.    21.780 eV
 349( 0) :     0.809440 a.u.    22.026 eV
 350( 0) :     0.815222 a.u.    22.183 eV
 351( 0) :     0.817665 a.u.    22.250 eV
 352( 0) :     0.823898 a.u.    22.419 eV
 353( 0) :     0.826577 a.u.    22.492 eV
 354( 0) :     0.831125 a.u.    22.616 eV
 355( 0) :     0.849130 a.u.    23.106 eV
 356( 0) :     0.852998 a.u.    23.211 eV
 357( 0) :     0.854445 a.u.    23.251 eV
 358( 0) :     0.858651 a.u.    23.365 eV
 359( 0) :     0.873506 a.u.    23.769 eV
 360( 0) :     0.877655 a.u.    23.882 eV
 361( 0) :     0.885156 a.u.    24.086 eV
 362( 0) :     0.890632 a.u.    24.235 eV
 363( 0) :     0.895026 a.u.    24.355 eV
 364( 0) :     0.902806 a.u.    24.567 eV
 365( 0) :     0.912182 a.u.    24.822 eV
 366( 0) :     0.915736 a.u.    24.918 eV
 367( 0) :     0.922719 a.u.    25.108 eV
 368( 0) :     0.939569 a.u.    25.567 eV
 369( 0) :     0.947238 a.u.    25.776 eV
 370( 0) :     0.952486 a.u.    25.918 eV
 371( 0) :     0.957830 a.u.    26.064 eV
 372( 0) :     0.968582 a.u.    26.356 eV
 373( 0) :     0.972986 a.u.    26.476 eV
 374( 0) :     0.988184 a.u.    26.890 eV
 375( 0) :     1.004012 a.u.    27.321 eV
 376( 0) :     1.020845 a.u.    27.779 eV
 377( 0) :     1.027148 a.u.    27.950 eV
 378( 0) :     1.047828 a.u.    28.513 eV
 379( 0) :     1.063233 a.u.    28.932 eV
 380( 0) :     1.087115 a.u.    29.582 eV
 381( 0) :     1.176846 a.u.    32.024 eV
 382( 0) :     1.205357 a.u.    32.799 eV
 383( 0) :     1.210991 a.u.    32.953 eV
 384( 0) :     1.224234 a.u.    33.313 eV
 385( 0) :     1.233785 a.u.    33.573 eV
 386( 0) :     1.236961 a.u.    33.659 eV
 387( 0) :     1.246127 a.u.    33.909 eV
 388( 0) :     1.253287 a.u.    34.104 eV
 389( 0) :     1.262766 a.u.    34.362 eV
 390( 0) :     1.267380 a.u.    34.487 eV
 391( 0) :     1.285755 a.u.    34.987 eV
 392( 0) :     1.292471 a.u.    35.170 eV
 393( 0) :     1.298663 a.u.    35.338 eV
 394( 0) :     1.308979 a.u.    35.619 eV
 395( 0) :     1.315958 a.u.    35.809 eV
 396( 0) :     1.320148 a.u.    35.923 eV
 397( 0) :     1.327298 a.u.    36.118 eV
 398( 0) :     1.330150 a.u.    36.195 eV
 399( 0) :     1.336514 a.u.    36.368 eV
 400( 0) :     1.338740 a.u.    36.429 eV
 401( 0) :     1.356020 a.u.    36.899 eV
 402( 0) :     1.358701 a.u.    36.972 eV
 403( 0) :     1.362916 a.u.    37.087 eV
 404( 0) :     1.364216 a.u.    37.122 eV
 405( 0) :     1.375304 a.u.    37.424 eV
 406( 0) :     1.378080 a.u.    37.499 eV
 407( 0) :     1.387230 a.u.    37.748 eV
 408( 0) :     1.387792 a.u.    37.764 eV
 409( 0) :     1.393942 a.u.    37.931 eV
 410( 0) :     1.395733 a.u.    37.980 eV
 411( 0) :     1.403900 a.u.    38.202 eV
 412( 0) :     1.408972 a.u.    38.340 eV
 413( 0) :     1.412705 a.u.    38.442 eV
 414( 0) :     1.415584 a.u.    38.520 eV
 415( 0) :     1.417956 a.u.    38.585 eV
 416( 0) :     1.422980 a.u.    38.721 eV
 417( 0) :     1.425623 a.u.    38.793 eV
 418( 0) :     1.426924 a.u.    38.829 eV
 419( 0) :     1.432326 a.u.    38.976 eV
 420( 0) :     1.437482 a.u.    39.116 eV
 421( 0) :     1.438053 a.u.    39.131 eV
 422( 0) :     1.439649 a.u.    39.175 eV
 423( 0) :     1.442539 a.u.    39.253 eV
 424( 0) :     1.444025 a.u.    39.294 eV
 425( 0) :     1.448396 a.u.    39.413 eV
 426( 0) :     1.449357 a.u.    39.439 eV
 427( 0) :     1.454930 a.u.    39.591 eV
 428( 0) :     1.458065 a.u.    39.676 eV
 429( 0) :     1.458771 a.u.    39.695 eV
 430( 0) :     1.462258 a.u.    39.790 eV
 431( 0) :     1.464088 a.u.    39.840 eV
 432( 0) :     1.466902 a.u.    39.916 eV
 433( 0) :     1.468617 a.u.    39.963 eV
 434( 0) :     1.473310 a.u.    40.091 eV
 435( 0) :     1.475987 a.u.    40.164 eV
 436( 0) :     1.477285 a.u.    40.199 eV
 437( 0) :     1.478399 a.u.    40.229 eV
 438( 0) :     1.480019 a.u.    40.273 eV
 439( 0) :     1.480819 a.u.    40.295 eV
 440( 0) :     1.482383 a.u.    40.338 eV
 441( 0) :     1.484800 a.u.    40.403 eV
 442( 0) :     1.487179 a.u.    40.468 eV
 443( 0) :     1.487758 a.u.    40.484 eV
 444( 0) :     1.489294 a.u.    40.526 eV
 445( 0) :     1.490478 a.u.    40.558 eV
 446( 0) :     1.491248 a.u.    40.579 eV
 447( 0) :     1.493122 a.u.    40.630 eV
 448( 0) :     1.494332 a.u.    40.663 eV
 449( 0) :     1.495051 a.u.    40.682 eV
 450( 0) :     1.497175 a.u.    40.740 eV
 451( 0) :     1.497667 a.u.    40.754 eV
 452( 0) :     1.498551 a.u.    40.778 eV
 453( 0) :     1.498803 a.u.    40.785 eV
 454( 0) :     1.499862 a.u.    40.813 eV
 455( 0) :     1.500231 a.u.    40.823 eV
 456( 0) :     1.502306 a.u.    40.880 eV
 457( 0) :     1.505114 a.u.    40.956 eV
 458( 0) :     1.505972 a.u.    40.980 eV
 459( 0) :     1.507432 a.u.    41.019 eV
 460( 0) :     1.507901 a.u.    41.032 eV
 461( 0) :     1.509040 a.u.    41.063 eV
 462( 0) :     1.510399 a.u.    41.100 eV
 463( 0) :     1.511314 a.u.    41.125 eV
 464( 0) :     1.513224 a.u.    41.177 eV
 465( 0) :     1.514598 a.u.    41.214 eV
 466( 0) :     1.515753 a.u.    41.246 eV
 467( 0) :     1.517706 a.u.    41.299 eV
 468( 0) :     1.518278 a.u.    41.314 eV
 469( 0) :     1.519660 a.u.    41.352 eV
 470( 0) :     1.520387 a.u.    41.372 eV
 471( 0) :     1.522167 a.u.    41.420 eV
 472( 0) :     1.522695 a.u.    41.435 eV
 473( 0) :     1.523357 a.u.    41.453 eV
 474( 0) :     1.525025 a.u.    41.498 eV
 475( 0) :     1.525367 a.u.    41.507 eV
 476( 0) :     1.526597 a.u.    41.541 eV
 477( 0) :     1.528166 a.u.    41.584 eV
 478( 0) :     1.530051 a.u.    41.635 eV
 479( 0) :     1.530917 a.u.    41.658 eV
 480( 0) :     1.533643 a.u.    41.733 eV
 481( 0) :     1.535118 a.u.    41.773 eV
 482( 0) :     1.539243 a.u.    41.885 eV
 483( 0) :     1.539651 a.u.    41.896 eV
 484( 0) :     1.540854 a.u.    41.929 eV
 485( 0) :     1.543520 a.u.    42.001 eV
 486( 0) :     1.546185 a.u.    42.074 eV
 487( 0) :     1.551080 a.u.    42.207 eV
 488( 0) :     1.551705 a.u.    42.224 eV
 489( 0) :     1.553358 a.u.    42.269 eV
 490( 0) :     1.556311 a.u.    42.349 eV
 491( 0) :     1.560536 a.u.    42.464 eV
 492( 0) :     1.562019 a.u.    42.505 eV
 493( 0) :     1.564934 a.u.    42.584 eV
 494( 0) :     1.565969 a.u.    42.612 eV
 495( 0) :     1.568766 a.u.    42.688 eV
 496( 0) :     1.571862 a.u.    42.773 eV
 497( 0) :     1.572601 a.u.    42.793 eV
 498( 0) :     1.574188 a.u.    42.836 eV
 499( 0) :     1.577399 a.u.    42.923 eV
 500( 0) :     1.579003 a.u.    42.967 eV
 501( 0) :     1.582244 a.u.    43.055 eV
 502( 0) :     1.585560 a.u.    43.145 eV
 503( 0) :     1.586830 a.u.    43.180 eV
 504( 0) :     1.587796 a.u.    43.206 eV
 505( 0) :     1.590263 a.u.    43.273 eV
 506( 0) :     1.594157 a.u.    43.379 eV
 507( 0) :     1.595289 a.u.    43.410 eV
 508( 0) :     1.595685 a.u.    43.421 eV
 509( 0) :     1.598369 a.u.    43.494 eV
 510( 0) :     1.602625 a.u.    43.610 eV
 511( 0) :     1.606163 a.u.    43.706 eV
 512( 0) :     1.607200 a.u.    43.734 eV
 513( 0) :     1.609671 a.u.    43.801 eV
 514( 0) :     1.615482 a.u.    43.960 eV
 515( 0) :     1.619873 a.u.    44.079 eV
 516( 0) :     1.621082 a.u.    44.112 eV
 517( 0) :     1.622639 a.u.    44.154 eV
 518( 0) :     1.624833 a.u.    44.214 eV
 519( 0) :     1.629076 a.u.    44.329 eV
 520( 0) :     1.631942 a.u.    44.407 eV
 521( 0) :     1.634694 a.u.    44.482 eV
 522( 0) :     1.638295 a.u.    44.580 eV
 523( 0) :     1.640750 a.u.    44.647 eV
 524( 0) :     1.644024 a.u.    44.736 eV
 525( 0) :     1.645392 a.u.    44.773 eV
 526( 0) :     1.649180 a.u.    44.876 eV
 527( 0) :     1.652183 a.u.    44.958 eV
 528( 0) :     1.657389 a.u.    45.100 eV
 529( 0) :     1.661011 a.u.    45.198 eV
 530( 0) :     1.668063 a.u.    45.390 eV
 531( 0) :     1.673548 a.u.    45.540 eV
 532( 0) :     1.674773 a.u.    45.573 eV
 533( 0) :     1.684504 a.u.    45.838 eV
 534( 0) :     1.689875 a.u.    45.984 eV
 535( 0) :     1.694249 a.u.    46.103 eV
 536( 0) :     1.697395 a.u.    46.188 eV
 537( 0) :     1.706548 a.u.    46.438 eV
 538( 0) :     1.712240 a.u.    46.592 eV
 539( 0) :     1.718085 a.u.    46.751 eV
 540( 0) :     1.727814 a.u.    47.016 eV
 541( 0) :     1.733869 a.u.    47.181 eV
 542( 0) :     1.737074 a.u.    47.268 eV
 543( 0) :     1.741710 a.u.    47.394 eV
 544( 0) :     1.750060 a.u.    47.622 eV
 545( 0) :     1.752267 a.u.    47.682 eV
 546( 0) :     1.761857 a.u.    47.943 eV
 547( 0) :     1.764499 a.u.    48.014 eV
 548( 0) :     1.765457 a.u.    48.041 eV
 549( 0) :     1.771927 a.u.    48.217 eV
 550( 0) :     1.776475 a.u.    48.340 eV
 551( 0) :     1.786358 a.u.    48.609 eV
 552( 0) :     1.791444 a.u.    48.748 eV
 553( 0) :     1.793935 a.u.    48.815 eV
 554( 0) :     1.798357 a.u.    48.936 eV
 555( 0) :     1.802578 a.u.    49.051 eV
 556( 0) :     1.807017 a.u.    49.171 eV
 557( 0) :     1.816111 a.u.    49.419 eV
 558( 0) :     1.817218 a.u.    49.449 eV
 559( 0) :     1.821166 a.u.    49.556 eV
 560( 0) :     1.822792 a.u.    49.601 eV
 561( 0) :     1.831762 a.u.    49.845 eV
 562( 0) :     1.835384 a.u.    49.943 eV
 563( 0) :     1.840201 a.u.    50.074 eV
 564( 0) :     1.844758 a.u.    50.198 eV
 565( 0) :     1.856926 a.u.    50.530 eV
 566( 0) :     1.867011 a.u.    50.804 eV
 567( 0) :     1.868092 a.u.    50.833 eV
 568( 0) :     1.884099 a.u.    51.269 eV
 569( 0) :     1.896125 a.u.    51.596 eV
 570( 0) :     1.899299 a.u.    51.683 eV
 571( 0) :     1.916195 a.u.    52.142 eV
 572( 0) :     1.937990 a.u.    52.735 eV
 573( 0) :     1.945748 a.u.    52.946 eV
 574( 0) :     2.049365 a.u.    55.766 eV
 575( 0) :     2.099537 a.u.    57.131 eV
 576( 0) :     2.120702 a.u.    57.707 eV
 577( 0) :     2.250083 a.u.    61.228 eV
 578( 0) :     2.273771 a.u.    61.872 eV
 579( 0) :     2.304365 a.u.    62.705 eV
 580( 0) :     2.335993 a.u.    63.566 eV
 581( 0) :     2.373915 a.u.    64.598 eV
 582( 0) :     2.422554 a.u.    65.921 eV
 583( 0) :     2.444636 a.u.    66.522 eV
 584( 0) :     2.476321 a.u.    67.384 eV
 585( 0) :     2.492658 a.u.    67.829 eV
 586( 0) :     2.512458 a.u.    68.367 eV
 587( 0) :     2.518445 a.u.    68.530 eV
 588( 0) :     2.534504 a.u.    68.967 eV
 589( 0) :     2.556063 a.u.    69.554 eV
 590( 0) :     2.574161 a.u.    70.046 eV
 591( 0) :     2.615789 a.u.    71.179 eV
 592( 0) :     2.750091 a.u.    74.834 eV
 593( 0) :     3.187935 a.u.    86.748 eV
 594( 0) :     3.203970 a.u.    87.184 eV
 595( 0) :     3.214479 a.u.    87.470 eV
 596( 0) :     3.222332 a.u.    87.684 eV
 597( 0) :     3.231439 a.u.    87.932 eV
 598( 0) :     3.236928 a.u.    88.081 eV
 599( 0) :     3.244926 a.u.    88.299 eV
 600( 0) :     3.257422 a.u.    88.639 eV
 601( 0) :     3.273027 a.u.    89.064 eV
 602( 0) :     3.307892 a.u.    90.012 eV
 603( 0) :     3.387844 a.u.    92.188 eV
 604( 0) :     3.432559 a.u.    93.405 eV
 605( 0) :    23.813099 a.u.   647.987 eV
 606( 0) :    23.980816 a.u.   652.551 eV
 607( 0) :    24.077419 a.u.   655.180 eV
 608( 0) :    24.159236 a.u.   657.406 eV
 609( 0) :    24.406699 a.u.   664.140 eV
 610( 0) :    24.472318 a.u.   665.926 eV
 611( 0) :    24.524452 a.u.   667.344 eV
 612( 0) :    24.740045 a.u.   673.211 eV
 613( 0) :    24.890290 a.u.   677.299 eV
 614( 0) :    24.896007 a.u.   677.455 eV
 615( 0) :    25.107585 a.u.   683.212 eV
 616( 0) :    25.184259 a.u.   685.299 eV
 617( 0) :    25.266664 a.u.   687.541 eV
 618( 0) :    25.321364 a.u.   689.029 eV
 619( 0) :    25.389897 a.u.   690.894 eV
 620( 0) :    25.425981 a.u.   691.876 eV
 621( 0) :    25.460628 a.u.   692.819 eV
 622( 0) :    25.523811 a.u.   694.538 eV
 623( 0) :    25.672813 a.u.   698.593 eV
 624( 0) :    25.741066 a.u.   700.450 eV
 625( 0) :    25.801028 a.u.   702.082 eV
 626( 0) :    25.812852 a.u.   702.403 eV
 627( 0) :    25.851261 a.u.   703.449 eV
 628( 0) :    25.959758 a.u.   706.401 eV
 629( 0) :    26.149522 a.u.   711.565 eV
 630( 0) :    26.200483 a.u.   712.951 eV
 631( 0) :    26.203511 a.u.   713.034 eV
 632( 0) :    26.255266 a.u.   714.442 eV
 633( 0) :    26.340906 a.u.   716.772 eV
 634( 0) :    26.382156 a.u.   717.895 eV
 635( 0) :    26.511612 a.u.   721.418 eV
 636( 0) :    26.577927 a.u.   723.222 eV
 637( 0) :    26.590276 a.u.   723.558 eV
 638( 0) :    26.676498 a.u.   725.904 eV
 639( 0) :    26.837063 a.u.   730.274 eV
 640( 0) :    26.872945 a.u.   731.250 eV
 641( 0) :    26.950112 a.u.   733.350 eV
 642( 0) :    27.050488 a.u.   736.081 eV
 643( 0) :    27.081252 a.u.   736.918 eV
 644( 0) :    27.155475 a.u.   738.938 eV
 645( 0) :    27.224269 a.u.   740.810 eV
 646( 0) :    27.456739 a.u.   747.136 eV
 647( 0) :    27.567535 a.u.   750.151 eV
 648( 0) :    27.598235 a.u.   750.986 eV
 649( 0) :    27.622948 a.u.   751.659 eV
 650( 0) :    27.823008 a.u.   757.103 eV
 651( 0) :    27.985752 a.u.   761.531 eV
 652( 0) :    28.169672 a.u.   766.536 eV
 653( 0) :    43.844201 a.u.  1193.061 eV
 654( 0) :    43.977649 a.u.  1196.693 eV
 655( 0) :    44.009731 a.u.  1197.566 eV
 656( 0) :    44.046411 a.u.  1198.564 eV
 657( 0) :    44.056658 a.u.  1198.843 eV
 658( 0) :    44.091297 a.u.  1199.785 eV
 659( 0) :    44.139948 a.u.  1201.109 eV
 660( 0) :    44.153735 a.u.  1201.484 eV
 661( 0) :    44.161055 a.u.  1201.683 eV
 662( 0) :    44.172592 a.u.  1201.997 eV
 663( 0) :    44.186563 a.u.  1202.378 eV
 664( 0) :    44.198683 a.u.  1202.707 eV
 665( 0) :    44.217811 a.u.  1203.228 eV
 666( 0) :    44.227400 a.u.  1203.489 eV
 667( 0) :    44.270976 a.u.  1204.675 eV
 668( 0) :    44.293820 a.u.  1205.296 eV
 669( 0) :   205.065354 a.u.  5580.112 eV
 670( 0) :   205.119815 a.u.  5581.594 eV
 671( 0) :   205.131105 a.u.  5581.901 eV
 672( 0) :   205.146880 a.u.  5582.330 eV
 673( 0) :   205.154867 a.u.  5582.548 eV
 674( 0) :   205.168900 a.u.  5582.930 eV
 675( 0) :   205.190813 a.u.  5583.526 eV
 676( 0) :   205.194963 a.u.  5583.639 eV
 677( 0) :   205.198692 a.u.  5583.740 eV
 678( 0) :   205.205102 a.u.  5583.915 eV
 679( 0) :   205.208095 a.u.  5583.996 eV
 680( 0) :   205.213005 a.u.  5584.130 eV
 681( 0) :   205.223473 a.u.  5584.415 eV
 682( 0) :   205.224148 a.u.  5584.433 eV
 683( 0) :   205.243656 a.u.  5584.964 eV
 684( 0) :   205.253419 a.u.  5585.229 eV
-------
TIMINGS
-------

Total SCF time: 0 days 0 hours 13 min 10 sec 

Total time                  ....     790.441 sec
Sum of individual times     ....     780.845 sec  ( 98.8%)

Fock matrix formation       ....     756.476 sec  ( 95.7%)
  Split-RI-J                ....     288.609 sec  ( 38.2% of F)
  XC integration            ....     466.836 sec  ( 61.7% of F)
    Basis function eval.    ....      65.201 sec  ( 14.0% of XC)
    Density eval.           ....     232.156 sec  ( 49.7% of XC)
    XC-Functional eval.     ....       7.156 sec  (  1.5% of XC)
    XC-Potential eval.      ....     143.323 sec  ( 30.7% of XC)
Diagonalization             ....       7.986 sec  (  1.0%)
Density matrix formation    ....       1.334 sec  (  0.2%)
Population analysis         ....       5.845 sec  (  0.7%)
Initial guess               ....       0.580 sec  (  0.1%)
Orbital Transformation      ....       2.262 sec  (  0.3%)
Orbital Orthonormalization  ....       0.510 sec  (  0.1%)
DIIS solution               ....       0.000 sec  (  0.0%)
Grid generation             ....       6.356 sec  (  0.8%)

Maximum memory used throughout the entire SCF-calculation: 729.9 MB

-------------------------   --------------------
FINAL SINGLE POINT ENERGY     -3324.020617351445
-------------------------   --------------------

                                *** OPTIMIZATION RUN DONE ***

                            ***************************************
                            *     ORCA property calculations      *
                            ***************************************

                                    ---------------------
                                    Active property flags
                                    ---------------------
   (+) Dipole Moment


------------------------------------------------------------------------------
                       ORCA ELECTRIC PROPERTIES CALCULATION
------------------------------------------------------------------------------

Dipole Moment Calculation                       ... on
Quadrupole Moment Calculation                   ... off
Polarizability Calculation                      ... off
GBWName                                         ... pbe.gbw
Electron density                                ... pbe.scfp
The origin for moment calculation is the CENTER OF MASS  = (12.952202, 14.246706 14.582165)

-------------
DIPOLE MOMENT
-------------
                                X             Y             Z
Electronic contribution:     46.08775       7.19868     -76.12548
Nuclear contribution   :    -46.07140      -7.37069      76.54824
                        -----------------------------------------
Total Dipole Moment    :      0.01635      -0.17201       0.42276
                        -----------------------------------------
Magnitude (a.u.)       :      0.45670
Magnitude (Debye)      :      1.16085



--------------------
Rotational spectrum 
--------------------
 
Rotational constants in cm-1:     0.000888     0.000782     0.000733 
Rotational constants in MHz :    26.629884    23.439977    21.983610 

 Dipole components along the rotational axes: 
x,y,z [a.u.] :     0.142223    -0.237091     0.363507 
x,y,z [Debye]:     0.361503    -0.602638     0.923962 

 

Timings for individual modules:

Sum of individual times         ...    38147.724 sec (= 635.795 min)
GTO integral calculation        ...      607.288 sec (=  10.121 min)   1.6 %
SCF iterations                  ...    30469.872 sec (= 507.831 min)  79.9 %
SCF Gradient evaluation         ...     7042.396 sec (= 117.373 min)  18.5 %
Geometry relaxation             ...       28.168 sec (=   0.469 min)   0.1 %
                             ****ORCA TERMINATED NORMALLY****
TOTAL RUN TIME: 0 days 10 hours 35 minutes 53 seconds 718 msec
