
                                 *****************
                                 * O   R   C   A *
                                 *****************

                                            #,                                       
                                            ###                                      
                                            ####                                     
                                            #####                                    
                                            ######                                   
                                           ########,                                 
                                     ,,################,,,,,                         
                               ,,#################################,,                 
                          ,,##########################################,,             
                       ,#########################################, ''#####,          
                    ,#############################################,,   '####,        
                  ,##################################################,,,,####,       
                ,###########''''           ''''###############################       
              ,#####''   ,,,,##########,,,,          '''####'''          '####       
            ,##' ,,,,###########################,,,                        '##       
           ' ,,###''''                  '''############,,,                           
         ,,##''                                '''############,,,,        ,,,,,,###''
      ,#''                                            '''#######################'''  
     '                                                          ''''####''''         
             ,#######,   #######,   ,#######,      ##                                
            ,#'     '#,  ##    ##  ,#'     '#,    #''#        ######   ,####,        
            ##       ##  ##   ,#'  ##            #'  '#       #        #'  '#        
            ##       ##  #######   ##           ,######,      #####,   #    #        
            '#,     ,#'  ##    ##  '#,     ,#' ,#      #,         ##   #,  ,#        
             '#######'   ##     ##  '#######'  #'      '#     #####' # '####'        



                  #######################################################
                  #                        -***-                        #
                  #          Department of theory and spectroscopy      #
                  #    Directorship and core code : Frank Neese         #
                  #        Max Planck Institute fuer Kohlenforschung    #
                  #                Kaiser Wilhelm Platz 1               #
                  #                 D-45470 Muelheim/Ruhr               #
                  #                      Germany                        #
                  #                                                     #
                  #                  All rights reserved                #
                  #                        -***-                        #
                  #######################################################


                         Program Version 5.0.3 -  RELEASE  -


 With contributions from (in alphabetic order):
   Daniel Aravena         : Magnetic Suceptibility
   Michael Atanasov       : Ab Initio Ligand Field Theory (pilot matlab implementation)
   Alexander A. Auer      : GIAO ZORA, VPT2 properties, NMR spectrum
   Ute Becker             : Parallelization
   Giovanni Bistoni       : ED, misc. LED, open-shell LED, HFLD
   Martin Brehm           : Molecular dynamics
   Dmytro Bykov           : SCF Hessian
   Vijay G. Chilkuri      : MRCI spin determinant printing, contributions to CSF-ICE
   Dipayan Datta          : RHF DLPNO-CCSD density
   Achintya Kumar Dutta   : EOM-CC, STEOM-CC
   Dmitry Ganyushin       : Spin-Orbit,Spin-Spin,Magnetic field MRCI
   Miquel Garcia          : C-PCM and meta-GGA Hessian, CC/C-PCM, Gaussian charge scheme
   Yang Guo               : DLPNO-NEVPT2, F12-NEVPT2, CIM, IAO-localization
   Andreas Hansen         : Spin unrestricted coupled pair/coupled cluster methods
   Benjamin Helmich-Paris : MC-RPA, TRAH-SCF, COSX integrals
   Lee Huntington         : MR-EOM, pCC
   Robert Izsak           : Overlap fitted RIJCOSX, COSX-SCS-MP3, EOM
   Marcus Kettner         : VPT2
   Christian Kollmar      : KDIIS, OOCD, Brueckner-CCSD(T), CCSD density, CASPT2, CASPT2-K
   Simone Kossmann        : Meta GGA functionals, TD-DFT gradient, OOMP2, MP2 Hessian
   Martin Krupicka        : Initial AUTO-CI
   Lucas Lang             : DCDCAS
   Marvin Lechner         : AUTO-CI (C++ implementation), FIC-MRCC
   Dagmar Lenk            : GEPOL surface, SMD
   Dimitrios Liakos       : Extrapolation schemes; Compound Job, initial MDCI parallelization
   Dimitrios Manganas     : Further ROCIS development; embedding schemes
   Dimitrios Pantazis     : SARC Basis sets
   Anastasios Papadopoulos: AUTO-CI, single reference methods and gradients
   Taras Petrenko         : DFT Hessian,TD-DFT gradient, ASA, ECA, R-Raman, ABS, FL, XAS/XES, NRVS
   Peter Pinski           : DLPNO-MP2, DLPNO-MP2 Gradient
   Christoph Reimann      : Effective Core Potentials
   Marius Retegan         : Local ZFS, SOC
   Christoph Riplinger    : Optimizer, TS searches, QM/MM, DLPNO-CCSD(T), (RO)-DLPNO pert. Triples
   Tobias Risthaus        : Range-separated hybrids, TD-DFT gradient, RPA, STAB
   Michael Roemelt        : Original ROCIS implementation
   Masaaki Saitow         : Open-shell DLPNO-CCSD energy and density
   Barbara Sandhoefer     : DKH picture change effects
   Avijit Sen             : IP-ROCIS
   Kantharuban Sivalingam : CASSCF convergence, NEVPT2, FIC-MRCI
   Bernardo de Souza      : ESD, SOC TD-DFT
   Georgi Stoychev        : AutoAux, RI-MP2 NMR, DLPNO-MP2 response
   Willem Van den Heuvel  : Paramagnetic NMR
   Boris Wezisla          : Elementary symmetry handling
   Frank Wennmohs         : Technical directorship


 We gratefully acknowledge several colleagues who have allowed us to
 interface, adapt or use parts of their codes:
   Stefan Grimme, W. Hujo, H. Kruse, P. Pracht,  : VdW corrections, initial TS optimization,
                  C. Bannwarth, S. Ehlert          DFT functionals, gCP, sTDA/sTD-DF
   Ed Valeev, F. Pavosevic, A. Kumar             : LibInt (2-el integral package), F12 methods
   Garnet Chan, S. Sharma, J. Yang, R. Olivares  : DMRG
   Ulf Ekstrom                                   : XCFun DFT Library
   Mihaly Kallay                                 : mrcc  (arbitrary order and MRCC methods)
   Jiri Pittner, Ondrej Demel                    : Mk-CCSD
   Frank Weinhold                                : gennbo (NPA and NBO analysis)
   Christopher J. Cramer and Donald G. Truhlar   : smd solvation model
   Lars Goerigk                                  : TD-DFT with DH, B97 family of functionals
   V. Asgeirsson, H. Jonsson                     : NEB implementation
   FAccTs GmbH                                   : IRC, NEB, NEB-TS, DLPNO-Multilevel, CI-OPT
                                                   MM, QMMM, 2- and 3-layer-ONIOM, Crystal-QMMM,
                                                   LR-CPCM, SF, NACMEs, symmetry and pop. for TD-DFT,
                                                   nearIR, NL-DFT gradient (VV10), updates on ESD,
                                                   ML-optimized integration grids
   S Lehtola, MJT Oliveira, MAL Marques          : LibXC Library
   Liviu Ungur et al                             : ANISO software


 Your calculation uses the libint2 library for the computation of 2-el integrals
 For citations please refer to: http://libint.valeyev.net

 Your ORCA version has been built with support for libXC version: 5.1.0
 For citations please refer to: https://tddft.org/programs/libxc/

 This ORCA versions uses:
   CBLAS   interface :  Fast vector & matrix operations
   LAPACKE interface :  Fast linear algebra routines
   SCALAPACK package :  Parallel linear algebra routines
   Shared memory     :  Shared parallel matrices
   BLAS/LAPACK       :  OpenBLAS 0.3.15  USE64BITINT DYNAMIC_ARCH NO_AFFINITY Haswell SINGLE_THREADED
        Core in use  :  Haswell
   Copyright (c) 2011-2014, The OpenBLAS Project




***************************************
The coordinates will be read from file: pbe.xyz
***************************************


================================================================================

cite the ECPs for Au [Def2-ECP] as follows:
Ce-Yb(ecp-28): M. Dolg, H. Stoll, H.Preuss, J. Chem. Phys., 1989, 90, 1730-1734.
Y-Cd(ecp-28), Hf-Hg(ecp-46): D. Andrae,U. Haeussermann, M. Dolg, H. Stoll, H. Preuss, Theor. Chim. Acta, 1990, 77, 123-141.
In-Sb(ecp-28), Tl-Bi(ecp-46): B. Metz, H. Stoll, M. Dolg, J. Chem. Phys., 2000, 113, 2563-2569.
Te-Xe(ecp-28), Po-Rn(ecp-46): K. A. Peterson, D. Figgen, E. Goll, H. Stoll, M. Dolg, J. Chem. Phys., 2003, 119, 11113-11123.
Rb(ecp-28), Cs(ecp-46): T. Leininger, A. Nicklass, W. Kuechle, H. Stoll, M. Dolg, A. Bergner, Chem. Phys. Lett., 1996, 255, 274-280.
Sr(ecp-28), Ba(ecp-46): M. Kaupp, P. V. Schleyer, H. Stoll and H. Preuss, J. Chem. Phys., 1991, 94, 1360-1366.
La(ecp-46): M. Dolg, H. Stoll, A. Savin, H. Preuss, Theor. Chim. Acta, 1989, 75, 173-194.
Lu(ecp-28): X. Cao, M. Dolg, J. Chem. Phys., 2001, 115, 7348-7355.

ECP parameters for Au [Def2-ECP] have been obtained from:
TURBOMOLE (7.0.2)

----- Orbital basis set information -----
Your calculation utilizes the basis: def2-TZVP
   F. Weigend and R. Ahlrichs, Phys. Chem. Chem. Phys. 7, 3297 (2005).

----- AuxJ basis set information -----
Your calculation utilizes the auxiliary basis: def2/J
   F. Weigend, Phys. Chem. Chem. Phys. 8, 1057 (2006).

================================================================================
                                        WARNINGS
                       Please study these warnings very carefully!
================================================================================


WARNING: your system is open-shell and RHF/RKS was chosen
  ===> : WILL SWITCH to UHF/UKS


INFO   : the flag for use of the SHARK integral package has been found!



***************************************
The coordinates will be read from file: pbe.xyz
***************************************


================================================================================

cite the ECPs for Au [Def2-ECP] as follows:
Ce-Yb(ecp-28): M. Dolg, H. Stoll, H.Preuss, J. Chem. Phys., 1989, 90, 1730-1734.
Y-Cd(ecp-28), Hf-Hg(ecp-46): D. Andrae,U. Haeussermann, M. Dolg, H. Stoll, H. Preuss, Theor. Chim. Acta, 1990, 77, 123-141.
In-Sb(ecp-28), Tl-Bi(ecp-46): B. Metz, H. Stoll, M. Dolg, J. Chem. Phys., 2000, 113, 2563-2569.
Te-Xe(ecp-28), Po-Rn(ecp-46): K. A. Peterson, D. Figgen, E. Goll, H. Stoll, M. Dolg, J. Chem. Phys., 2003, 119, 11113-11123.
Rb(ecp-28), Cs(ecp-46): T. Leininger, A. Nicklass, W. Kuechle, H. Stoll, M. Dolg, A. Bergner, Chem. Phys. Lett., 1996, 255, 274-280.
Sr(ecp-28), Ba(ecp-46): M. Kaupp, P. V. Schleyer, H. Stoll and H. Preuss, J. Chem. Phys., 1991, 94, 1360-1366.
La(ecp-46): M. Dolg, H. Stoll, A. Savin, H. Preuss, Theor. Chim. Acta, 1989, 75, 173-194.
Lu(ecp-28): X. Cao, M. Dolg, J. Chem. Phys., 2001, 115, 7348-7355.

ECP parameters for Au [Def2-ECP] have been obtained from:
TURBOMOLE (7.0.2)

----- Orbital basis set information -----
Your calculation utilizes the basis: def2-TZVP
   F. Weigend and R. Ahlrichs, Phys. Chem. Chem. Phys. 7, 3297 (2005).

----- AuxJ basis set information -----
Your calculation utilizes the auxiliary basis: def2/J
   F. Weigend, Phys. Chem. Chem. Phys. 8, 1057 (2006).

================================================================================
                                        WARNINGS
                       Please study these warnings very carefully!
================================================================================


INFO   : the flag for use of the SHARK integral package has been found!

================================================================================
                                       INPUT FILE
================================================================================
NAME = pbeSP.inp
|  1> !PBE def2-TZVP VERYSLOWCONV
|  2> 
|  3> %pal nprocs 6 end 
|  4> 
|  5> *xyzfile 0 5 pbe.xyz
|  6> 
|  7> $new_job
|  8> 
|  9> !PBE def2-TZVP VERYSLOWCONV
| 10>  
| 11> 
| 12> %pal nprocs 6 end 
| 13> 
| 14> *xyzfile 0 3 pbe.xyz
| 15> 
| 16> 
| 17> 
| 18> 
| 19> 
| 20>                          ****END OF INPUT****
================================================================================


                 $$$$$$$$$$$$$$$$$$$$$$$$$$$$$$$$$$$$$$$$$$$$$$ 
                 $ THERE ARE  2 JOBS TO BE PROCESSED THIS RUN $
                 $$$$$$$$$$$$$$$$$$$$$$$$$$$$$$$$$$$$$$$$$$$$$$ 




                 $$$$$$$$$$$$$$$$  JOB NUMBER  1 $$$$$$$$$$$$$$


                       ****************************
                       * Single Point Calculation *
                       ****************************

---------------------------------
CARTESIAN COORDINATES (ANGSTROEM)
---------------------------------
  Au     7.735625   10.021001    6.320655
  Au     6.714205   10.099642    3.793133
  Au     5.353098    6.261140    5.126060
  Au     7.706315    7.684291    4.661576
  Au     4.758137    7.100000    7.725146
  Au     5.132316    8.972509    5.745763
  Au     5.770792    9.803221    8.356111
  Au     9.294783    5.924236    8.768414
  Au     7.710105    5.620544    6.480858
  Au     8.456922    7.759178   10.690639
  Au     9.569718    7.902554    6.759605
  Au     5.696273    7.735921   10.290891
  Au     8.689304    9.792140    8.876154
  Au     6.546088    5.334831    9.066909
  Fe     7.337272    7.678162    8.157562

----------------------------
CARTESIAN COORDINATES (A.U.)
----------------------------
  NO LB      ZA    FRAG     MASS         X           Y           Z
   0 Au   19.0000*   0   196.966   14.618212   18.936948   11.944307
   1 Au   19.0000*   0   196.966   12.688009   19.085558    7.167983
   2 Au   19.0000*   0   196.966   10.115889   11.831840    9.686849
   3 Au   19.0000*   0   196.966   14.562824   14.521205    8.809102
   4 Au   19.0000*   0   196.966    8.991576   13.417056   14.598410
   5 Au   19.0000*   0   196.966    9.698671   16.955585   10.857919
   6 Au   19.0000*   0   196.966   10.905216   18.525402   15.790761
   7 Au   19.0000*   0   196.966   17.564593   11.195183   16.569901
   8 Au   19.0000*   0   196.966   14.569987   10.621290   12.247046
   9 Au   19.0000*   0   196.966   15.981267   14.662722   20.202380
  10 Au   19.0000*   0   196.966   18.084147   14.933664   12.773803
  11 Au   19.0000*   0   196.966   10.764396   14.618773   19.446965
  12 Au   19.0000*   0   196.966   16.420405   18.504462   16.773500
  13 Au   19.0000*   0   196.966   12.370313   10.081370   17.133975
  14 Fe   26.0000    0    55.850   13.865434   14.509623   15.415558
* core charge reduced due to ECP

--------------------------------
INTERNAL COORDINATES (ANGSTROEM)
--------------------------------
 Au     0   0   0     0.000000000000     0.00000000     0.00000000
 Au     1   0   0     2.727242008881     0.00000000     0.00000000
 Au     2   1   0     4.285254355796    78.74701361     0.00000000
 Au     2   1   3     2.751798895237    63.07540541   321.20145817
 Au     3   2   1     2.795158891471    95.04936717    39.28221955
 Au     5   3   2     2.750319234557    60.40671197    15.79765073
 Au     6   5   3     2.812765349049    64.15466952   208.46500451
 Au     4   2   1     4.742060689914   136.04319914     8.02524288
 Au     4   2   1     2.751154159118   150.18248995    56.89690646
 Au     8   4   2     2.786391179056   104.61389988    14.47377556
 Au     4   2   1     2.814540559594   113.94607614   337.48858849
 Au    10   8   4     2.789538483126   101.14155787    58.13084710
 Au    10   8   4     2.734828959452    90.35950793   328.33968875
 Au    12  10   8     2.825871747660    76.79364471    18.72772472
 Fe    13  10   8     2.610223655287    62.39364689    50.42079880

---------------------------
INTERNAL COORDINATES (A.U.)
---------------------------
 Au     0   0   0     0.000000000000     0.00000000     0.00000000
 Au     1   0   0     5.153740497710     0.00000000     0.00000000
 Au     2   1   0     8.097957146647    78.74701361     0.00000000
 Au     2   1   3     5.200146287626    63.07540541   321.20145817
 Au     3   2   1     5.282084805676    95.04936717    39.28221955
 Au     5   3   2     5.197350134168    60.40671197    15.79765073
 Au     6   5   3     5.315356188687    64.15466952   208.46500451
 Au     4   2   1     8.961196014371   136.04319914     8.02524288
 Au     4   2   1     5.198927912931   150.18248995    56.89690646
 Au     8   4   2     5.265516230389   104.61389988    14.47377556
 Au     4   2   1     5.318710850446   113.94607614   337.48858849
 Au    10   8   4     5.271463773142   101.14155787    58.13084710
 Au    10   8   4     5.168077756481    90.35950793   328.33968875
 Au    12  10   8     5.340123692663    76.79364471    18.72772472
 Fe    13  10   8     4.932607856776    62.39364689    50.42079880

---------------------
BASIS SET INFORMATION
---------------------
There are 2 groups of distinct atoms

 Group   1 Type Au  : 8s7p6d1f contracted to 6s4p3d1f pattern {311111/4111/411/1}
 Group   2 Type Fe  : 17s11p7d1f contracted to 6s4p4d1f pattern {842111/6311/4111/1}

Atom   0Au   basis set group =>   1
Atom   1Au   basis set group =>   1
Atom   2Au   basis set group =>   1
Atom   3Au   basis set group =>   1
Atom   4Au   basis set group =>   1
Atom   5Au   basis set group =>   1
Atom   6Au   basis set group =>   1
Atom   7Au   basis set group =>   1
Atom   8Au   basis set group =>   1
Atom   9Au   basis set group =>   1
Atom  10Au   basis set group =>   1
Atom  11Au   basis set group =>   1
Atom  12Au   basis set group =>   1
Atom  13Au   basis set group =>   1
Atom  14Fe   basis set group =>   2
---------------------------------
AUXILIARY/J BASIS SET INFORMATION
---------------------------------
There are 2 groups of distinct atoms

 Group   1 Type Au  : 11s5p5d3f3g contracted to 8s5p5d2f3g pattern {41111111/11111/11111/21/111}
 Group   2 Type Fe  : 19s5p5d3f3g contracted to 8s5p5d2f3g pattern {121111111/11111/11111/21/111}

Atom   0Au   basis set group =>   1
Atom   1Au   basis set group =>   1
Atom   2Au   basis set group =>   1
Atom   3Au   basis set group =>   1
Atom   4Au   basis set group =>   1
Atom   5Au   basis set group =>   1
Atom   6Au   basis set group =>   1
Atom   7Au   basis set group =>   1
Atom   8Au   basis set group =>   1
Atom   9Au   basis set group =>   1
Atom  10Au   basis set group =>   1
Atom  11Au   basis set group =>   1
Atom  12Au   basis set group =>   1
Atom  13Au   basis set group =>   1
Atom  14Fe   basis set group =>   2
-------------------------
ECP PARAMETER INFORMATION
-------------------------

 Group 1, Type Au ECP Def2-ECP (replacing 60 core electrons, lmax=3)

Atom   0Au   ECP group =>   1
Atom   1Au   ECP group =>   1
Atom   2Au   ECP group =>   1
Atom   3Au   ECP group =>   1
Atom   4Au   ECP group =>   1
Atom   5Au   ECP group =>   1
Atom   6Au   ECP group =>   1
Atom   7Au   ECP group =>   1
Atom   8Au   ECP group =>   1
Atom   9Au   ECP group =>   1
Atom  10Au   ECP group =>   1
Atom  11Au   ECP group =>   1
Atom  12Au   ECP group =>   1
Atom  13Au   ECP group =>   1



           ************************************************************
           *        Program running with 6 parallel MPI-processes     *
           *              working on a common directory               *
           ************************************************************
------------------------------------------------------------------------------
                           ORCA GTO INTEGRAL CALCULATION
                           -- RI-GTO INTEGRALS CHOSEN --
------------------------------------------------------------------------------
------------------------------------------------------------------------------
                   ___                                                        
                  /   \      - P O W E R E D   B Y -                         
                 /     \                                                     
                 |  |  |   _    _      __       _____    __    __             
                 |  |  |  | |  | |    /  \     |  _  \  |  |  /  |          
                  \  \/   | |  | |   /    \    | | | |  |  | /  /          
                 / \  \   | |__| |  /  /\  \   | |_| |  |  |/  /          
                |  |  |   |  __  | /  /__\  \  |    /   |      \           
                |  |  |   | |  | | |   __   |  |    \   |  |\   \          
                \     /   | |  | | |  |  |  |  | |\  \  |  | \   \       
                 \___/    |_|  |_| |__|  |__|  |_| \__\ |__|  \__/        
                                                                              
                      - O R C A' S   B I G   F R I E N D -                    
                                      &                                       
                       - I N T E G R A L  F E E D E R -                       
                                                                              
 v1 FN, 2020, v2 2021                                                         
------------------------------------------------------------------------------


Reading SHARK input file pbeSP.SHARKINP.tmp ... ok
----------------------
SHARK INTEGRAL PACKAGE
----------------------

Number of atoms                             ...     15
Number of basis functions                   ...    605
Number of shells                            ...    211
Maximum angular momentum                    ...      3
Integral batch strategy                     ... SHARK/LIBINT Hybrid
RI-J (if used) integral strategy            ... SPLIT-RIJ (Revised 2003 algorithm where possible)
Printlevel                                  ...      1
Contraction scheme used                     ... SEGMENTED contraction
Coulomb Range Separation                    ... NOT USED
Exchange Range Separation                   ... NOT USED
Finite Nucleus Model                        ... NOT USED
Auxiliary Coulomb fitting basis             ... AVAILABLE
   # of basis functions in Aux-J            ...   1335
   # of shells in Aux-J                     ...    345
   Maximum angular momentum in Aux-J        ...      4
Auxiliary J/K fitting basis                 ... NOT available
Auxiliary Correlation fitting basis         ... NOT available
Auxiliary 'external' fitting basis          ... NOT available
Integral threshold                          ...     1.000000e-10
Primitive cut-off                           ...     1.000000e-11
Primitive pair pre-selection threshold      ...     1.000000e-11

Calculating pre-screening integrals         ... done (  0.3 sec) Dimension = 211
Organizing shell pair data                  ... done (  0.8 sec)
Shell pair information
Total number of shell pairs                 ...     22366
Shell pairs after pre-screening             ...     17732
Total number of primitive shell pairs       ...     59609
Primitive shell pairs kept                  ...     34150
          la=0 lb=0:   2777 shell pairs
          la=1 lb=0:   4028 shell pairs
          la=1 lb=1:   1527 shell pairs
          la=2 lb=0:   3529 shell pairs
          la=2 lb=1:   2482 shell pairs
          la=2 lb=2:   1024 shell pairs
          la=3 lb=0:    924 shell pairs
          la=3 lb=1:    718 shell pairs
          la=3 lb=2:    623 shell pairs
          la=3 lb=3:    100 shell pairs

Calculating one electron integrals          ... done (  0.3 sec)
Calculating ECP integrals                   ... done ( 16.0 sec)
Calculating RI/J V-Matrix + Cholesky decomp.... done (  2.3 sec)
Calculating Nuclear repulsion               ... done (  0.0 sec) ENN=   5698.526858540804 Eh

SHARK setup successfully completed in  21.0 seconds

Maximum memory used throughout the entire GTOINT-calculation: 34.5 MB


           ************************************************************
           *        Program running with 6 parallel MPI-processes     *
           *              working on a common directory               *
           ************************************************************
-------------------------------------------------------------------------------
                                 ORCA SCF
-------------------------------------------------------------------------------

------------
SCF SETTINGS
------------
Hamiltonian:
 Density Functional     Method          .... DFT(GTOs)
 Exchange Functional    Exchange        .... PBE
   PBE kappa parameter   XKappa         ....  0.804000
   PBE mue parameter    XMuePBE         ....  0.219520
 Correlation Functional Correlation     .... PBE
   PBE beta parameter  CBetaPBE         ....  0.066725
 LDA part of GGA corr.  LDAOpt          .... PW91-LDA
 Gradients option       PostSCFGGA      .... off
   Density functional embedding theory  .... OFF
   NL short-range parameter             ....  6.400000
 RI-approximation to the Coulomb term is turned on
   Number of AuxJ basis functions       .... 1335


General Settings:
 Integral files         IntName         .... pbeSP
 Hartree-Fock type      HFTyp           .... UHF
 Total Charge           Charge          ....    0
 Multiplicity           Mult            ....    5
 Number of Electrons    NEL             ....  292
 Basis Dimension        Dim             ....  605
 Nuclear Repulsion      ENuc            ....   5698.5268585408 Eh

Convergence Acceleration:
 DIIS                   CNVDIIS         .... on
   Start iteration      DIISMaxIt       ....     0
   Startup error        DIISStart       ....  0.200000
   # of expansion vecs  DIISMaxEq       ....     5
   Bias factor          DIISBfac        ....   1.050
   Max. coefficient     DIISMaxC        ....  10.000
 Trust-Rad. Augm. Hess. CNVTRAH         .... auto
   Auto Start mean grad. ratio tolernc. ....  1.125000
   Auto Start start iteration           ....    20
   Auto Start num. interpolation iter.  ....    10
   Max. Number of Micro iterations      ....    16
   Max. Number of Macro iterations      .... Maxiter - #DIIS iter
   Number of Davidson start vectors     ....     2
   Converg. threshold I  (grad. norm)   ....   5.000e-05
   Converg. threshold II (energy diff.) ....   1.000e-06
   Grad. Scal. Fac. for Micro threshold ....   0.100
   Minimum threshold for Micro iter.    ....   0.010
   NR start threshold (gradient norm)   ....   0.001
   Initial trust radius                 ....   0.400
   Minimum AH scaling param. (alpha)    ....   1.000
   Maximum AH scaling param. (alpha)    .... 1000.000
   Orbital update algorithm             .... Taylor
   White noise on init. David. guess    .... on
   Maximum white noise                  ....   0.010
   Quad. conv. algorithm                .... NR
 SOSCF                  CNVSOSCF        .... off
 Level Shifting         CNVShift        .... on
   Level shift para.    LevelShift      ....    0.2500
   Turn off err/grad.   ShiftErr        ....    0.0000
 Zerner damping         CNVZerner       .... off
 Static damping         CNVDamp         .... on
   Fraction old density DampFac         ....    0.9200
   Max. Damping (<1)    DampMax         ....    0.9800
   Min. Damping (>=0)   DampMin         ....    0.0000
   Turn off err/grad.   DampErr         ....    0.0030
 Fernandez-Rico         CNVRico         .... off

SCF Procedure:
 Maximum # iterations   MaxIter         ....   125
 SCF integral mode      SCFMode         .... Direct
   Integral package                     .... SHARK and LIBINT hybrid scheme
 Reset frequency        DirectResetFreq ....    20
 Integral Threshold     Thresh          ....  1.000e-10 Eh
 Primitive CutOff       TCut            ....  1.000e-11 Eh

Convergence Tolerance:
 Convergence Check Mode ConvCheckMode   .... Total+1el-Energy
 Convergence forced     ConvForced      .... 0
 Energy Change          TolE            ....  1.000e-06 Eh
 1-El. energy change                    ....  1.000e-03 Eh
 DIIS Error             TolErr          ....  1.000e-06


Diagonalization of the overlap matrix:
Smallest eigenvalue                        ... 3.899e-04
Time for diagonalization                   ...    0.056 sec
Threshold for overlap eigenvalues          ... 1.000e-08
Number of eigenvalues below threshold      ... 0
Time for construction of square roots      ...    0.277 sec
Total time needed                          ...    0.564 sec

Time for model grid setup =    1.448 sec

------------------------------
INITIAL GUESS: MODEL POTENTIAL
------------------------------
Loading Hartree-Fock densities                     ... done
  calling /media/Programs/ORCA501/orca pbeSP_atom79.inp > pbeSP_atom79.out in order to generate an atomic fitting density for atom 0 (Au with ECP) on-the-fly... 
    atom 0 (Au), assumed electronic state with S=2: 1s2 2s2 2p6 3s2 3p6 4s2 3d10 4p6 5s2 4d10 5p6 6s1 4f14 5d10           ... done
Calculating cut-offs                               ... done
Initializing the effective Hamiltonian             ... done
Setting up the integral package (SHARK)            ... done
Starting the Coulomb interaction                   ... done (   1.4 sec)
Reading the grid                                   ... done
Mapping shells                                     ... done
Starting the XC term evaluation                    ... done (   0.8 sec)
  promolecular density results
     # of electrons  =   1132.014302667
     EX              =  -5175.634109715
     EC              =    -68.980513283
     EX+EC           =  -5244.614622998
Transforming the Hamiltonian                       ... done (   0.6 sec)
Diagonalizing the Hamiltonian                      ... done (   0.2 sec)
Back transforming the eigenvectors                 ... done (   0.0 sec)
Now organizing SCF variables                       ... done
                      ------------------
                      INITIAL GUESS DONE (   5.3 sec)
                      ------------------
-------------------
DFT GRID GENERATION
-------------------

General Integration Accuracy     IntAcc      ... 4.388
Radial Grid Type                 RadialGrid  ... OptM3 with GC (2021)
Angular Grid (max. ang.)         AngularGrid ... 4 (Lebedev-302)
Angular grid pruning method      GridPruning ... 4 (adaptive)
Weight generation scheme         WeightScheme... Becke
Basis function cutoff            BFCut       ... 1.0000e-10
Integration weight cutoff        WCut        ... 1.0000e-14
Angular grids for H and He will be reduced by one unit
Partially contracted basis set               ... off
Rotationally invariant grid construction     ... off

Total number of grid points                  ...   165811
Total number of batches                      ...     2597
Average number of points per batch           ...       63
Average number of grid points per atom       ...    11054
Time for grid setup =    2.899 sec

--------------
SCF ITERATIONS
--------------
ITER       Energy         Delta-E        Max-DP      RMS-DP      [F,P]     Damp
               ***  Starting incremental Fock matrix formation  ***
  0  -3161.4578150450   0.000000000000 0.18557011  0.00083482  0.5563652 0.9200
  1  -3162.8490194749  -1.391204429877 0.12951240  0.00070570  0.3535174 0.9200
                               ***Turning on DIIS***
  2  -3163.5758559376  -0.726836462706 0.06899697  0.00053521  0.2419623 0.9200
  3  -3163.8746332558  -0.298777318203 0.05319655  0.00043752  0.2217667 0.9200
  4  -3163.9584919094  -0.083858653611 0.06318599  0.00039338  0.2033748 0.9200
  5  -3163.9763371024  -0.017845193010 0.03911587  0.00031972  0.1866140 0.9200
  6  -3164.0749973831  -0.098660280671 0.04043475  0.00028697  0.1711721 0.9200
  7  -3164.1682242309  -0.093226847814 0.04342904  0.00027155  0.1571081 0.9200
  8  -3164.2219282366  -0.053704005682 0.04576036  0.00025534  0.1444193 0.9200
  9  -3164.2788252946  -0.056897058063 0.04548708  0.00025501  0.1328018 0.9200
 10  -3164.3295399234  -0.050714628748 0.03741403  0.00021784  0.1219879 0.9200
 11  -3164.3638009294  -0.034261005976 0.02773333  0.00019181  0.1122682 0.9200
 12  -3164.4148679342  -0.051067004817 0.02287995  0.00018801  0.1031818 0.9200
 13  -3164.4675132201  -0.052645285914 0.02428217  0.00017490  0.0946853 0.9200
 14  -3164.5044166719  -0.036903451855 0.02630838  0.00016407  0.0869803 0.9200
 15  -3164.5414886128  -0.037071940900 0.02702711  0.00016005  0.0798973 0.9200
 16  -3164.5779429138  -0.036454300972 0.02547205  0.00014739  0.0734355 0.9200
 17  -3164.6078913914  -0.029948477601 0.02409038  0.00013470  0.0675967 0.9200
 18  -3164.6381762117  -0.030284820303 0.02207350  0.00013268  0.0621548 0.9200
 19  -3164.6677238475  -0.029547635835 0.02052611  0.00012874  0.0570472 0.9200
               *** Restarting incremental Fock matrix formation ***
                                   *** Resetting DIIS ***

 WARNING: the maximum gradient error descreased on average only by a factor   1.1
          during the last 20 iterations

                      *** Initiating the TRAH-SCF procedure ***


TRAH GRID
---------

General Integration Accuracy     IntAcc      ... 3.467
Radial Grid Type                 RadialGrid  ... OptM3 with GC (2021)
Angular Grid (max. ang.)         AngularGrid ... 1 (Lebedev-50)
Angular grid pruning method      GridPruning ... 4 (adaptive)
Weight generation scheme         WeightScheme... Becke
Basis function cutoff            BFCut       ... 1.0000e-10
Integration weight cutoff        WCut        ... 1.0000e-14
Angular grids for H and He will be reduced by one unit
Partially contracted basis set               ... off
Rotationally invariant grid construction     ... off

Total number of grid points                  ...    71508
Total number of batches                      ...     1126
Average number of points per batch           ...       63
Average number of grid points per atom       ...     4767

 --------------------------------------------------------------------------------------------
   Iter.        energy            ||Error||_2        Shift      TRadius  Mac/Mic        Rej.
 --------------------------------------------------------------------------------------------
WARNING: 315 diagonal Hessian elements are negative!
    0      -3164.864980843849     7.696320e-01                     0.400 (TRAH MAcro)   No
WARNING : negative HOMO - LUMO gap : (op = alpha) -0.296825
WARNING : negative HOMO - LUMO gap : (op =  beta) -0.223931
    0     dE    -1.040066e-01     3.927227e-01    -1.0220e-01      0.133 (TRAH MIcro)
    0     dE    -1.483705e-01     6.646647e-02    -1.3904e-01      0.259 (TRAH MIcro)
    0     dE    -1.516915e-01     5.161130e-02    -1.4152e-01      0.268 (TRAH MIcro)
    0     dE    -1.574728e-01     4.613621e-02    -1.4474e-01      0.297 (TRAH MIcro)
    0     dE    -1.638294e-01     5.547766e-02    -1.4783e-01      0.329 (TRAH MIcro)
    0     dE    -1.715909e-01     3.504024e-02    -1.5061e-01      0.373 (TRAH MIcro)
    0     dE    -1.747597e-01     3.520228e-02    -1.5138e-01      0.393 (TRAH MIcro)
    0     dE    -1.787054e-01     6.185774e-02    -1.9141e-01      0.400 (TRAH MIcro)
    0     dE    -1.813142e-01     4.529437e-02    -2.3036e-01      0.400 (TRAH MIcro)
    0     dE    -1.607707e-01     2.948454e-02    -3.0370e-01      0.279 (TRAH MIcro)
    0     dE    -1.598028e-01     6.935302e-03    -3.0434e-01      0.271 (TRAH MIcro)
WARNING: 2 diagonal Hessian elements are negative!
    1      -3165.016585410833     5.752300e-02                     0.480 (TRAH MAcro)   No
WARNING : negative HOMO - LUMO gap : (op = alpha) -0.023813
    1     dE    -2.219953e-03     9.555261e-02    -2.2167e-03      0.039 (TRAH MIcro)
    1     dE    -1.170727e-02     2.570597e-01    -1.0639e-02      0.317 (TRAH MIcro)
    1     dE    -2.232986e-02     8.201153e-02    -3.0664e-02      0.480 (TRAH MIcro)
    1     dE    -2.429637e-02     4.136785e-02    -3.6891e-02      0.480 (TRAH MIcro)
    1     dE    -2.590839e-02     3.916678e-02    -4.0282e-02      0.480 (TRAH MIcro)
    1     dE    -2.677352e-02     3.591062e-02    -4.2550e-02      0.480 (TRAH MIcro)
    1     dE    -2.808907e-02     5.321105e-02    -4.6017e-02      0.480 (TRAH MIcro)
    1     dE    -3.120422e-02     5.373817e-02    -5.8440e-02      0.480 (TRAH MIcro)
    1     dE    -3.296614e-02     2.941700e-02    -6.7909e-02      0.479 (TRAH MIcro)
    1     dE    -3.346736e-02     1.421035e-02    -6.9595e-02      0.480 (TRAH MIcro)
    1     dE    -3.357289e-02     6.639114e-03    -6.9916e-02      0.480 (TRAH MIcro)
    1     dE    -3.359426e-02     3.415465e-03    -6.9880e-02      0.480 (TRAH MIcro)
WARNING: 1 diagonal Hessian elements are negative!
    2      -3165.047239463648     3.182873e-02                     0.576 (TRAH MAcro)   No
WARNING : negative HOMO - LUMO gap : (op = alpha) -0.009646
WARNING : small    HOMO - LUMO gap : (op =  beta) 0.017825
    2     dE    -5.779468e-04     1.134640e-01    -5.7776e-04      0.018 (TRAH MIcro)
    2     dE    -1.067796e-02     3.133248e-01    -9.1770e-03      0.404 (TRAH MIcro)
    2     dE    -1.870530e-02     1.148037e-01    -1.8742e-02      0.576 (TRAH MIcro)
    2     dE    -2.020325e-02     5.411525e-02    -2.1868e-02      0.576 (TRAH MIcro)
    2     dE    -2.074993e-02     2.427862e-02    -2.2095e-02      0.576 (TRAH MIcro)
    2     dE    -2.095710e-02     1.219311e-02    -2.1940e-02      0.576 (TRAH MIcro)
    2     dE    -2.101797e-02     6.087442e-03    -2.1830e-02      0.576 (TRAH MIcro)
    2     dE    -2.103126e-02     4.480797e-03    -2.1809e-02      0.576 (TRAH MIcro)
    2     dE    -2.104179e-02     4.610909e-03    -2.1835e-02      0.576 (TRAH MIcro)
    2     dE    -2.105250e-02     5.554823e-03    -2.1886e-02      0.576 (TRAH MIcro)
    2     dE    -2.108006e-02     6.912147e-03    -2.2005e-02      0.576 (TRAH MIcro)
    2     dE    -2.116497e-02     9.810731e-03    -2.2330e-02      0.576 (TRAH MIcro)
    2     dE    -2.125761e-02     9.915289e-03    -2.2771e-02      0.576 (TRAH MIcro)
    2     dE    -2.131730e-02     6.517275e-03    -2.3088e-02      0.576 (TRAH MIcro)
    3      -3165.064411769080     3.442247e-02                     0.691 (TRAH MAcro)   No
WARNING : small    HOMO - LUMO gap : (op = alpha) 0.005316
WARNING : small    HOMO - LUMO gap : (op =  beta) 0.015619
    3     dE    -1.903672e-04     1.583954e-01    -1.9036e-04      0.006 (TRAH MIcro)
    3     dE    -8.609262e-04     2.673199e-02    -8.5795e-04      0.059 (TRAH MIcro)
    3     dE    -1.029300e-03     1.850398e-02    -1.0225e-03      0.081 (TRAH MIcro)
    3     dE    -1.343581e-03     2.066799e-02    -1.3122e-03      0.155 (TRAH MIcro)
    3     dE    -1.436435e-03     8.467827e-03    -1.3921e-03      0.178 (TRAH MIcro)
    3     dE    -1.456627e-03     2.999292e-03    -1.4081e-03      0.186 (TRAH MIcro)
    4      -3165.065873272149     3.894791e-03                     0.829 (TRAH MAcro)   No
WARNING : small    HOMO - LUMO gap : (op = alpha) 0.006283
WARNING : small    HOMO - LUMO gap : (op =  beta) 0.017592
    4     dE    -2.448414e-07     7.535416e-03    -2.4487e-07      0.000 (TRAH MIcro)
    4     dE    -9.479919e-06     3.113409e-03    -9.4794e-06      0.007 (TRAH MIcro)
    4     dE    -1.372121e-05     2.728427e-03    -1.3719e-05      0.012 (TRAH MIcro)
    4     dE    -2.001323e-05     2.059651e-03    -2.0003e-05      0.022 (TRAH MIcro)
    4     dE    -2.151003e-05     9.450962e-04    -2.1496e-05      0.025 (TRAH MIcro)
    4     dE    -2.203939e-05     4.839039e-04    -2.2023e-05      0.027 (TRAH MIcro)
    4     dE    -2.221481e-05     3.891733e-04    -2.2197e-05      0.028 (TRAH MIcro)
    5      -3165.065895583276     3.932891e-04                           (NR   MAcro)
WARNING : small    HOMO - LUMO gap : (op = alpha) 0.006155
WARNING : small    HOMO - LUMO gap : (op =  beta) 0.017485
    5     dE    -6.095440e-08     2.141974e-04                           (NR   MIcro)
    5     dE    -9.939819e-08     1.593228e-04                           (NR   MIcro)
    5     dE    -1.192409e-07     1.156037e-04                           (NR   MIcro)
    5     dE    -1.225347e-07     9.795614e-05                           (NR   MIcro)
    5     dE    -1.266938e-07     5.213848e-05                           (NR   MIcro)
    5     dE    -1.279582e-07     3.814774e-05                           (NR   MIcro)
    5     dE    -1.288520e-07     2.149284e-05                           (NR   MIcro)
    5     dE    -1.290572e-07     9.252508e-06                           (NR   MIcro)
    5     dE    -1.290929e-07     3.288049e-06                           (NR   MIcro)
    6      -3165.065895713395     3.345298e-06                           (NR   MAcro)
WARNING : small    HOMO - LUMO gap : (op = alpha) 0.006148
WARNING : small    HOMO - LUMO gap : (op =  beta) 0.017492

               *****************************************************
               *                     SUCCESS                       *
               *           SCF CONVERGED AFTER  86 CYCLES          *
               *****************************************************


----------------
TOTAL SCF ENERGY
----------------

Total Energy       :        -3165.06589571 Eh          -86125.82157 eV

Components:
Nuclear Repulsion  :         5698.52685854 Eh          155064.79916 eV
Electronic Energy  :        -8863.59275425 Eh         -241190.62074 eV
One Electron Energy:       -16472.26907696 Eh         -448233.22932 eV
Two Electron Energy:         7608.67632271 Eh          207042.60858 eV

Virial components:
Potential Energy   :        -5067.70123072 Eh         -137899.16115 eV
Kinetic Energy     :         1902.63533500 Eh           51773.33957 eV
Virial Ratio       :            2.66351683


DFT components:
N(Alpha)           :      147.999953385714 electrons
N(Beta)            :      143.999951514785 electrons
N(Total)           :      291.999904900499 electrons
E(X)               :     -223.013388605152 Eh       
E(C)               :      -12.766734656766 Eh       
E(XC)              :     -235.780123261918 Eh       
DFET-embed. en.    :        0.000000000000 Eh       

---------------
SCF CONVERGENCE
---------------

  Last Energy change         ...   -1.3012e-07  Tolerance :   1.0000e-06
  Last Orbital Gradient      ...    3.3453e-06  Tolerance :   5.0000e-05
  Last Orbital Rotation      ...    2.2677e-03

             **** THE GBW FILE WAS UPDATED (pbeSP.gbw) ****
             **** DENSITY pbeSP.scfp WAS UPDATED ****
             **** ENERGY FILE WAS UPDATED (pbeSP.en.tmp) ****
----------------------
UHF SPIN CONTAMINATION
----------------------

Warning: in a DFT calculation there is little theoretical justification to 
         calculate <S**2> as in Hartree-Fock theory. We will do it anyways
         but you should keep in mind that the values have only limited relevance

Expectation value of <S**2>     :     6.448164
Ideal value S*(S+1) for S=2.0   :     6.000000
Deviation                       :     0.448164

             **** THE GBW FILE WAS UPDATED (pbeSP.gbw) ****
             **** DENSITY pbeSP.scfp WAS UPDATED ****
----------------
ORBITAL ENERGIES
----------------
                 SPIN UP ORBITALS
  NO   OCC          E(Eh)            E(eV) 
   0   1.0000    -254.776024     -6932.8081 
   1   1.0000     -29.618363      -805.9566 
   2   1.0000     -25.560154      -695.5271 
   3   1.0000     -25.549814      -695.2458 
   4   1.0000     -25.549387      -695.2342 
   5   1.0000      -4.037678      -109.8708 
   6   1.0000      -4.037666      -109.8705 
   7   1.0000      -4.034297      -109.7788 
   8   1.0000      -4.028837      -109.6302 
   9   1.0000      -4.028823      -109.6298 
  10   1.0000      -4.026010      -109.5533 
  11   1.0000      -4.025121      -109.5291 
  12   1.0000      -4.025090      -109.5283 
  13   1.0000      -4.023247      -109.4781 
  14   1.0000      -4.022997      -109.4713 
  15   1.0000      -4.022974      -109.4707 
  16   1.0000      -4.019405      -109.3736 
  17   1.0000      -4.017740      -109.3283 
  18   1.0000      -4.015479      -109.2667 
  19   1.0000      -3.397368       -92.4471 
  20   1.0000      -2.253628       -61.3243 
  21   1.0000      -2.253593       -61.3234 
  22   1.0000      -2.252705       -61.2992 
  23   1.0000      -2.251468       -61.2656 
  24   1.0000      -2.251392       -61.2635 
  25   1.0000      -2.247193       -61.1492 
  26   1.0000      -2.246989       -61.1437 
  27   1.0000      -2.245797       -61.1113 
  28   1.0000      -2.245577       -61.1053 
  29   1.0000      -2.244593       -61.0785 
  30   1.0000      -2.244407       -61.0734 
  31   1.0000      -2.242584       -61.0238 
  32   1.0000      -2.242065       -61.0097 
  33   1.0000      -2.242002       -61.0080 
  34   1.0000      -2.241455       -60.9931 
  35   1.0000      -2.240958       -60.9796 
  36   1.0000      -2.240584       -60.9694 
  37   1.0000      -2.240038       -60.9545 
  38   1.0000      -2.239101       -60.9290 
  39   1.0000      -2.239001       -60.9263 
  40   1.0000      -2.238461       -60.9116 
  41   1.0000      -2.238061       -60.9007 
  42   1.0000      -2.237816       -60.8941 
  43   1.0000      -2.237635       -60.8891 
  44   1.0000      -2.236243       -60.8513 
  45   1.0000      -2.235802       -60.8393 
  46   1.0000      -2.235717       -60.8369 
  47   1.0000      -2.235411       -60.8286 
  48   1.0000      -2.234429       -60.8019 
  49   1.0000      -2.233957       -60.7890 
  50   1.0000      -2.233728       -60.7828 
  51   1.0000      -2.233433       -60.7748 
  52   1.0000      -2.233147       -60.7670 
  53   1.0000      -2.232765       -60.7566 
  54   1.0000      -2.232589       -60.7518 
  55   1.0000      -2.230521       -60.6956 
  56   1.0000      -2.229945       -60.6799 
  57   1.0000      -2.229545       -60.6690 
  58   1.0000      -2.228994       -60.6540 
  59   1.0000      -2.228462       -60.6395 
  60   1.0000      -2.228443       -60.6390 
  61   1.0000      -2.226822       -60.5949 
  62   1.0000      -2.224651       -60.5358 
  63   1.0000      -2.203647       -59.9643 
  64   1.0000      -2.202893       -59.9438 
  65   1.0000      -0.436127       -11.8676 
  66   1.0000      -0.397391       -10.8136 
  67   1.0000      -0.386736       -10.5236 
  68   1.0000      -0.385333       -10.4854 
  69   1.0000      -0.376173       -10.2362 
  70   1.0000      -0.375391       -10.2149 
  71   1.0000      -0.373703       -10.1690 
  72   1.0000      -0.368685       -10.0324 
  73   1.0000      -0.367901       -10.0111 
  74   1.0000      -0.364286        -9.9127 
  75   1.0000      -0.361363        -9.8332 
  76   1.0000      -0.359097        -9.7715 
  77   1.0000      -0.352415        -9.5897 
  78   1.0000      -0.351310        -9.5596 
  79   1.0000      -0.350737        -9.5440 
  80   1.0000      -0.347498        -9.4559 
  81   1.0000      -0.346401        -9.4261 
  82   1.0000      -0.344006        -9.3609 
  83   1.0000      -0.341590        -9.2951 
  84   1.0000      -0.335652        -9.1336 
  85   1.0000      -0.334427        -9.1002 
  86   1.0000      -0.330094        -8.9823 
  87   1.0000      -0.329182        -8.9575 
  88   1.0000      -0.326187        -8.8760 
  89   1.0000      -0.324169        -8.8211 
  90   1.0000      -0.322453        -8.7744 
  91   1.0000      -0.322321        -8.7708 
  92   1.0000      -0.317147        -8.6300 
  93   1.0000      -0.317106        -8.6289 
  94   1.0000      -0.315434        -8.5834 
  95   1.0000      -0.312336        -8.4991 
  96   1.0000      -0.312157        -8.4942 
  97   1.0000      -0.309868        -8.4319 
  98   1.0000      -0.309498        -8.4219 
  99   1.0000      -0.309109        -8.4113 
 100   1.0000      -0.304389        -8.2829 
 101   1.0000      -0.304259        -8.2793 
 102   1.0000      -0.298245        -8.1157 
 103   1.0000      -0.296935        -8.0800 
 104   1.0000      -0.292647        -7.9633 
 105   1.0000      -0.291879        -7.9424 
 106   1.0000      -0.290717        -7.9108 
 107   1.0000      -0.288056        -7.8384 
 108   1.0000      -0.283262        -7.7080 
 109   1.0000      -0.282886        -7.6977 
 110   1.0000      -0.279889        -7.6162 
 111   1.0000      -0.277687        -7.5563 
 112   1.0000      -0.276065        -7.5121 
 113   1.0000      -0.275616        -7.4999 
 114   1.0000      -0.272790        -7.4230 
 115   1.0000      -0.270867        -7.3707 
 116   1.0000      -0.269616        -7.3366 
 117   1.0000      -0.268914        -7.3175 
 118   1.0000      -0.268590        -7.3087 
 119   1.0000      -0.267975        -7.2920 
 120   1.0000      -0.263898        -7.1810 
 121   1.0000      -0.263720        -7.1762 
 122   1.0000      -0.262778        -7.1505 
 123   1.0000      -0.260644        -7.0925 
 124   1.0000      -0.259987        -7.0746 
 125   1.0000      -0.259713        -7.0672 
 126   1.0000      -0.256188        -6.9712 
 127   1.0000      -0.255921        -6.9640 
 128   1.0000      -0.255818        -6.9612 
 129   1.0000      -0.254371        -6.9218 
 130   1.0000      -0.253796        -6.9062 
 131   1.0000      -0.251626        -6.8471 
 132   1.0000      -0.251261        -6.8372 
 133   1.0000      -0.250630        -6.8200 
 134   1.0000      -0.250407        -6.8139 
 135   1.0000      -0.249895        -6.8000 
 136   1.0000      -0.248858        -6.7718 
 137   1.0000      -0.248347        -6.7579 
 138   1.0000      -0.242949        -6.6110 
 139   1.0000      -0.242026        -6.5859 
 140   1.0000      -0.241926        -6.5831 
 141   1.0000      -0.240513        -6.5447 
 142   1.0000      -0.236127        -6.4253 
 143   1.0000      -0.233404        -6.3512 
 144   1.0000      -0.223194        -6.0734 
 145   1.0000      -0.209110        -5.6902 
 146   1.0000      -0.198285        -5.3956 
 147   1.0000      -0.185372        -5.0442 
 148   0.0000      -0.179224        -4.8769 
 149   0.0000      -0.147125        -4.0035 
 150   0.0000      -0.134943        -3.6720 
 151   0.0000      -0.124133        -3.3778 
 152   0.0000      -0.122084        -3.3221 
 153   0.0000      -0.120724        -3.2851 
 154   0.0000      -0.103179        -2.8076 
 155   0.0000      -0.076151        -2.0722 
 156   0.0000      -0.066288        -1.8038 
 157   0.0000      -0.060654        -1.6505 
 158   0.0000      -0.060077        -1.6348 
 159   0.0000      -0.058136        -1.5820 
 160   0.0000      -0.057148        -1.5551 
 161   0.0000      -0.034079        -0.9273 
 162   0.0000      -0.027887        -0.7588 
 163   0.0000      -0.026782        -0.7288 
 164   0.0000      -0.019282        -0.5247 
 165   0.0000      -0.006579        -0.1790 
 166   0.0000       0.008983         0.2444 
 167   0.0000       0.012983         0.3533 
 168   0.0000       0.026060         0.7091 
 169   0.0000       0.033106         0.9009 
 170   0.0000       0.036379         0.9899 
 171   0.0000       0.038210         1.0397 
 172   0.0000       0.040524         1.1027 
 173   0.0000       0.044424         1.2088 
 174   0.0000       0.048384         1.3166 
 175   0.0000       0.051015         1.3882 
 176   0.0000       0.054063         1.4711 
 177   0.0000       0.059092         1.6080 
 178   0.0000       0.059277         1.6130 
 179   0.0000       0.067919         1.8482 
 180   0.0000       0.072546         1.9741 
 181   0.0000       0.079547         2.1646 
 182   0.0000       0.081731         2.2240 
 183   0.0000       0.083144         2.2625 
 184   0.0000       0.084615         2.3025 
 185   0.0000       0.085459         2.3255 
 186   0.0000       0.098706         2.6859 
 187   0.0000       0.099004         2.6940 
 188   0.0000       0.110202         2.9987 
 189   0.0000       0.121021         3.2932 
 190   0.0000       0.124933         3.3996 
 191   0.0000       0.127072         3.4578 
 192   0.0000       0.128814         3.5052 
 193   0.0000       0.137150         3.7321 
 194   0.0000       0.137455         3.7403 
 195   0.0000       0.139647         3.8000 
 196   0.0000       0.150220         4.0877 
 197   0.0000       0.152326         4.1450 
 198   0.0000       0.164906         4.4873 
 199   0.0000       0.166177         4.5219 
 200   0.0000       0.171772         4.6742 
 201   0.0000       0.173153         4.7117 
 202   0.0000       0.175847         4.7850 
 203   0.0000       0.176794         4.8108 
 204   0.0000       0.176825         4.8117 
 205   0.0000       0.187755         5.1091 
 206   0.0000       0.188591         5.1318 
 207   0.0000       0.198706         5.4071 
 208   0.0000       0.213103         5.7988 
 209   0.0000       0.216090         5.8801 
 210   0.0000       0.216296         5.8857 
 211   0.0000       0.220483         5.9996 
 212   0.0000       0.223846         6.0912 
 213   0.0000       0.228862         6.2277 
 214   0.0000       0.230328         6.2675 
 215   0.0000       0.240004         6.5308 
 216   0.0000       0.243500         6.6260 
 217   0.0000       0.245831         6.6894 
 218   0.0000       0.249950         6.8015 
 219   0.0000       0.257462         7.0059 
 220   0.0000       0.263698         7.1756 
 221   0.0000       0.268951         7.3185 
 222   0.0000       0.270347         7.3565 
 223   0.0000       0.271782         7.3956 
 224   0.0000       0.275143         7.4870 
 225   0.0000       0.283880         7.7248 
 226   0.0000       0.284059         7.7296 
 227   0.0000       0.295961         8.0535 
 228   0.0000       0.296203         8.0601 
 229   0.0000       0.299797         8.1579 
 230   0.0000       0.306155         8.3309 
 231   0.0000       0.312448         8.5021 
 232   0.0000       0.316613         8.6155 
 233   0.0000       0.321191         8.7401 
 234   0.0000       0.321331         8.7439 
 235   0.0000       0.327573         8.9137 
 236   0.0000       0.330324         8.9886 
 237   0.0000       0.335858         9.1392 
 238   0.0000       0.341069         9.2810 
 239   0.0000       0.346155         9.4194 
 240   0.0000       0.350555         9.5391 
 241   0.0000       0.355881         9.6840 
 242   0.0000       0.358289         9.7495 
 243   0.0000       0.362156         9.8548 
 244   0.0000       0.368832        10.0364 
 245   0.0000       0.375590        10.2203 
 246   0.0000       0.380261        10.3474 
 247   0.0000       0.380516        10.3544 
 248   0.0000       0.382861        10.4182 
 249   0.0000       0.383226        10.4281 
 250   0.0000       0.394861        10.7447 
 251   0.0000       0.396843        10.7986 
 252   0.0000       0.400929        10.9098 
 253   0.0000       0.409771        11.1504 
 254   0.0000       0.410094        11.1592 
 255   0.0000       0.414788        11.2870 
 256   0.0000       0.416321        11.3287 
 257   0.0000       0.426094        11.5946 
 258   0.0000       0.433997        11.8097 
 259   0.0000       0.437531        11.9058 
 260   0.0000       0.441610        12.0168 
 261   0.0000       0.442683        12.0460 
 262   0.0000       0.452164        12.3040 
 263   0.0000       0.457989        12.4625 
 264   0.0000       0.459582        12.5059 
 265   0.0000       0.465212        12.6591 
 266   0.0000       0.470253        12.7962 
 267   0.0000       0.473625        12.8880 
 268   0.0000       0.483973        13.1696 
 269   0.0000       0.487213        13.2577 
 270   0.0000       0.488139        13.2829 
 271   0.0000       0.493296        13.4233 
 272   0.0000       0.495386        13.4801 
 273   0.0000       0.499486        13.5917 
 274   0.0000       0.503062        13.6890 
 275   0.0000       0.510008        13.8780 
 276   0.0000       0.512092        13.9347 
 277   0.0000       0.512979        13.9589 
 278   0.0000       0.517934        14.0937 
 279   0.0000       0.523537        14.2462 
 280   0.0000       0.528931        14.3929 
 281   0.0000       0.530540        14.4367 
 282   0.0000       0.531836        14.4720 
 283   0.0000       0.536803        14.6072 
 284   0.0000       0.539834        14.6896 
 285   0.0000       0.543750        14.7962 
 286   0.0000       0.549573        14.9547 
 287   0.0000       0.550382        14.9767 
 288   0.0000       0.558539        15.1986 
 289   0.0000       0.559957        15.2372 
 290   0.0000       0.634926        17.2772 
 291   0.0000       0.654024        17.7969 
 292   0.0000       0.658494        17.9185 
 293   0.0000       0.662141        18.0178 
 294   0.0000       0.684440        18.6246 
 295   0.0000       0.691564        18.8184 
 296   0.0000       0.693797        18.8792 
 297   0.0000       0.719816        19.5872 
 298   0.0000       0.725379        19.7386 
 299   0.0000       0.726869        19.7791 
 300   0.0000       0.729262        19.8442 
 301   0.0000       0.744228        20.2515 
 302   0.0000       0.751012        20.4361 
 303   0.0000       0.760497        20.6942 
 304   0.0000       0.766995        20.8710 
 305   0.0000       0.768514        20.9123 
 306   0.0000       0.783269        21.3138 
 307   0.0000       0.787370        21.4254 
 308   0.0000       0.791815        21.5464 
 309   0.0000       0.801406        21.8074 
 310   0.0000       0.821238        22.3470 
 311   0.0000       0.831197        22.6180 
 312   0.0000       0.834917        22.7192 
 313   0.0000       0.840657        22.8754 
 314   0.0000       0.841801        22.9066 
 315   0.0000       0.850487        23.1429 
 316   0.0000       0.856979        23.3196 
 317   0.0000       0.862486        23.4694 
 318   0.0000       0.880117        23.9492 
 319   0.0000       0.881348        23.9827 
 320   0.0000       0.890538        24.2328 
 321   0.0000       0.894907        24.3516 
 322   0.0000       0.911482        24.8027 
 323   0.0000       0.911788        24.8110 
 324   0.0000       0.914338        24.8804 
 325   0.0000       0.942772        25.6541 
 326   0.0000       0.955071        25.9888 
 327   0.0000       0.960785        26.1443 
 328   0.0000       0.981577        26.7101 
 329   0.0000       0.984455        26.7884 
 330   0.0000       1.007606        27.4184 
 331   0.0000       1.045366        28.4459 
 332   0.0000       1.061944        28.8970 
 333   0.0000       1.124320        30.5943 
 334   0.0000       1.150810        31.3151 
 335   0.0000       1.188642        32.3446 
 336   0.0000       1.194506        32.5042 
 337   0.0000       1.231949        33.5231 
 338   0.0000       1.233810        33.5737 
 339   0.0000       1.243274        33.8312 
 340   0.0000       1.245224        33.8843 
 341   0.0000       1.267597        34.4931 
 342   0.0000       1.269742        34.5514 
 343   0.0000       1.278700        34.7952 
 344   0.0000       1.288135        35.0519 
 345   0.0000       1.296646        35.2835 
 346   0.0000       1.305253        35.5177 
 347   0.0000       1.310095        35.6495 
 348   0.0000       1.314217        35.7617 
 349   0.0000       1.321025        35.9469 
 350   0.0000       1.334281        36.3076 
 351   0.0000       1.340662        36.4813 
 352   0.0000       1.342131        36.5212 
 353   0.0000       1.354240        36.8507 
 354   0.0000       1.361897        37.0591 
 355   0.0000       1.374213        37.3942 
 356   0.0000       1.381028        37.5797 
 357   0.0000       1.382301        37.6143 
 358   0.0000       1.385613        37.7045 
 359   0.0000       1.396026        37.9878 
 360   0.0000       1.398988        38.0684 
 361   0.0000       1.401987        38.1500 
 362   0.0000       1.403220        38.1836 
 363   0.0000       1.407301        38.2946 
 364   0.0000       1.414645        38.4944 
 365   0.0000       1.414959        38.5030 
 366   0.0000       1.418384        38.5962 
 367   0.0000       1.421356        38.6771 
 368   0.0000       1.422451        38.7069 
 369   0.0000       1.422626        38.7116 
 370   0.0000       1.432804        38.9886 
 371   0.0000       1.439438        39.1691 
 372   0.0000       1.439877        39.1810 
 373   0.0000       1.448720        39.4217 
 374   0.0000       1.451834        39.5064 
 375   0.0000       1.451965        39.5100 
 376   0.0000       1.454253        39.5722 
 377   0.0000       1.457354        39.6566 
 378   0.0000       1.462653        39.8008 
 379   0.0000       1.466210        39.8976 
 380   0.0000       1.469168        39.9781 
 381   0.0000       1.470460        40.0133 
 382   0.0000       1.471615        40.0447 
 383   0.0000       1.473520        40.0965 
 384   0.0000       1.475711        40.1561 
 385   0.0000       1.478728        40.2382 
 386   0.0000       1.481565        40.3154 
 387   0.0000       1.481993        40.3271 
 388   0.0000       1.482067        40.3291 
 389   0.0000       1.483823        40.3769 
 390   0.0000       1.486941        40.4617 
 391   0.0000       1.488540        40.5052 
 392   0.0000       1.489334        40.5268 
 393   0.0000       1.492361        40.6092 
 394   0.0000       1.493031        40.6274 
 395   0.0000       1.493749        40.6470 
 396   0.0000       1.494561        40.6691 
 397   0.0000       1.495885        40.7051 
 398   0.0000       1.499929        40.8152 
 399   0.0000       1.501101        40.8470 
 400   0.0000       1.501817        40.8665 
 401   0.0000       1.502695        40.8904 
 402   0.0000       1.503822        40.9211 
 403   0.0000       1.506527        40.9947 
 404   0.0000       1.507861        41.0310 
 405   0.0000       1.507988        41.0344 
 406   0.0000       1.510320        41.0979 
 407   0.0000       1.511275        41.1239 
 408   0.0000       1.512324        41.1524 
 409   0.0000       1.513185        41.1758 
 410   0.0000       1.513877        41.1947 
 411   0.0000       1.515335        41.2344 
 412   0.0000       1.515836        41.2480 
 413   0.0000       1.517731        41.2996 
 414   0.0000       1.518604        41.3233 
 415   0.0000       1.519814        41.3562 
 416   0.0000       1.521208        41.3942 
 417   0.0000       1.521576        41.4042 
 418   0.0000       1.522482        41.4288 
 419   0.0000       1.524444        41.4822 
 420   0.0000       1.528157        41.5833 
 421   0.0000       1.531498        41.6742 
 422   0.0000       1.531811        41.6827 
 423   0.0000       1.532834        41.7105 
 424   0.0000       1.534351        41.7518 
 425   0.0000       1.534410        41.7534 
 426   0.0000       1.543922        42.0123 
 427   0.0000       1.544539        42.0290 
 428   0.0000       1.544742        42.0346 
 429   0.0000       1.546801        42.0906 
 430   0.0000       1.553024        42.2599 
 431   0.0000       1.553668        42.2774 
 432   0.0000       1.557169        42.3727 
 433   0.0000       1.557965        42.3944 
 434   0.0000       1.561209        42.4826 
 435   0.0000       1.565004        42.5859 
 436   0.0000       1.565938        42.6113 
 437   0.0000       1.566612        42.6297 
 438   0.0000       1.568456        42.6798 
 439   0.0000       1.572331        42.7853 
 440   0.0000       1.572597        42.7925 
 441   0.0000       1.578649        42.9572 
 442   0.0000       1.579597        42.9830 
 443   0.0000       1.583384        43.0861 
 444   0.0000       1.584585        43.1188 
 445   0.0000       1.587351        43.1940 
 446   0.0000       1.592124        43.3239 
 447   0.0000       1.592459        43.3330 
 448   0.0000       1.594529        43.3893 
 449   0.0000       1.598070        43.4857 
 450   0.0000       1.598356        43.4935 
 451   0.0000       1.603839        43.6427 
 452   0.0000       1.605311        43.6827 
 453   0.0000       1.611365        43.8475 
 454   0.0000       1.611602        43.8539 
 455   0.0000       1.617134        44.0045 
 456   0.0000       1.618408        44.0391 
 457   0.0000       1.618807        44.0500 
 458   0.0000       1.625206        44.2241 
 459   0.0000       1.626715        44.2652 
 460   0.0000       1.629781        44.3486 
 461   0.0000       1.630965        44.3808 
 462   0.0000       1.640112        44.6297 
 463   0.0000       1.641021        44.6544 
 464   0.0000       1.651922        44.9511 
 465   0.0000       1.653454        44.9928 
 466   0.0000       1.658325        45.1253 
 467   0.0000       1.660820        45.1932 
 468   0.0000       1.667296        45.3694 
 469   0.0000       1.669519        45.4299 
 470   0.0000       1.677217        45.6394 
 471   0.0000       1.684535        45.8385 
 472   0.0000       1.686765        45.8992 
 473   0.0000       1.704982        46.3949 
 474   0.0000       1.709178        46.5091 
 475   0.0000       1.715691        46.6863 
 476   0.0000       1.727505        47.0078 
 477   0.0000       1.737492        47.2796 
 478   0.0000       1.738051        47.2948 
 479   0.0000       1.747888        47.5624 
 480   0.0000       1.752204        47.6799 
 481   0.0000       1.761777        47.9404 
 482   0.0000       1.768407        48.1208 
 483   0.0000       1.771888        48.2155 
 484   0.0000       1.775043        48.3014 
 485   0.0000       1.786177        48.6043 
 486   0.0000       1.787086        48.6291 
 487   0.0000       1.792164        48.7673 
 488   0.0000       1.799813        48.9754 
 489   0.0000       1.811563        49.2951 
 490   0.0000       1.818216        49.4762 
 491   0.0000       1.824350        49.6431 
 492   0.0000       1.833426        49.8900 
 493   0.0000       1.840742        50.0891 
 494   0.0000       1.852005        50.3956 
 495   0.0000       1.860956        50.6392 
 496   0.0000       1.879510        51.1441 
 497   0.0000       1.886110        51.3237 
 498   0.0000       1.903212        51.7890 
 499   0.0000       1.915765        52.1306 
 500   0.0000       1.916066        52.1388 
 501   0.0000       1.984744        54.0076 
 502   0.0000       2.001078        54.4521 
 503   0.0000       2.008635        54.6577 
 504   0.0000       2.033379        55.3311 
 505   0.0000       2.176016        59.2124 
 506   0.0000       2.250824        61.2480 
 507   0.0000       2.297397        62.5154 
 508   0.0000       2.298431        62.5435 
 509   0.0000       2.338027        63.6209 
 510   0.0000       2.350797        63.9684 
 511   0.0000       2.400011        65.3076 
 512   0.0000       2.439843        66.3915 
 513   0.0000       2.444251        66.5115 
 514   0.0000       2.471450        67.2516 
 515   0.0000       2.483554        67.5809 
 516   0.0000       2.505520        68.1787 
 517   0.0000       2.520914        68.5976 
 518   0.0000       2.537047        69.0366 
 519   0.0000       2.545252        69.2598 
 520   0.0000       2.567314        69.8602 
 521   0.0000       2.577645        70.1413 
 522   0.0000       3.361255        91.4644 
 523   0.0000       3.560159        96.8769 
 524   0.0000       3.578920        97.3874 
 525   0.0000       3.676075       100.0311 
 526   0.0000       3.684418       100.2581 
 527   0.0000       3.741512       101.8117 
 528   0.0000       3.882859       105.6580 
 529   0.0000       3.885164       105.7207 
 530   0.0000       3.888371       105.8080 
 531   0.0000       3.898834       106.0927 
 532   0.0000       3.901485       106.1648 
 533   0.0000       3.905637       106.2778 
 534   0.0000       3.914962       106.5315 
 535   0.0000      23.761169       646.5743 
 536   0.0000      23.920762       650.9170 
 537   0.0000      24.040511       654.1756 
 538   0.0000      24.406263       664.1282 
 539   0.0000      24.560570       668.3271 
 540   0.0000      24.604350       669.5184 
 541   0.0000      24.779039       674.2719 
 542   0.0000      24.829122       675.6348 
 543   0.0000      24.978565       679.7013 
 544   0.0000      25.189438       685.4395 
 545   0.0000      25.230906       686.5679 
 546   0.0000      25.269027       687.6052 
 547   0.0000      25.553650       695.3502 
 548   0.0000      25.592986       696.4205 
 549   0.0000      25.848494       703.3733 
 550   0.0000      25.925584       705.4710 
 551   0.0000      25.955347       706.2809 
 552   0.0000      26.052308       708.9193 
 553   0.0000      26.114989       710.6250 
 554   0.0000      26.193892       712.7720 
 555   0.0000      26.216974       713.4001 
 556   0.0000      26.361250       717.3261 
 557   0.0000      26.416060       718.8175 
 558   0.0000      26.555450       722.6105 
 559   0.0000      26.601806       723.8719 
 560   0.0000      26.763177       728.2631 
 561   0.0000      26.807346       729.4650 
 562   0.0000      26.840828       730.3761 
 563   0.0000      27.045538       735.9465 
 564   0.0000      27.076870       736.7991 
 565   0.0000      27.094178       737.2701 
 566   0.0000      27.118124       737.9217 
 567   0.0000      27.240883       741.2621 
 568   0.0000      27.547210       749.5977 
 569   0.0000      27.553322       749.7640 
 570   0.0000      27.803527       756.5724 
 571   0.0000      27.807370       756.6770 
 572   0.0000      28.003577       762.0161 
 573   0.0000      28.389558       772.5191 
 574   0.0000      29.612994       805.8105 
 575   0.0000      29.908146       813.8420 
 576   0.0000      31.757110       864.1549 
 577   0.0000      43.912374      1194.9164 
 578   0.0000      43.997773      1197.2403 
 579   0.0000      44.035159      1198.2576 
 580   0.0000      44.038330      1198.3439 
 581   0.0000      44.045776      1198.5465 
 582   0.0000      44.090876      1199.7737 
 583   0.0000      44.131614      1200.8823 
 584   0.0000      44.155255      1201.5256 
 585   0.0000      44.188212      1202.4224 
 586   0.0000      44.192974      1202.5520 
 587   0.0000      44.195788      1202.6285 
 588   0.0000      44.213530      1203.1113 
 589   0.0000      44.239486      1203.8176 
 590   0.0000      44.252500      1204.1717 
 591   0.0000     205.089699      5580.7744 
 592   0.0000     205.132059      5581.9271 
 593   0.0000     205.145443      5582.2913 
 594   0.0000     205.148044      5582.3621 
 595   0.0000     205.149143      5582.3920 
 596   0.0000     205.172307      5583.0223 
 597   0.0000     205.185830      5583.3903 
 598   0.0000     205.194953      5583.6385 
 599   0.0000     205.208650      5584.0113 
 600   0.0000     205.209079      5584.0229 
 601   0.0000     205.214110      5584.1598 
 602   0.0000     205.220483      5584.3332 
 603   0.0000     205.228815      5584.5600 
 604   0.0000     205.233685      5584.6925 

                 SPIN DOWN ORBITALS
  NO   OCC          E(Eh)            E(eV) 
   0   1.0000    -254.775274     -6932.7877 
   1   1.0000     -29.556531      -804.2741 
   2   1.0000     -25.509901      -694.1597 
   3   1.0000     -25.504780      -694.0203 
   4   1.0000     -25.504547      -694.0140 
   5   1.0000      -4.036900      -109.8496 
   6   1.0000      -4.036889      -109.8493 
   7   1.0000      -4.033827      -109.7660 
   8   1.0000      -4.028023      -109.6081 
   9   1.0000      -4.028020      -109.6080 
  10   1.0000      -4.025131      -109.5294 
  11   1.0000      -4.024960      -109.5247 
  12   1.0000      -4.024927      -109.5238 
  13   1.0000      -4.022362      -109.4540 
  14   1.0000      -4.022317      -109.4528 
  15   1.0000      -4.022199      -109.4496 
  16   1.0000      -4.019105      -109.3654 
  17   1.0000      -4.016679      -109.2994 
  18   1.0000      -4.015670      -109.2719 
  19   1.0000      -3.258507       -88.6685 
  20   1.0000      -2.252559       -61.2952 
  21   1.0000      -2.252523       -61.2943 
  22   1.0000      -2.252022       -61.2806 
  23   1.0000      -2.250338       -61.2348 
  24   1.0000      -2.250272       -61.2330 
  25   1.0000      -2.246749       -61.1371 
  26   1.0000      -2.246535       -61.1313 
  27   1.0000      -2.245265       -61.0968 
  28   1.0000      -2.244373       -61.0725 
  29   1.0000      -2.243609       -61.0517 
  30   1.0000      -2.243388       -61.0457 
  31   1.0000      -2.242043       -61.0091 
  32   1.0000      -2.241557       -60.9959 
  33   1.0000      -2.241059       -60.9823 
  34   1.0000      -2.240796       -60.9751 
  35   1.0000      -2.240534       -60.9680 
  36   1.0000      -2.238950       -60.9249 
  37   1.0000      -2.238737       -60.9191 
  38   1.0000      -2.238649       -60.9167 
  39   1.0000      -2.238208       -60.9047 
  40   1.0000      -2.237486       -60.8851 
  41   1.0000      -2.237432       -60.8836 
  42   1.0000      -2.237351       -60.8814 
  43   1.0000      -2.236868       -60.8683 
  44   1.0000      -2.235958       -60.8435 
  45   1.0000      -2.235125       -60.8209 
  46   1.0000      -2.234938       -60.8158 
  47   1.0000      -2.234794       -60.8118 
  48   1.0000      -2.234150       -60.7943 
  49   1.0000      -2.233464       -60.7757 
  50   1.0000      -2.233335       -60.7721 
  51   1.0000      -2.233319       -60.7717 
  52   1.0000      -2.232317       -60.7444 
  53   1.0000      -2.231687       -60.7273 
  54   1.0000      -2.231553       -60.7236 
  55   1.0000      -2.230273       -60.6888 
  56   1.0000      -2.229986       -60.6810 
  57   1.0000      -2.229530       -60.6686 
  58   1.0000      -2.228829       -60.6495 
  59   1.0000      -2.227900       -60.6242 
  60   1.0000      -2.227662       -60.6178 
  61   1.0000      -2.226631       -60.5897 
  62   1.0000      -2.078279       -56.5529 
  63   1.0000      -2.072980       -56.4086 
  64   1.0000      -2.072818       -56.4042 
  65   1.0000      -0.431044       -11.7293 
  66   1.0000      -0.394754       -10.7418 
  67   1.0000      -0.384287       -10.4570 
  68   1.0000      -0.382422       -10.4062 
  69   1.0000      -0.371747       -10.1158 
  70   1.0000      -0.365690        -9.9509 
  71   1.0000      -0.363463        -9.8903 
  72   1.0000      -0.363213        -9.8835 
  73   1.0000      -0.359279        -9.7765 
  74   1.0000      -0.356164        -9.6917 
  75   1.0000      -0.352609        -9.5950 
  76   1.0000      -0.351780        -9.5724 
  77   1.0000      -0.351524        -9.5654 
  78   1.0000      -0.348223        -9.4756 
  79   1.0000      -0.346712        -9.4345 
  80   1.0000      -0.345704        -9.4071 
  81   1.0000      -0.343531        -9.3479 
  82   1.0000      -0.341770        -9.3000 
  83   1.0000      -0.339674        -9.2430 
  84   1.0000      -0.334008        -9.0888 
  85   1.0000      -0.328925        -8.9505 
  86   1.0000      -0.328321        -8.9341 
  87   1.0000      -0.327808        -8.9201 
  88   1.0000      -0.325106        -8.8466 
  89   1.0000      -0.322424        -8.7736 
  90   1.0000      -0.321911        -8.7596 
  91   1.0000      -0.319199        -8.6858 
  92   1.0000      -0.315408        -8.5827 
  93   1.0000      -0.315227        -8.5778 
  94   1.0000      -0.311299        -8.4709 
  95   1.0000      -0.310855        -8.4588 
  96   1.0000      -0.308942        -8.4067 
  97   1.0000      -0.304116        -8.2754 
  98   1.0000      -0.299717        -8.1557 
  99   1.0000      -0.298986        -8.1358 
 100   1.0000      -0.296977        -8.0812 
 101   1.0000      -0.294763        -8.0209 
 102   1.0000      -0.292704        -7.9649 
 103   1.0000      -0.290733        -7.9112 
 104   1.0000      -0.288895        -7.8612 
 105   1.0000      -0.287768        -7.8306 
 106   1.0000      -0.286998        -7.8096 
 107   1.0000      -0.283460        -7.7133 
 108   1.0000      -0.281052        -7.6478 
 109   1.0000      -0.280215        -7.6250 
 110   1.0000      -0.276741        -7.5305 
 111   1.0000      -0.276421        -7.5218 
 112   1.0000      -0.274852        -7.4791 
 113   1.0000      -0.272024        -7.4022 
 114   1.0000      -0.269932        -7.3452 
 115   1.0000      -0.268969        -7.3190 
 116   1.0000      -0.268314        -7.3012 
 117   1.0000      -0.267966        -7.2917 
 118   1.0000      -0.266879        -7.2622 
 119   1.0000      -0.261786        -7.1236 
 120   1.0000      -0.261112        -7.1052 
 121   1.0000      -0.260604        -7.0914 
 122   1.0000      -0.259424        -7.0593 
 123   1.0000      -0.257309        -7.0017 
 124   1.0000      -0.255455        -6.9513 
 125   1.0000      -0.254810        -6.9337 
 126   1.0000      -0.254019        -6.9122 
 127   1.0000      -0.252534        -6.8718 
 128   1.0000      -0.250987        -6.8297 
 129   1.0000      -0.250910        -6.8276 
 130   1.0000      -0.250412        -6.8141 
 131   1.0000      -0.248747        -6.7688 
 132   1.0000      -0.247990        -6.7481 
 133   1.0000      -0.242510        -6.5990 
 134   1.0000      -0.241231        -6.5642 
 135   1.0000      -0.240911        -6.5555 
 136   1.0000      -0.240427        -6.5423 
 137   1.0000      -0.236344        -6.4313 
 138   1.0000      -0.233310        -6.3487 
 139   1.0000      -0.223819        -6.0904 
 140   1.0000      -0.214120        -5.8265 
 141   1.0000      -0.206894        -5.6299 
 142   1.0000      -0.199894        -5.4394 
 143   1.0000      -0.197084        -5.3629 
 144   0.0000      -0.179592        -4.8870 
 145   0.0000      -0.172508        -4.6942 
 146   0.0000      -0.171723        -4.6728 
 147   0.0000      -0.159062        -4.3283 
 148   0.0000      -0.155839        -4.2406 
 149   0.0000      -0.139653        -3.8001 
 150   0.0000      -0.128495        -3.4965 
 151   0.0000      -0.121280        -3.3002 
 152   0.0000      -0.119376        -3.2484 
 153   0.0000      -0.114952        -3.1280 
 154   0.0000      -0.101482        -2.7615 
 155   0.0000      -0.074465        -2.0263 
 156   0.0000      -0.062458        -1.6996 
 157   0.0000      -0.059068        -1.6073 
 158   0.0000      -0.056159        -1.5282 
 159   0.0000      -0.055797        -1.5183 
 160   0.0000      -0.054133        -1.4730 
 161   0.0000      -0.031903        -0.8681 
 162   0.0000      -0.026237        -0.7139 
 163   0.0000      -0.022466        -0.6113 
 164   0.0000      -0.015901        -0.4327 
 165   0.0000      -0.002444        -0.0665 
 166   0.0000       0.010563         0.2874 
 167   0.0000       0.017015         0.4630 
 168   0.0000       0.030178         0.8212 
 169   0.0000       0.034122         0.9285 
 170   0.0000       0.039509         1.0751 
 171   0.0000       0.040227         1.0946 
 172   0.0000       0.044804         1.2192 
 173   0.0000       0.046122         1.2550 
 174   0.0000       0.051040         1.3889 
 175   0.0000       0.052083         1.4173 
 176   0.0000       0.056078         1.5259 
 177   0.0000       0.061531         1.6743 
 178   0.0000       0.062045         1.6883 
 179   0.0000       0.069809         1.8996 
 180   0.0000       0.075283         2.0486 
 181   0.0000       0.081760         2.2248 
 182   0.0000       0.084428         2.2974 
 183   0.0000       0.085559         2.3282 
 184   0.0000       0.086000         2.3402 
 185   0.0000       0.088065         2.3964 
 186   0.0000       0.100356         2.7308 
 187   0.0000       0.102049         2.7769 
 188   0.0000       0.112064         3.0494 
 189   0.0000       0.124076         3.3763 
 190   0.0000       0.128473         3.4959 
 191   0.0000       0.130072         3.5394 
 192   0.0000       0.134088         3.6487 
 193   0.0000       0.138945         3.7809 
 194   0.0000       0.139122         3.7857 
 195   0.0000       0.142991         3.8910 
 196   0.0000       0.151935         4.1344 
 197   0.0000       0.154414         4.2018 
 198   0.0000       0.168536         4.5861 
 199   0.0000       0.168639         4.5889 
 200   0.0000       0.174495         4.7483 
 201   0.0000       0.178752         4.8641 
 202   0.0000       0.179939         4.8964 
[...]
      f+1     :     0.001036
      f-1     :     0.001252
      f+2     :     0.000847
      f-2     :     0.000957
      f+3     :     0.000716
      f-3     :     0.000632
  5 Aus       :     2.545043  s :     2.545043
      pz      :     2.245227  p :     6.616301
      px      :     2.148298
      py      :     2.222775
      dz2     :     1.980944  d :     9.917815
      dxz     :     1.992670
      dyz     :     1.953796
      dx2y2   :     2.001665
      dxy     :     1.988740
      f0      :     0.000924  f :     0.006602
      f+1     :     0.000888
      f-1     :     0.001200
      f+2     :     0.001016
      f-2     :     0.000989
      f+3     :     0.000619
      f-3     :     0.000964
  6 Aus       :     2.523256  s :     2.523256
      pz      :     2.203330  p :     6.486508
      px      :     2.156636
      py      :     2.126542
      dz2     :     1.968427  d :     9.885717
      dxz     :     1.980994
      dyz     :     1.990764
      dx2y2   :     1.995196
      dxy     :     1.950336
      f0      :     0.000841  f :     0.005623
      f+1     :     0.000854
      f-1     :     0.000924
      f+2     :     0.000910
      f-2     :     0.000593
      f+3     :     0.000888
      f-3     :     0.000612
  7 Aus       :     2.611755  s :     2.611755
      pz      :     2.190414  p :     6.453442
      px      :     2.127230
      py      :     2.135798
      dz2     :     1.960143  d :     9.851082
      dxz     :     1.974506
      dyz     :     1.971723
      dx2y2   :     1.993243
      dxy     :     1.951466
      f0      :     0.000591  f :     0.005390
      f+1     :     0.000911
      f-1     :     0.000818
      f+2     :     0.000950
      f-2     :     0.000736
      f+3     :     0.000761
      f-3     :     0.000624
  8 Aus       :     2.514638  s :     2.514638
      pz      :     2.265715  p :     6.579162
      px      :     2.196865
      py      :     2.116582
      dz2     :     1.983254  d :     9.870090
      dxz     :     1.978878
      dyz     :     1.946768
      dx2y2   :     1.971211
      dxy     :     1.989980
      f0      :     0.000901  f :     0.006633
      f+1     :     0.001261
      f-1     :     0.001039
      f+2     :     0.001327
      f-2     :     0.000818
      f+3     :     0.000635
      f-3     :     0.000653
  9 Aus       :     2.673458  s :     2.673458
      pz      :     2.101488  p :     6.402347
      px      :     2.156837
      py      :     2.144022
      dz2     :     1.958890  d :     9.865873
      dxz     :     1.967101
      dyz     :     1.985685
      dx2y2   :     1.977061
      dxy     :     1.977136
      f0      :     0.000544  f :     0.004743
      f+1     :     0.000584
      f-1     :     0.000988
      f+2     :     0.000983
      f-2     :     0.000579
      f+3     :     0.000616
      f-3     :     0.000449
 10 Aus       :     2.523326  s :     2.523326
      pz      :     2.197057  p :     6.485946
      px      :     2.094815
      py      :     2.194074
      dz2     :     1.977702  d :     9.885390
      dxz     :     1.956703
      dyz     :     1.996200
      dx2y2   :     1.962291
      dxy     :     1.992495
      f0      :     0.000544  f :     0.005611
      f+1     :     0.000931
      f-1     :     0.000813
      f+2     :     0.000956
      f-2     :     0.000844
      f+3     :     0.000820
      f-3     :     0.000704
 11 Aus       :     2.610740  s :     2.610740
      pz      :     2.134001  p :     6.453681
      px      :     2.158736
      py      :     2.160943
      dz2     :     1.979704  d :     9.851086
      dxz     :     1.932315
      dyz     :     1.979759
      dx2y2   :     1.973433
      dxy     :     1.985875
      f0      :     0.000832  f :     0.005375
      f+1     :     0.000865
      f-1     :     0.000791
      f+2     :     0.000901
      f-2     :     0.000602
      f+3     :     0.000844
      f-3     :     0.000540
 12 Aus       :     2.568949  s :     2.568949
      pz      :     2.210421  p :     6.452932
      px      :     2.123291
      py      :     2.119220
      dz2     :     1.964155  d :     9.862416
      dxz     :     1.980035
      dyz     :     1.973113
      dx2y2   :     1.985844
      dxy     :     1.959270
      f0      :     0.000867  f :     0.005565
      f+1     :     0.000841
      f-1     :     0.001047
      f+2     :     0.000945
      f-2     :     0.000648
      f+3     :     0.000725
      f-3     :     0.000492
 13 Aus       :     2.569995  s :     2.569995
      pz      :     2.142050  p :     6.461237
      px      :     2.200282
      py      :     2.118905
      dz2     :     1.971848  d :     9.870199
      dxz     :     1.976202
      dyz     :     1.970369
      dx2y2   :     1.968881
      dxy     :     1.982900
      f0      :     0.000720  f :     0.005267
      f+1     :     0.000790
      f-1     :     0.000589
      f+2     :     0.000688
      f-2     :     0.000761
      f+3     :     0.000915
      f-3     :     0.000804
 14 Fes       :     6.271857  s :     6.271857
      pz      :     4.170024  p :    12.602821
      px      :     4.214900
      py      :     4.217896
      dz2     :     1.573348  d :     7.770716
      dxz     :     1.423810
      dyz     :     1.743824
      dx2y2   :     1.523679
      dxy     :     1.506054
      f0      :     0.000073  f :     0.000615
      f+1     :     0.000090
      f-1     :     0.000077
      f+2     :     0.000102
      f-2     :     0.000071
      f+3     :     0.000118
      f-3     :     0.000085

SPIN
  0 Aus       :    -0.032426  s :    -0.032426
      pz      :    -0.007496  p :    -0.038466
      px      :    -0.017058
      py      :    -0.013912
      dz2     :    -0.018045  d :    -0.034748
      dxz     :    -0.015330
      dyz     :     0.001536
      dx2y2   :     0.000048
      dxy     :    -0.002956
      f0      :    -0.000007  f :    -0.000062
      f+1     :    -0.000018
      f-1     :     0.000003
      f+2     :    -0.000000
      f-2     :    -0.000000
      f+3     :    -0.000018
      f-3     :    -0.000022
  1 Aus       :    -0.039419  s :    -0.039419
      pz      :    -0.006214  p :    -0.002424
      px      :     0.004838
      py      :    -0.001048
      dz2     :    -0.001880  d :    -0.004544
      dxz     :    -0.001945
      dyz     :    -0.001835
      dx2y2   :     0.001247
      dxy     :    -0.000130
      f0      :    -0.000010  f :    -0.000003
      f+1     :     0.000000
      f-1     :     0.000002
      f+2     :     0.000002
      f-2     :     0.000000
      f+3     :     0.000003
      f-3     :    -0.000000
  2 Aus       :     0.015379  s :     0.015379
      pz      :    -0.003146  p :    -0.032184
      px      :    -0.016285
      py      :    -0.012753
      dz2     :    -0.014993  d :    -0.036863
      dxz     :    -0.007550
      dyz     :    -0.008414
      dx2y2   :    -0.005692
      dxy     :    -0.000213
      f0      :    -0.000035  f :    -0.000108
      f+1     :    -0.000014
      f-1     :    -0.000005
      f+2     :    -0.000022
      f-2     :    -0.000019
      f+3     :    -0.000016
      f-3     :     0.000001
  3 Aus       :     0.006271  s :     0.006271
      pz      :    -0.001357  p :    -0.010220
      px      :     0.000982
      py      :    -0.009845
      dz2     :     0.001973  d :    -0.028973
      dxz     :    -0.004413
      dyz     :    -0.012470
      dx2y2   :    -0.007367
      dxy     :    -0.006695
      f0      :    -0.000003  f :    -0.000086
      f+1     :    -0.000003
      f-1     :    -0.000011
      f+2     :    -0.000029
      f-2     :    -0.000034
      f+3     :    -0.000002
      f-3     :    -0.000004
  4 Aus       :    -0.049674  s :    -0.049674
      pz      :     0.002616  p :    -0.038866
      px      :    -0.002226
      py      :    -0.039255
      dz2     :     0.009242  d :     0.020634
      dxz     :     0.004131
      dyz     :    -0.003420
      dx2y2   :     0.009435
      dxy     :     0.001245
      f0      :     0.000020  f :     0.000176
      f+1     :     0.000040
      f-1     :     0.000001
      f+2     :     0.000052
      f-2     :    -0.000023
      f+3     :     0.000035
      f-3     :     0.000051
  5 Aus       :     0.007046  s :     0.007046
      pz      :    -0.002910  p :    -0.009988
      px      :    -0.003504
      py      :    -0.003573
      dz2     :    -0.010294  d :    -0.029095
      dxz     :    -0.006043
      dyz     :    -0.010619
      dx2y2   :    -0.000735
      dxy     :    -0.001404
      f0      :    -0.000010  f :    -0.000087
      f+1     :    -0.000011
      f-1     :    -0.000028
      f+2     :    -0.000007
      f-2     :    -0.000004
      f+3     :    -0.000013
      f-3     :    -0.000014
  6 Aus       :    -0.067769  s :    -0.067769
      pz      :    -0.009231  p :    -0.042930
      px      :    -0.023133
      py      :    -0.010567
      dz2     :     0.002217  d :     0.010763
      dxz     :    -0.000353
      dyz     :    -0.000693
      dx2y2   :    -0.002756
      dxy     :     0.012347
      f0      :     0.000010  f :     0.000171
      f+1     :     0.000013
      f-1     :     0.000020
      f+2     :    -0.000010
      f-2     :     0.000048
      f+3     :     0.000055
      f-3     :     0.000035
  7 Aus       :    -0.006919  s :    -0.006919
      pz      :    -0.005095  p :    -0.037050
      px      :    -0.019629
      py      :    -0.012325
      dz2     :    -0.007096  d :    -0.008368
      dxz     :    -0.004767
      dyz     :    -0.005682
      dx2y2   :    -0.004989
      dxy     :     0.014166
      f0      :    -0.000002  f :     0.000109
      f+1     :    -0.000007
      f-1     :     0.000014
      f+2     :    -0.000026
      f-2     :     0.000032
      f+3     :     0.000036
      f-3     :     0.000062
  8 Aus       :    -0.049608  s :    -0.049608
      pz      :     0.002360  p :    -0.039103
      px      :    -0.027977
      py      :    -0.013486
      dz2     :     0.000558  d :     0.020505
      dxz     :     0.002068
      dyz     :     0.011579
      dx2y2   :     0.004864
      dxy     :     0.001436
      f0      :     0.000024  f :     0.000173
      f+1     :    -0.000027
      f-1     :     0.000058
      f+2     :     0.000059
      f-2     :     0.000037
      f+3     :     0.000026
      f-3     :    -0.000003
  9 Aus       :     0.011329  s :     0.011329
      pz      :     0.003409  p :    -0.011233
      px      :    -0.004997
      py      :    -0.009646
      dz2     :     0.013982  d :    -0.002805
      dxz     :     0.006758
      dyz     :    -0.008196
      dx2y2   :    -0.008015
      dxy     :    -0.007334
      f0      :     0.000063  f :     0.000067
      f+1     :     0.000079
      f-1     :    -0.000041
      f+2     :    -0.000016
      f-2     :    -0.000004
      f+3     :    -0.000006
      f-3     :    -0.000008
 10 Aus       :    -0.068356  s :    -0.068356
      pz      :     0.001456  p :    -0.042780
      px      :    -0.011080
      py      :    -0.033156
      dz2     :     0.000547  d :     0.011280
      dxz     :     0.013702
      dyz     :    -0.003445
      dx2y2   :     0.005891
      dxy     :    -0.005415
      f0      :     0.000035  f :     0.000175
      f+1     :     0.000038
      f-1     :    -0.000020
      f+2     :     0.000091
      f-2     :     0.000002
      f+3     :     0.000019
      f-3     :     0.000010
 11 Aus       :    -0.008093  s :    -0.008093
      pz      :     0.001860  p :    -0.036852
      px      :    -0.003691
      py      :    -0.035021
      dz2     :     0.000574  d :    -0.007674
      dxz     :     0.014614
      dyz     :    -0.022811
      dx2y2   :     0.001546
      dxy     :    -0.001597
      f0      :    -0.000015  f :     0.000115
      f+1     :     0.000117
      f-1     :    -0.000014
      f+2     :     0.000060
      f-2     :     0.000001
      f+3     :    -0.000011
      f-3     :    -0.000022
 12 Aus       :    -0.048322  s :    -0.048322
      pz      :    -0.010865  p :    -0.055300
      px      :    -0.027812
      py      :    -0.016623
      dz2     :    -0.006459  d :     0.003064
      dxz     :    -0.002892
      dyz     :     0.002440
      dx2y2   :    -0.002174
      dxy     :     0.012150
      f0      :     0.000010  f :     0.000113
      f+1     :    -0.000042
      f-1     :     0.000001
      f+2     :    -0.000020
      f-2     :     0.000057
      f+3     :     0.000056
      f-3     :     0.000051
 13 Aus       :    -0.066967  s :    -0.066967
      pz      :    -0.008002  p :    -0.034345
      px      :    -0.016740
      py      :    -0.009603
      dz2     :    -0.006188  d :     0.004174
      dxz     :    -0.007006
      dyz     :     0.006080
      dx2y2   :     0.008960
      dxy     :     0.002329
      f0      :     0.000002  f :     0.000110
      f+1     :    -0.000035
      f-1     :     0.000007
      f+2     :     0.000053
      f-2     :     0.000020
      f+3     :     0.000025
      f-3     :     0.000038
 14 Fes       :     0.012233  s :     0.012233
      pz      :     0.006035  p :     0.018775
      px      :     0.006764
      py      :     0.005976
      dz2     :     0.592556  d :     2.880026
      dxz     :     0.782423
      dyz     :     0.367300
      dx2y2   :     0.543708
      dxy     :     0.594039
      f0      :    -0.000002  f :     0.000021
      f+1     :     0.000001
      f-1     :     0.000013
      f+2     :     0.000003
      f-2     :     0.000000
      f+3     :     0.000003
      f-3     :     0.000003


                      *****************************
                      * MAYER POPULATION ANALYSIS *
                      *****************************

  NA   - Mulliken gross atomic population
  ZA   - Total nuclear charge
  QA   - Mulliken gross atomic charge
  VA   - Mayer's total valence
  BVA  - Mayer's bonded valence
  FA   - Mayer's free valence

  ATOM       NA         ZA         QA         VA         BVA        FA
  0 Au    19.3329    19.0000    -0.3329     2.3837     2.3732     0.0105
  1 Au    18.4790    19.0000     0.5210     1.2952     1.2898     0.0054
  2 Au    18.6689    19.0000     0.3311     1.4392     1.4355     0.0037
  3 Au    19.1450    19.0000    -0.1450     2.0713     2.0695     0.0018
  4 Au    18.9753    19.0000     0.0247     1.9828     1.9682     0.0146
  5 Au    19.1461    19.0000    -0.1461     2.0716     2.0697     0.0019
  6 Au    18.7302    19.0000     0.2698     1.6314     1.6071     0.0244
  7 Au    18.7096    19.0000     0.2904     1.5961     1.5910     0.0051
  8 Au    18.9786    19.0000     0.0214     1.9866     1.9721     0.0145
  9 Au    18.6716    19.0000     0.3284     1.5037     1.4994     0.0043
 10 Au    18.7291    19.0000     0.2709     1.6304     1.6058     0.0246
 11 Au    18.7078    19.0000     0.2922     1.5945     1.5892     0.0053
 12 Au    18.5925    19.0000     0.4075     1.5327     1.5233     0.0094
 13 Au    18.6612    19.0000     0.3388     1.5341     1.5136     0.0205
 14 Fe    28.4721    26.0000    -2.4721     7.8291     5.5995     2.2296

  Mayer bond orders larger than 0.100000
B(  0-Au,  1-Au) :   0.4265 B(  0-Au,  3-Au) :   0.3062 B(  0-Au,  5-Au) :   0.3064 
B(  0-Au,  6-Au) :   0.2124 B(  0-Au, 10-Au) :   0.2128 B(  0-Au, 12-Au) :   0.3690 
B(  0-Au, 14-Fe) :   0.3647 B(  1-Au,  3-Au) :   0.2837 B(  1-Au,  5-Au) :   0.2823 
B(  2-Au,  3-Au) :   0.2510 B(  2-Au,  4-Au) :   0.2860 B(  2-Au,  5-Au) :   0.2505 
B(  2-Au,  8-Au) :   0.2879 B(  2-Au, 14-Fe) :   0.1517 B(  3-Au,  5-Au) :   0.2230 
B(  3-Au,  8-Au) :   0.3523 B(  3-Au, 10-Au) :   0.2842 B(  3-Au, 14-Fe) :   0.2152 
B(  4-Au,  5-Au) :   0.3525 B(  4-Au,  6-Au) :   0.1112 B(  4-Au,  8-Au) :   0.1232 
B(  4-Au, 11-Au) :   0.2101 B(  4-Au, 13-Au) :   0.1728 B(  4-Au, 14-Fe) :   0.5265 
B(  5-Au,  6-Au) :   0.2857 B(  5-Au, 14-Fe) :   0.2152 B(  6-Au, 11-Au) :   0.1741 
B(  6-Au, 14-Fe) :   0.5649 B(  7-Au,  8-Au) :   0.2145 B(  7-Au,  9-Au) :   0.2320 
B(  7-Au, 10-Au) :   0.1742 B(  7-Au, 13-Au) :   0.1928 B(  7-Au, 14-Fe) :   0.4520 
B(  8-Au, 10-Au) :   0.1104 B(  8-Au, 13-Au) :   0.1715 B(  8-Au, 14-Fe) :   0.5261 
B(  9-Au, 11-Au) :   0.2296 B(  9-Au, 12-Au) :   0.2935 B(  9-Au, 14-Fe) :   0.4634 
B( 10-Au, 14-Fe) :   0.5669 B( 11-Au, 13-Au) :   0.1942 B( 11-Au, 14-Fe) :   0.4563 
B( 12-Au, 14-Fe) :   0.4852 B( 13-Au, 14-Fe) :   0.5210 

-------
TIMINGS
-------

Total SCF time: 0 days 0 hours 15 min 37 sec 

Total time                  ....     937.256 sec
Sum of individual times     ....     800.923 sec  ( 85.5%)

Fock matrix formation       ....     351.021 sec  ( 37.5%)
  Split-RI-J                ....     165.810 sec  ( 47.2% of F)
  XC integration            ....     154.264 sec  ( 43.9% of F)
    Basis function eval.    ....      11.043 sec  (  7.2% of XC)
    Density eval.           ....      41.632 sec  ( 27.0% of XC)
    XC-Functional eval.     ....       0.928 sec  (  0.6% of XC)
    XC-Potential eval.      ....      50.223 sec  ( 32.6% of XC)
Diagonalization             ....      83.805 sec  (  8.9%)
Density matrix formation    ....      36.603 sec  (  3.9%)
Population analysis         ....       1.783 sec  (  0.2%)
Initial guess               ....       0.602 sec  (  0.1%)
Orbital Transformation      ....     197.243 sec  ( 21.0%)
Orbital Orthonormalization  ....       0.356 sec  (  0.0%)
DIIS solution               ....     119.809 sec  ( 12.8%)
Grid generation             ....       8.028 sec  (  0.9%)

Maximum memory used throughout the entire SCF-calculation: 109.2 MB

-------------------------   --------------------
FINAL SINGLE POINT ENERGY     -3165.061577723479
-------------------------   --------------------


                            ***************************************
                            *     ORCA property calculations      *
                            ***************************************

                                    ---------------------
                                    Active property flags
                                    ---------------------
   (+) Dipole Moment


------------------------------------------------------------------------------
                       ORCA ELECTRIC PROPERTIES CALCULATION
------------------------------------------------------------------------------

Dipole Moment Calculation                       ... on
Quadrupole Moment Calculation                   ... off
Polarizability Calculation                      ... off
GBWName                                         ... pbeSP_job2.gbw
Electron density                                ... pbeSP_job2.scfp
The origin for moment calculation is the CENTER OF MASS  = (13.390722, 14.842617 13.888283)

-------------
DIPOLE MOMENT
-------------
                                X             Y             Z
Electronic contribution:     -9.77168       6.81252     -31.38586
Nuclear contribution   :      9.78502      -6.86384      31.48100
                        -----------------------------------------
Total Dipole Moment    :      0.01334      -0.05132       0.09514
                        -----------------------------------------
Magnitude (a.u.)       :      0.10892
Magnitude (Debye)      :      0.27685



--------------------
Rotational spectrum 
--------------------
 
Rotational constants in cm-1:     0.001321     0.000915     0.000880 
Rotational constants in MHz :    39.592212    27.432360    26.374260 

 Dipole components along the rotational axes: 
x,y,z [a.u.] :     0.107180     0.019345    -0.001165 
x,y,z [Debye]:     0.272430     0.049172    -0.002962 

 

Timings for individual modules:

Sum of individual times         ...      961.044 sec (=  16.017 min)
GTO integral calculation        ...       22.950 sec (=   0.382 min)   2.4 %
SCF iterations                  ...      938.094 sec (=  15.635 min)  97.6 %



                             ****ORCA TERMINATED NORMALLY****
TOTAL RUN TIME: 0 days 0 hours 35 minutes 2 seconds 909 msec
