
                                 *****************
                                 * O   R   C   A *
                                 *****************

                                            #,                                       
                                            ###                                      
                                            ####                                     
                                            #####                                    
                                            ######                                   
                                           ########,                                 
                                     ,,################,,,,,                         
                               ,,#################################,,                 
                          ,,##########################################,,             
                       ,#########################################, ''#####,          
                    ,#############################################,,   '####,        
                  ,##################################################,,,,####,       
                ,###########''''           ''''###############################       
              ,#####''   ,,,,##########,,,,          '''####'''          '####       
            ,##' ,,,,###########################,,,                        '##       
           ' ,,###''''                  '''############,,,                           
         ,,##''                                '''############,,,,        ,,,,,,###''
      ,#''                                            '''#######################'''  
     '                                                          ''''####''''         
             ,#######,   #######,   ,#######,      ##                                
            ,#'     '#,  ##    ##  ,#'     '#,    #''#        ######   ,####,        
            ##       ##  ##   ,#'  ##            #'  '#       #        #'  '#        
            ##       ##  #######   ##           ,######,      #####,   #    #        
            '#,     ,#'  ##    ##  '#,     ,#' ,#      #,         ##   #,  ,#        
             '#######'   ##     ##  '#######'  #'      '#     #####' # '####'        



                  #######################################################
                  #                        -***-                        #
                  #          Department of theory and spectroscopy      #
                  #    Directorship and core code : Frank Neese         #
                  #        Max Planck Institute fuer Kohlenforschung    #
                  #                Kaiser Wilhelm Platz 1               #
                  #                 D-45470 Muelheim/Ruhr               #
                  #                      Germany                        #
                  #                                                     #
                  #                  All rights reserved                #
                  #                        -***-                        #
                  #######################################################


                         Program Version 5.0.3 -  RELEASE  -


 With contributions from (in alphabetic order):
   Daniel Aravena         : Magnetic Suceptibility
   Michael Atanasov       : Ab Initio Ligand Field Theory (pilot matlab implementation)
   Alexander A. Auer      : GIAO ZORA, VPT2 properties, NMR spectrum
   Ute Becker             : Parallelization
   Giovanni Bistoni       : ED, misc. LED, open-shell LED, HFLD
   Martin Brehm           : Molecular dynamics
   Dmytro Bykov           : SCF Hessian
   Vijay G. Chilkuri      : MRCI spin determinant printing, contributions to CSF-ICE
   Dipayan Datta          : RHF DLPNO-CCSD density
   Achintya Kumar Dutta   : EOM-CC, STEOM-CC
   Dmitry Ganyushin       : Spin-Orbit,Spin-Spin,Magnetic field MRCI
   Miquel Garcia          : C-PCM and meta-GGA Hessian, CC/C-PCM, Gaussian charge scheme
   Yang Guo               : DLPNO-NEVPT2, F12-NEVPT2, CIM, IAO-localization
   Andreas Hansen         : Spin unrestricted coupled pair/coupled cluster methods
   Benjamin Helmich-Paris : MC-RPA, TRAH-SCF, COSX integrals
   Lee Huntington         : MR-EOM, pCC
   Robert Izsak           : Overlap fitted RIJCOSX, COSX-SCS-MP3, EOM
   Marcus Kettner         : VPT2
   Christian Kollmar      : KDIIS, OOCD, Brueckner-CCSD(T), CCSD density, CASPT2, CASPT2-K
   Simone Kossmann        : Meta GGA functionals, TD-DFT gradient, OOMP2, MP2 Hessian
   Martin Krupicka        : Initial AUTO-CI
   Lucas Lang             : DCDCAS
   Marvin Lechner         : AUTO-CI (C++ implementation), FIC-MRCC
   Dagmar Lenk            : GEPOL surface, SMD
   Dimitrios Liakos       : Extrapolation schemes; Compound Job, initial MDCI parallelization
   Dimitrios Manganas     : Further ROCIS development; embedding schemes
   Dimitrios Pantazis     : SARC Basis sets
   Anastasios Papadopoulos: AUTO-CI, single reference methods and gradients
   Taras Petrenko         : DFT Hessian,TD-DFT gradient, ASA, ECA, R-Raman, ABS, FL, XAS/XES, NRVS
   Peter Pinski           : DLPNO-MP2, DLPNO-MP2 Gradient
   Christoph Reimann      : Effective Core Potentials
   Marius Retegan         : Local ZFS, SOC
   Christoph Riplinger    : Optimizer, TS searches, QM/MM, DLPNO-CCSD(T), (RO)-DLPNO pert. Triples
   Tobias Risthaus        : Range-separated hybrids, TD-DFT gradient, RPA, STAB
   Michael Roemelt        : Original ROCIS implementation
   Masaaki Saitow         : Open-shell DLPNO-CCSD energy and density
   Barbara Sandhoefer     : DKH picture change effects
   Avijit Sen             : IP-ROCIS
   Kantharuban Sivalingam : CASSCF convergence, NEVPT2, FIC-MRCI
   Bernardo de Souza      : ESD, SOC TD-DFT
   Georgi Stoychev        : AutoAux, RI-MP2 NMR, DLPNO-MP2 response
   Willem Van den Heuvel  : Paramagnetic NMR
   Boris Wezisla          : Elementary symmetry handling
   Frank Wennmohs         : Technical directorship


 We gratefully acknowledge several colleagues who have allowed us to
 interface, adapt or use parts of their codes:
   Stefan Grimme, W. Hujo, H. Kruse, P. Pracht,  : VdW corrections, initial TS optimization,
                  C. Bannwarth, S. Ehlert          DFT functionals, gCP, sTDA/sTD-DF
   Ed Valeev, F. Pavosevic, A. Kumar             : LibInt (2-el integral package), F12 methods
   Garnet Chan, S. Sharma, J. Yang, R. Olivares  : DMRG
   Ulf Ekstrom                                   : XCFun DFT Library
   Mihaly Kallay                                 : mrcc  (arbitrary order and MRCC methods)
   Jiri Pittner, Ondrej Demel                    : Mk-CCSD
   Frank Weinhold                                : gennbo (NPA and NBO analysis)
   Christopher J. Cramer and Donald G. Truhlar   : smd solvation model
   Lars Goerigk                                  : TD-DFT with DH, B97 family of functionals
   V. Asgeirsson, H. Jonsson                     : NEB implementation
   FAccTs GmbH                                   : IRC, NEB, NEB-TS, DLPNO-Multilevel, CI-OPT
                                                   MM, QMMM, 2- and 3-layer-ONIOM, Crystal-QMMM,
                                                   LR-CPCM, SF, NACMEs, symmetry and pop. for TD-DFT,
                                                   nearIR, NL-DFT gradient (VV10), updates on ESD,
                                                   ML-optimized integration grids
   S Lehtola, MJT Oliveira, MAL Marques          : LibXC Library
   Liviu Ungur et al                             : ANISO software


 Your calculation uses the libint2 library for the computation of 2-el integrals
 For citations please refer to: http://libint.valeyev.net

 Your ORCA version has been built with support for libXC version: 5.1.0
 For citations please refer to: https://tddft.org/programs/libxc/

 This ORCA versions uses:
   CBLAS   interface :  Fast vector & matrix operations
   LAPACKE interface :  Fast linear algebra routines
   SCALAPACK package :  Parallel linear algebra routines
   Shared memory     :  Shared parallel matrices
   BLAS/LAPACK       :  OpenBLAS 0.3.15  USE64BITINT DYNAMIC_ARCH NO_AFFINITY Haswell SINGLE_THREADED
        Core in use  :  Haswell
   Copyright (c) 2011-2014, The OpenBLAS Project




***************************************
The coordinates will be read from file: pbe.xyz
***************************************


================================================================================

cite the ECPs for Au [Def2-ECP] as follows:
Ce-Yb(ecp-28): M. Dolg, H. Stoll, H.Preuss, J. Chem. Phys., 1989, 90, 1730-1734.
Y-Cd(ecp-28), Hf-Hg(ecp-46): D. Andrae,U. Haeussermann, M. Dolg, H. Stoll, H. Preuss, Theor. Chim. Acta, 1990, 77, 123-141.
In-Sb(ecp-28), Tl-Bi(ecp-46): B. Metz, H. Stoll, M. Dolg, J. Chem. Phys., 2000, 113, 2563-2569.
Te-Xe(ecp-28), Po-Rn(ecp-46): K. A. Peterson, D. Figgen, E. Goll, H. Stoll, M. Dolg, J. Chem. Phys., 2003, 119, 11113-11123.
Rb(ecp-28), Cs(ecp-46): T. Leininger, A. Nicklass, W. Kuechle, H. Stoll, M. Dolg, A. Bergner, Chem. Phys. Lett., 1996, 255, 274-280.
Sr(ecp-28), Ba(ecp-46): M. Kaupp, P. V. Schleyer, H. Stoll and H. Preuss, J. Chem. Phys., 1991, 94, 1360-1366.
La(ecp-46): M. Dolg, H. Stoll, A. Savin, H. Preuss, Theor. Chim. Acta, 1989, 75, 173-194.
Lu(ecp-28): X. Cao, M. Dolg, J. Chem. Phys., 2001, 115, 7348-7355.

ECP parameters for Au [Def2-ECP] have been obtained from:
TURBOMOLE (7.0.2)

----- Orbital basis set information -----
Your calculation utilizes the basis: def2-TZVP
   F. Weigend and R. Ahlrichs, Phys. Chem. Chem. Phys. 7, 3297 (2005).

----- AuxJ basis set information -----
Your calculation utilizes the auxiliary basis: def2/J
   F. Weigend, Phys. Chem. Chem. Phys. 8, 1057 (2006).

================================================================================
                                        WARNINGS
                       Please study these warnings very carefully!
================================================================================

Using LibXC functional ID 497 : Re-regularized SCAN exchange by Furness et al
[ 1]  J. W. Furness, A. D. Kaplan, J. Ning, J. P. Perdew, and J. Sun, J. Phys. Chem. Lett. 11, 8208 (2020)
[ 2]  J. W. Furness, A. D. Kaplan, J. Ning, J. P. Perdew, and J. Sun, J. Phys. Chem. Lett. 11, 9248 (2020)
Using LibXC functional ID 498 : Re-regularized SCAN correlation by Furness et al
[ 1]  J. W. Furness, A. D. Kaplan, J. Ning, J. P. Perdew, and J. Sun, J. Phys. Chem. Lett. 11, 8208 (2020)
[ 2]  J. W. Furness, A. D. Kaplan, J. Ning, J. P. Perdew, and J. Sun, J. Phys. Chem. Lett. 11, 9248 (2020)
Using LibXC functional ID 497 : Re-regularized SCAN exchange by Furness et al
[ 1]  J. W. Furness, A. D. Kaplan, J. Ning, J. P. Perdew, and J. Sun, J. Phys. Chem. Lett. 11, 8208 (2020)
[ 2]  J. W. Furness, A. D. Kaplan, J. Ning, J. P. Perdew, and J. Sun, J. Phys. Chem. Lett. 11, 9248 (2020)
Using LibXC functional ID 498 : Re-regularized SCAN correlation by Furness et al
[ 1]  J. W. Furness, A. D. Kaplan, J. Ning, J. P. Perdew, and J. Sun, J. Phys. Chem. Lett. 11, 8208 (2020)
[ 2]  J. W. Furness, A. D. Kaplan, J. Ning, J. P. Perdew, and J. Sun, J. Phys. Chem. Lett. 11, 9248 (2020)

WARNING: your system is open-shell and RHF/RKS was chosen
  ===> : WILL SWITCH to UHF/UKS


INFO   : the flag for use of the SHARK integral package has been found!



***************************************
The coordinates will be read from file: pbe.xyz
***************************************


================================================================================

cite the ECPs for Au [Def2-ECP] as follows:
Ce-Yb(ecp-28): M. Dolg, H. Stoll, H.Preuss, J. Chem. Phys., 1989, 90, 1730-1734.
Y-Cd(ecp-28), Hf-Hg(ecp-46): D. Andrae,U. Haeussermann, M. Dolg, H. Stoll, H. Preuss, Theor. Chim. Acta, 1990, 77, 123-141.
In-Sb(ecp-28), Tl-Bi(ecp-46): B. Metz, H. Stoll, M. Dolg, J. Chem. Phys., 2000, 113, 2563-2569.
Te-Xe(ecp-28), Po-Rn(ecp-46): K. A. Peterson, D. Figgen, E. Goll, H. Stoll, M. Dolg, J. Chem. Phys., 2003, 119, 11113-11123.
Rb(ecp-28), Cs(ecp-46): T. Leininger, A. Nicklass, W. Kuechle, H. Stoll, M. Dolg, A. Bergner, Chem. Phys. Lett., 1996, 255, 274-280.
Sr(ecp-28), Ba(ecp-46): M. Kaupp, P. V. Schleyer, H. Stoll and H. Preuss, J. Chem. Phys., 1991, 94, 1360-1366.
La(ecp-46): M. Dolg, H. Stoll, A. Savin, H. Preuss, Theor. Chim. Acta, 1989, 75, 173-194.
Lu(ecp-28): X. Cao, M. Dolg, J. Chem. Phys., 2001, 115, 7348-7355.

ECP parameters for Au [Def2-ECP] have been obtained from:
TURBOMOLE (7.0.2)

----- Orbital basis set information -----
Your calculation utilizes the basis: def2-TZVP
   F. Weigend and R. Ahlrichs, Phys. Chem. Chem. Phys. 7, 3297 (2005).

----- AuxJ basis set information -----
Your calculation utilizes the auxiliary basis: def2/J
   F. Weigend, Phys. Chem. Chem. Phys. 8, 1057 (2006).

================================================================================
                                        WARNINGS
                       Please study these warnings very carefully!
================================================================================

Using LibXC functional ID 497 : Re-regularized SCAN exchange by Furness et al
[ 1]  J. W. Furness, A. D. Kaplan, J. Ning, J. P. Perdew, and J. Sun, J. Phys. Chem. Lett. 11, 8208 (2020)
[ 2]  J. W. Furness, A. D. Kaplan, J. Ning, J. P. Perdew, and J. Sun, J. Phys. Chem. Lett. 11, 9248 (2020)
Using LibXC functional ID 498 : Re-regularized SCAN correlation by Furness et al
[ 1]  J. W. Furness, A. D. Kaplan, J. Ning, J. P. Perdew, and J. Sun, J. Phys. Chem. Lett. 11, 8208 (2020)
[ 2]  J. W. Furness, A. D. Kaplan, J. Ning, J. P. Perdew, and J. Sun, J. Phys. Chem. Lett. 11, 9248 (2020)
Using LibXC functional ID 497 : Re-regularized SCAN exchange by Furness et al
[ 1]  J. W. Furness, A. D. Kaplan, J. Ning, J. P. Perdew, and J. Sun, J. Phys. Chem. Lett. 11, 8208 (2020)
[ 2]  J. W. Furness, A. D. Kaplan, J. Ning, J. P. Perdew, and J. Sun, J. Phys. Chem. Lett. 11, 9248 (2020)
Using LibXC functional ID 498 : Re-regularized SCAN correlation by Furness et al
[ 1]  J. W. Furness, A. D. Kaplan, J. Ning, J. P. Perdew, and J. Sun, J. Phys. Chem. Lett. 11, 8208 (2020)
[ 2]  J. W. Furness, A. D. Kaplan, J. Ning, J. P. Perdew, and J. Sun, J. Phys. Chem. Lett. 11, 9248 (2020)

INFO   : the flag for use of the SHARK integral package has been found!

================================================================================
                                       INPUT FILE
================================================================================
NAME = scan.inp
|  1> !R2SCAN def2-TZVP VERYSLOWCONV
|  2> !NOTRAH
|  3> %pal nprocs 6 end 
|  4> 
|  5> *xyzfile 0 5 pbe.xyz
|  6> 
|  7> $new_job
|  8> 
|  9> !R2SCAN def2-TZVP VERYSLOWCONV
| 10> !NOTRAH 
| 11> 
| 12> %pal nprocs 6 end 
| 13> 
| 14> *xyzfile 0 3 pbe.xyz
| 15> 
| 16> 
| 17> 
| 18> 
| 19> 
| 20>                          ****END OF INPUT****
================================================================================


                 $$$$$$$$$$$$$$$$$$$$$$$$$$$$$$$$$$$$$$$$$$$$$$ 
                 $ THERE ARE  2 JOBS TO BE PROCESSED THIS RUN $
                 $$$$$$$$$$$$$$$$$$$$$$$$$$$$$$$$$$$$$$$$$$$$$$ 




                 $$$$$$$$$$$$$$$$  JOB NUMBER  1 $$$$$$$$$$$$$$


                       ****************************
                       * Single Point Calculation *
                       ****************************

---------------------------------
CARTESIAN COORDINATES (ANGSTROEM)
---------------------------------
  Au     7.735625   10.021001    6.320655
  Au     6.714205   10.099642    3.793133
  Au     5.353098    6.261140    5.126060
  Au     7.706315    7.684291    4.661576
  Au     4.758137    7.100000    7.725146
  Au     5.132316    8.972509    5.745763
  Au     5.770792    9.803221    8.356111
  Au     9.294783    5.924236    8.768414
  Au     7.710105    5.620544    6.480858
  Au     8.456922    7.759178   10.690639
  Au     9.569718    7.902554    6.759605
  Au     5.696273    7.735921   10.290891
  Au     8.689304    9.792140    8.876154
  Au     6.546088    5.334831    9.066909
  Fe     7.337272    7.678162    8.157562

----------------------------
CARTESIAN COORDINATES (A.U.)
----------------------------
  NO LB      ZA    FRAG     MASS         X           Y           Z
   0 Au   19.0000*   0   196.966   14.618212   18.936948   11.944307
   1 Au   19.0000*   0   196.966   12.688009   19.085558    7.167983
   2 Au   19.0000*   0   196.966   10.115889   11.831840    9.686849
   3 Au   19.0000*   0   196.966   14.562824   14.521205    8.809102
   4 Au   19.0000*   0   196.966    8.991576   13.417056   14.598410
   5 Au   19.0000*   0   196.966    9.698671   16.955585   10.857919
   6 Au   19.0000*   0   196.966   10.905216   18.525402   15.790761
   7 Au   19.0000*   0   196.966   17.564593   11.195183   16.569901
   8 Au   19.0000*   0   196.966   14.569987   10.621290   12.247046
   9 Au   19.0000*   0   196.966   15.981267   14.662722   20.202380
  10 Au   19.0000*   0   196.966   18.084147   14.933664   12.773803
  11 Au   19.0000*   0   196.966   10.764396   14.618773   19.446965
  12 Au   19.0000*   0   196.966   16.420405   18.504462   16.773500
  13 Au   19.0000*   0   196.966   12.370313   10.081370   17.133975
  14 Fe   26.0000    0    55.850   13.865434   14.509623   15.415558
* core charge reduced due to ECP

--------------------------------
INTERNAL COORDINATES (ANGSTROEM)
--------------------------------
 Au     0   0   0     0.000000000000     0.00000000     0.00000000
 Au     1   0   0     2.727242008881     0.00000000     0.00000000
 Au     2   1   0     4.285254355796    78.74701361     0.00000000
 Au     2   1   3     2.751798895237    63.07540541   321.20145817
 Au     3   2   1     2.795158891471    95.04936717    39.28221955
 Au     5   3   2     2.750319234557    60.40671197    15.79765073
 Au     6   5   3     2.812765349049    64.15466952   208.46500451
 Au     4   2   1     4.742060689914   136.04319914     8.02524288
 Au     4   2   1     2.751154159118   150.18248995    56.89690646
 Au     8   4   2     2.786391179056   104.61389988    14.47377556
 Au     4   2   1     2.814540559594   113.94607614   337.48858849
 Au    10   8   4     2.789538483126   101.14155787    58.13084710
 Au    10   8   4     2.734828959452    90.35950793   328.33968875
 Au    12  10   8     2.825871747660    76.79364471    18.72772472
 Fe    13  10   8     2.610223655287    62.39364689    50.42079880

---------------------------
INTERNAL COORDINATES (A.U.)
---------------------------
 Au     0   0   0     0.000000000000     0.00000000     0.00000000
 Au     1   0   0     5.153740497710     0.00000000     0.00000000
 Au     2   1   0     8.097957146647    78.74701361     0.00000000
 Au     2   1   3     5.200146287626    63.07540541   321.20145817
 Au     3   2   1     5.282084805676    95.04936717    39.28221955
 Au     5   3   2     5.197350134168    60.40671197    15.79765073
 Au     6   5   3     5.315356188687    64.15466952   208.46500451
 Au     4   2   1     8.961196014371   136.04319914     8.02524288
 Au     4   2   1     5.198927912931   150.18248995    56.89690646
 Au     8   4   2     5.265516230389   104.61389988    14.47377556
 Au     4   2   1     5.318710850446   113.94607614   337.48858849
 Au    10   8   4     5.271463773142   101.14155787    58.13084710
 Au    10   8   4     5.168077756481    90.35950793   328.33968875
 Au    12  10   8     5.340123692663    76.79364471    18.72772472
 Fe    13  10   8     4.932607856776    62.39364689    50.42079880

---------------------
BASIS SET INFORMATION
---------------------
There are 2 groups of distinct atoms

 Group   1 Type Au  : 8s7p6d1f contracted to 6s4p3d1f pattern {311111/4111/411/1}
 Group   2 Type Fe  : 17s11p7d1f contracted to 6s4p4d1f pattern {842111/6311/4111/1}

Atom   0Au   basis set group =>   1
Atom   1Au   basis set group =>   1
Atom   2Au   basis set group =>   1
Atom   3Au   basis set group =>   1
Atom   4Au   basis set group =>   1
Atom   5Au   basis set group =>   1
Atom   6Au   basis set group =>   1
Atom   7Au   basis set group =>   1
Atom   8Au   basis set group =>   1
Atom   9Au   basis set group =>   1
Atom  10Au   basis set group =>   1
Atom  11Au   basis set group =>   1
Atom  12Au   basis set group =>   1
Atom  13Au   basis set group =>   1
Atom  14Fe   basis set group =>   2
---------------------------------
AUXILIARY/J BASIS SET INFORMATION
---------------------------------
There are 2 groups of distinct atoms

 Group   1 Type Au  : 11s5p5d3f3g contracted to 8s5p5d2f3g pattern {41111111/11111/11111/21/111}
 Group   2 Type Fe  : 19s5p5d3f3g contracted to 8s5p5d2f3g pattern {121111111/11111/11111/21/111}

Atom   0Au   basis set group =>   1
Atom   1Au   basis set group =>   1
Atom   2Au   basis set group =>   1
Atom   3Au   basis set group =>   1
Atom   4Au   basis set group =>   1
Atom   5Au   basis set group =>   1
Atom   6Au   basis set group =>   1
Atom   7Au   basis set group =>   1
Atom   8Au   basis set group =>   1
Atom   9Au   basis set group =>   1
Atom  10Au   basis set group =>   1
Atom  11Au   basis set group =>   1
Atom  12Au   basis set group =>   1
Atom  13Au   basis set group =>   1
Atom  14Fe   basis set group =>   2
-------------------------
ECP PARAMETER INFORMATION
-------------------------

 Group 1, Type Au ECP Def2-ECP (replacing 60 core electrons, lmax=3)

Atom   0Au   ECP group =>   1
Atom   1Au   ECP group =>   1
Atom   2Au   ECP group =>   1
Atom   3Au   ECP group =>   1
Atom   4Au   ECP group =>   1
Atom   5Au   ECP group =>   1
Atom   6Au   ECP group =>   1
Atom   7Au   ECP group =>   1
Atom   8Au   ECP group =>   1
Atom   9Au   ECP group =>   1
Atom  10Au   ECP group =>   1
Atom  11Au   ECP group =>   1
Atom  12Au   ECP group =>   1
Atom  13Au   ECP group =>   1



           ************************************************************
           *        Program running with 6 parallel MPI-processes     *
           *              working on a common directory               *
           ************************************************************
------------------------------------------------------------------------------
                           ORCA GTO INTEGRAL CALCULATION
                           -- RI-GTO INTEGRALS CHOSEN --
------------------------------------------------------------------------------
------------------------------------------------------------------------------
                   ___                                                        
                  /   \      - P O W E R E D   B Y -                         
                 /     \                                                     
                 |  |  |   _    _      __       _____    __    __             
                 |  |  |  | |  | |    /  \     |  _  \  |  |  /  |          
                  \  \/   | |  | |   /    \    | | | |  |  | /  /          
                 / \  \   | |__| |  /  /\  \   | |_| |  |  |/  /          
                |  |  |   |  __  | /  /__\  \  |    /   |      \           
                |  |  |   | |  | | |   __   |  |    \   |  |\   \          
                \     /   | |  | | |  |  |  |  | |\  \  |  | \   \       
                 \___/    |_|  |_| |__|  |__|  |_| \__\ |__|  \__/        
                                                                              
                      - O R C A' S   B I G   F R I E N D -                    
                                      &                                       
                       - I N T E G R A L  F E E D E R -                       
                                                                              
 v1 FN, 2020, v2 2021                                                         
------------------------------------------------------------------------------


Reading SHARK input file scan.SHARKINP.tmp ... ok
----------------------
SHARK INTEGRAL PACKAGE
----------------------

Number of atoms                             ...     15
Number of basis functions                   ...    605
Number of shells                            ...    211
Maximum angular momentum                    ...      3
Integral batch strategy                     ... SHARK/LIBINT Hybrid
RI-J (if used) integral strategy            ... SPLIT-RIJ (Revised 2003 algorithm where possible)
Printlevel                                  ...      1
Contraction scheme used                     ... SEGMENTED contraction
Coulomb Range Separation                    ... NOT USED
Exchange Range Separation                   ... NOT USED
Finite Nucleus Model                        ... NOT USED
Auxiliary Coulomb fitting basis             ... AVAILABLE
   # of basis functions in Aux-J            ...   1335
   # of shells in Aux-J                     ...    345
   Maximum angular momentum in Aux-J        ...      4
Auxiliary J/K fitting basis                 ... NOT available
Auxiliary Correlation fitting basis         ... NOT available
Auxiliary 'external' fitting basis          ... NOT available
Integral threshold                          ...     1.000000e-10
Primitive cut-off                           ...     1.000000e-11
Primitive pair pre-selection threshold      ...     1.000000e-11

Calculating pre-screening integrals         ... done (  0.1 sec) Dimension = 211
Organizing shell pair data                  ... done (  0.3 sec)
Shell pair information
Total number of shell pairs                 ...     22366
Shell pairs after pre-screening             ...     17732
Total number of primitive shell pairs       ...     59609
Primitive shell pairs kept                  ...     34150
          la=0 lb=0:   2777 shell pairs
          la=1 lb=0:   4028 shell pairs
          la=1 lb=1:   1527 shell pairs
          la=2 lb=0:   3529 shell pairs
          la=2 lb=1:   2482 shell pairs
          la=2 lb=2:   1024 shell pairs
          la=3 lb=0:    924 shell pairs
          la=3 lb=1:    718 shell pairs
          la=3 lb=2:    623 shell pairs
          la=3 lb=3:    100 shell pairs

Calculating one electron integrals          ... done (  0.0 sec)
Calculating ECP integrals                   ... done (  8.4 sec)
Calculating RI/J V-Matrix + Cholesky decomp.... done (  0.1 sec)
Calculating Nuclear repulsion               ... done (  0.0 sec) ENN=   5698.526858540804 Eh

SHARK setup successfully completed in   9.2 seconds

Maximum memory used throughout the entire GTOINT-calculation: 34.5 MB


           ************************************************************
           *        Program running with 6 parallel MPI-processes     *
           *              working on a common directory               *
           ************************************************************
-------------------------------------------------------------------------------
                                 ORCA SCF
-------------------------------------------------------------------------------

------------
SCF SETTINGS
------------
Hamiltonian:
 Density Functional     Method          .... DFT(GTOs)
  Functional kind                       .... Exchange
  Functional name                       .... Re-regularized SCAN exchange by Furness et al
  Functional family                     .... MGGA
  Functional refs                              
    [ 0] J. W. Furness, A. D. Kaplan, J. Ning, J. P. Perdew, and J. Sun, J. Phys. Chem. Lett. 11, 8208 (2020)
    [ 1] J. W. Furness, A. D. Kaplan, J. Ning, J. P. Perdew, and J. Sun, J. Phys. Chem. Lett. 11, 9248 (2020)
  Functional external parameters         .... 8
 Parameter  0 :         c1 parameter
 Parameter  1 :         c2 parameter
 Parameter  2 :          d parameter
 Parameter  3 :         k1 parameter
 Parameter  4 :       taur parameter
 Parameter  5 :     alphar parameter
 Parameter  6 :        eta parameter
 Parameter  7 :        dp2 parameter
  Functional kind                       .... Correlation
  Functional name                       .... Re-regularized SCAN correlation by Furness et al
  Functional family                     .... MGGA
  Functional refs                              
    [ 0] J. W. Furness, A. D. Kaplan, J. Ning, J. P. Perdew, and J. Sun, J. Phys. Chem. Lett. 11, 8208 (2020)
    [ 1] J. W. Furness, A. D. Kaplan, J. Ning, J. P. Perdew, and J. Sun, J. Phys. Chem. Lett. 11, 9248 (2020)
  Functional external parameters         .... 0
 Gradients option       PostSCFGGA      .... off
   Density functional embedding theory  .... OFF
   NL short-range parameter             .... 12.300000
 RI-approximation to the Coulomb term is turned on
   Number of AuxJ basis functions       .... 1335


General Settings:
 Integral files         IntName         .... scan
 Hartree-Fock type      HFTyp           .... UHF
 Total Charge           Charge          ....    0
 Multiplicity           Mult            ....    5
 Number of Electrons    NEL             ....  292
 Basis Dimension        Dim             ....  605
 Nuclear Repulsion      ENuc            ....   5698.5268585408 Eh

Convergence Acceleration:
 DIIS                   CNVDIIS         .... on
   Start iteration      DIISMaxIt       ....     0
   Startup error        DIISStart       ....  0.200000
   # of expansion vecs  DIISMaxEq       ....     5
   Bias factor          DIISBfac        ....   1.050
   Max. coefficient     DIISMaxC        ....  10.000
 Trust-Rad. Augm. Hess. CNVTRAH         .... off
 SOSCF                  CNVSOSCF        .... off
 Level Shifting         CNVShift        .... on
   Level shift para.    LevelShift      ....    0.2500
   Turn off err/grad.   ShiftErr        ....    0.0000
 Zerner damping         CNVZerner       .... off
 Static damping         CNVDamp         .... on
   Fraction old density DampFac         ....    0.9200
   Max. Damping (<1)    DampMax         ....    0.9800
   Min. Damping (>=0)   DampMin         ....    0.0000
   Turn off err/grad.   DampErr         ....    0.0030
 Fernandez-Rico         CNVRico         .... off

SCF Procedure:
 Maximum # iterations   MaxIter         ....   125
 SCF integral mode      SCFMode         .... Direct
   Integral package                     .... SHARK and LIBINT hybrid scheme
 Reset frequency        DirectResetFreq ....    20
 Integral Threshold     Thresh          ....  1.000e-10 Eh
 Primitive CutOff       TCut            ....  1.000e-11 Eh

Convergence Tolerance:
 Convergence Check Mode ConvCheckMode   .... Total+1el-Energy
 Convergence forced     ConvForced      .... 0
 Energy Change          TolE            ....  1.000e-06 Eh
 1-El. energy change                    ....  1.000e-03 Eh
 DIIS Error             TolErr          ....  1.000e-06


Diagonalization of the overlap matrix:
Smallest eigenvalue                        ... 3.899e-04
Time for diagonalization                   ...    0.039 sec
Threshold for overlap eigenvalues          ... 1.000e-08
Number of eigenvalues below threshold      ... 0
Time for construction of square roots      ...    0.027 sec
Total time needed                          ...    0.067 sec

Time for model grid setup =    0.400 sec

------------------------------
INITIAL GUESS: MODEL POTENTIAL
------------------------------
Loading Hartree-Fock densities                     ... done
  calling /media/Programs/ORCA501/orca scan_atom79.inp > scan_atom79.out in order to generate an atomic fitting density for atom 0 (Au with ECP) on-the-fly... 
    atom 0 (Au), assumed electronic state with S=2: 1s2 2s2 2p6 3s2 3p6 4s2 3d10 4p6 5s2 4d10 5p6 6s1 4f14 5d10           ... done
Calculating cut-offs                               ... done
Initializing the effective Hamiltonian             ... done
Setting up the integral package (SHARK)            ... done
Starting the Coulomb interaction                   ... done (   0.4 sec)
Reading the grid                                   ... done
Mapping shells                                     ... done
Starting the XC term evaluation                    ... done (   0.4 sec)
  promolecular density results
     # of electrons  =   1132.014302667
     EX              =  -5175.634109715
     EC              =    -68.980513283
     EX+EC           =  -5244.614622998
Transforming the Hamiltonian                       ... done (   0.0 sec)
Diagonalizing the Hamiltonian                      ... done (   0.0 sec)
Back transforming the eigenvectors                 ... done (   0.0 sec)
Now organizing SCF variables                       ... done
                      ------------------
                      INITIAL GUESS DONE (   2.5 sec)
                      ------------------
-------------------
DFT GRID GENERATION
-------------------

General Integration Accuracy     IntAcc      ... 4.388
Radial Grid Type                 RadialGrid  ... OptM3 with GC (2021)
Angular Grid (max. ang.)         AngularGrid ... 4 (Lebedev-302)
Angular grid pruning method      GridPruning ... 4 (adaptive)
Weight generation scheme         WeightScheme... Becke
Basis function cutoff            BFCut       ... 1.0000e-10
Integration weight cutoff        WCut        ... 1.0000e-14
Angular grids for H and He will be reduced by one unit
Partially contracted basis set               ... off
Rotationally invariant grid construction     ... off

Total number of grid points                  ...   165811
Total number of batches                      ...     2597
Average number of points per batch           ...       63
Average number of grid points per atom       ...    11054
Time for grid setup =    1.280 sec

--------------
SCF ITERATIONS
--------------
ITER       Energy         Delta-E        Max-DP      RMS-DP      [F,P]     Damp
               ***  Starting incremental Fock matrix formation  ***
  0  -3161.8796841455   0.000000000000 0.19726057  0.00090060  0.5509410 0.9200
  1  -3163.2502780759  -1.370593930376 0.14413277  0.00076868  0.3513506 0.9200
                               ***Turning on DIIS***
  2  -3163.9837015984  -0.733423522541 0.08661265  0.00059302  0.2528198 0.9200
  3  -3164.2967951175  -0.313093519070 0.05939288  0.00047043  0.2319145 0.9200
  4  -3164.3890700450  -0.092274927552 0.03138988  0.00034038  0.2129858 0.9200
  5  -3164.4441865416  -0.055116496555 0.03547902  0.00028754  0.1956167 0.9200
  6  -3164.5439805009  -0.099793959317 0.04040334  0.00025746  0.1795914 0.9200
  7  -3164.6128707891  -0.068890288135 0.03706428  0.00023232  0.1650049 0.9200
  8  -3164.6581968592  -0.045326070182 0.03021623  0.00021902  0.1517308 0.9200
  9  -3164.7313119328  -0.073115073543 0.02383245  0.00022455  0.1395334 0.9200
 10  -3164.7860400982  -0.054728165426 0.02433275  0.00018576  0.1283603 0.9200
 11  -3164.8326573913  -0.046617293137 0.02451792  0.00017240  0.1181187 0.9200
 12  -3164.8902172711  -0.057559879770 0.02819018  0.00016664  0.1085407 0.9200
 13  -3164.9352939814  -0.045076710328 0.02492570  0.00014995  0.0997036 0.9200
 14  -3164.9746649389  -0.039370957485 0.01558885  0.00014180  0.0916418 0.9200
 15  -3165.0190398444  -0.044374905447 0.01539447  0.00013958  0.0842416 0.9200
 16  -3165.0574663900  -0.038426545653 0.02233565  0.00012711  0.0775211 0.9200
 17  -3165.0917830118  -0.034316621751 0.02110918  0.00011716  0.0713384 0.9200
 18  -3165.1260559256  -0.034272913801 0.02150090  0.00011193  0.0655608 0.9200
 19  -3165.1560819472  -0.030026021574 0.01880489  0.00010268  0.0602378 0.9200
               *** Restarting incremental Fock matrix formation ***
                                   *** Resetting DIIS ***
 20  -3165.1843500022  -0.028268055039 0.01177479  0.00009672  0.0553835 0.9200
 21  -3165.2118858887  -0.027535886536 0.01241903  0.00009114  0.0508864 0.9200
 22  -3165.2375364472  -0.025650558518 0.01533662  0.00008494  0.0467672 0.9200
 23  -3165.2608917943  -0.023355347093 0.01628089  0.00008033  0.0429866 0.9200
 24  -3165.2823917416  -0.021499947264 0.01546277  0.00007672  0.0395361 0.9200
 25  -3165.3026853995  -0.020293657914 0.01370461  0.00007345  0.0363784 0.9200
 26  -3165.3217233337  -0.019037934214 0.01275999  0.00006931  0.0334576 0.9200
 27  -3165.3392705215  -0.017547187725 0.01209774  0.00006485  0.0307751 0.9200
 28  -3165.3553860101  -0.016115488694 0.01145881  0.00006100  0.0282985 0.9200
 29  -3165.3703897197  -0.015003709578 0.01053676  0.00005816  0.0260219 0.9200
 30  -3165.3844947208  -0.014105001031 0.00983588  0.00005516  0.0239425 0.9200
 31  -3165.3975726736  -0.013077952837 0.00915922  0.00005128  0.0220255 0.9200
 32  -3165.4096154797  -0.012042806115 0.00845701  0.00004755  0.0202538 0.9200
 33  -3165.4207241000  -0.011108620326 0.00780257  0.00004466  0.0186235 0.9200
 34  -3165.4311034282  -0.010379328166 0.00725438  0.00004249  0.0171299 0.9200
 35  -3165.4407777129  -0.009674284719 0.00691146  0.00003973  0.0157607 0.9200
 36  -3165.4497020756  -0.008924362729 0.00637588  0.00003663  0.0144985 0.9200
 37  -3165.4579207733  -0.008218697652 0.00583699  0.00003398  0.0133328 0.9200
 38  -3165.4655297578  -0.007608984545 0.00533047  0.00003201  0.0122608 0.9200
 39  -3165.4726199968  -0.007090238924 0.00456983  0.00003009  0.0112782 0.9200
               *** Restarting incremental Fock matrix formation ***
                                   *** Resetting DIIS ***
 40  -3165.4791857588  -0.006565762078 0.00349818  0.00002745  0.0103760 0.9200
 41  -3165.4852593330  -0.006073574155 0.00347449  0.00002489  0.0095358 0.9200
 42  -3165.4908544760  -0.005595143016 0.00370805  0.00002275  0.0087655 0.9200
 43  -3165.4960026057  -0.005148129668 0.00375828  0.00002131  0.0080600 0.9200
 44  -3165.5007618566  -0.004759250917 0.00356933  0.00002030  0.0074149 0.9200
 45  -3165.5051715075  -0.004409650881 0.00320483  0.00001936  0.0068228 0.9200
 46  -3165.5092507670  -0.004079259556 0.00300607  0.00001811  0.0062770 0.9200
 47  -3165.5130084762  -0.003757709138 0.00279771  0.00001680  0.0057735 0.9200
 48  -3165.5164654524  -0.003456976226 0.00254973  0.00001573  0.0053097 0.9200
 49  -3165.5196659673  -0.003200514868 0.00232653  0.00001495  0.0048842 0.9200
 50  -3165.5226297050  -0.002963737697 0.00219620  0.00001409  0.0044937 0.9200
 51  -3165.5253625042  -0.002732799267 0.00203478  0.00001305  0.0041343 0.9200
 52  -3165.5278764881  -0.002513983869 0.00185511  0.00001210  0.0038028 0.9200
 53  -3165.5301922418  -0.002315753643 0.00166347  0.00001136  0.0034976 0.9200
 54  -3165.5323363439  -0.002144102143 0.00154833  0.00001079  0.0032174 0.9200
 55  -3165.5343177897  -0.001981445848 0.01860310  0.00012589  0.0029601 0.0000
 56  -3165.5573985352  -0.023080745455 0.00215928  0.00001017  0.0008264 0.0000
 57  -3165.5573563559   0.000042179271 0.00043615  0.00000468  0.0017860 0.0000
 58  -3165.5573975240  -0.000041168069 0.00048242  0.00000395  0.0008606 0.0000
 59  -3165.5574216037  -0.000024079681 0.00155157  0.00000506  0.0003819 0.0000
               *** Restarting incremental Fock matrix formation ***
                                   *** Resetting DIIS ***
 60  -3165.5574350532  -0.000013449568 0.00052699  0.00000362  0.0001472 0.0000
 61  -3165.5574498890  -0.000014835791 0.00038025  0.00000267  0.0004837 0.0000
 62  -3165.5574534356  -0.000003546596 0.00031934  0.00000229  0.0003214 0.0000
 63  -3165.5574555315  -0.000002095893 0.00025460  0.00000210  0.0002568 0.0000
 64  -3165.5574559056  -0.000000374028 0.00026685  0.00000220  0.0001289 0.0000
 65  -3165.5574570834  -0.000001177810 0.00022575  0.00000191  0.0000751 0.0000
 66  -3165.5574571911  -0.000000107786 0.00023577  0.00000175  0.0000626 0.0000
 67  -3165.5574589582  -0.000001767025 0.00023087  0.00000196  0.0000590 0.0000
 68  -3165.5574601519  -0.000001193744 0.00022785  0.00000168  0.0000479 0.0000
 69  -3165.5574605949  -0.000000442966 0.00021976  0.00000177  0.0000439 0.0000
 70  -3165.5574612531  -0.000000658213 0.00020474  0.00000145  0.0000563 0.0000
 71  -3165.5574616738  -0.000000420739 0.00019598  0.00000138  0.0000349 0.0000
 72  -3165.5574630384  -0.000001364587 0.00016930  0.00000141  0.0000556 0.0000
 73  -3165.5574620895   0.000000948904 0.00015722  0.00000124  0.0000491 0.0000
 74  -3165.5574620334   0.000000056074 0.00013567  0.00000099  0.0000336 0.0000
 75  -3165.5574624792  -0.000000445792 0.00012383  0.00000092  0.0000266 0.0000
                 **** Energy Check signals convergence ****

               *****************************************************
               *                     SUCCESS                       *
               *           SCF CONVERGED AFTER  76 CYCLES          *
               *****************************************************


----------------
TOTAL SCF ENERGY
----------------

Total Energy       :        -3165.55746281 Eh          -86139.19780 eV

Components:
Nuclear Repulsion  :         5698.52685854 Eh          155064.79916 eV
Electronic Energy  :        -8864.08432135 Eh         -241203.99696 eV
One Electron Energy:       -16475.49459622 Eh         -448321.00016 eV
Two Electron Energy:         7611.41027487 Eh          207117.00320 eV

Virial components:
Potential Energy   :        -5069.60750822 Eh         -137951.03359 eV
Kinetic Energy     :         1904.05004541 Eh           51811.83580 eV
Virial Ratio       :            2.66253900


DFT components:
N(Alpha)           :      147.999956401302 electrons
N(Beta)            :      143.999955005715 electrons
N(Total)           :      291.999911407017 electrons
E(X)               :     -224.511449841286 Eh       
E(C)               :      -12.141609863517 Eh       
E(XC)              :     -236.653059704803 Eh       
DFET-embed. en.    :        0.000000000000 Eh       

---------------
SCF CONVERGENCE
---------------

  Last Energy change         ...   -3.2993e-07  Tolerance :   1.0000e-06
  Last MAX-Density change    ...    1.0517e-04  Tolerance :   1.0000e-05
  Last RMS-Density change    ...    7.6212e-07  Tolerance :   1.0000e-06
  Last DIIS Error            ...    2.5509e-05  Tolerance :   1.0000e-06

             **** THE GBW FILE WAS UPDATED (scan.gbw) ****
             **** DENSITY scan.scfp WAS UPDATED ****
             **** ENERGY FILE WAS UPDATED (scan.en.tmp) ****
----------------------
UHF SPIN CONTAMINATION
----------------------

Warning: in a DFT calculation there is little theoretical justification to 
         calculate <S**2> as in Hartree-Fock theory. We will do it anyways
         but you should keep in mind that the values have only limited relevance

Expectation value of <S**2>     :     6.509908
Ideal value S*(S+1) for S=2.0   :     6.000000
Deviation                       :     0.509908

             **** THE GBW FILE WAS UPDATED (scan.gbw) ****
             **** DENSITY scan.scfp WAS UPDATED ****
----------------
ORBITAL ENERGIES
----------------
                 SPIN UP ORBITALS
  NO   OCC          E(Eh)            E(eV) 
   0   1.0000    -255.665252     -6957.0052 
   1   1.0000     -29.970380      -815.5355 
   2   1.0000     -25.806837      -702.2397 
   3   1.0000     -25.796328      -701.9538 
   4   1.0000     -25.796314      -701.9534 
   5   1.0000      -4.129282      -112.3635 
   6   1.0000      -4.129276      -112.3633 
   7   1.0000      -4.124981      -112.2464 
   8   1.0000      -4.120182      -112.1159 
   9   1.0000      -4.120139      -112.1147 
  10   1.0000      -4.117188      -112.0344 
  11   1.0000      -4.115616      -111.9916 
  12   1.0000      -4.115580      -111.9906 
  13   1.0000      -4.114341      -111.9569 
  14   1.0000      -4.114010      -111.9479 
  15   1.0000      -4.113976      -111.9470 
  16   1.0000      -4.110428      -111.8504 
  17   1.0000      -4.107977      -111.7837 
  18   1.0000      -4.105888      -111.7269 
  19   1.0000      -3.551155       -96.6318 
  20   1.0000      -2.330543       -63.4173 
  21   1.0000      -2.318229       -63.0822 
  22   1.0000      -2.318216       -63.0819 
  23   1.0000      -2.316060       -63.0232 
  24   1.0000      -2.316042       -63.0227 
  25   1.0000      -2.315943       -63.0200 
  26   1.0000      -2.311809       -62.9075 
  27   1.0000      -2.311612       -62.9022 
  28   1.0000      -2.311111       -62.8885 
  29   1.0000      -2.310536       -62.8729 
  30   1.0000      -2.308709       -62.8232 
  31   1.0000      -2.308695       -62.8228 
  32   1.0000      -2.308230       -62.8101 
  33   1.0000      -2.306706       -62.7687 
  34   1.0000      -2.306082       -62.7517 
  35   1.0000      -2.305580       -62.7380 
  36   1.0000      -2.305317       -62.7309 
  37   1.0000      -2.304860       -62.7184 
  38   1.0000      -2.304123       -62.6984 
  39   1.0000      -2.304068       -62.6969 
  40   1.0000      -2.303067       -62.6696 
  41   1.0000      -2.303058       -62.6694 
  42   1.0000      -2.302920       -62.6656 
  43   1.0000      -2.302032       -62.6415 
  44   1.0000      -2.301952       -62.6393 
  45   1.0000      -2.301130       -62.6169 
  46   1.0000      -2.300896       -62.6106 
  47   1.0000      -2.299752       -62.5794 
  48   1.0000      -2.299254       -62.5659 
  49   1.0000      -2.299224       -62.5651 
  50   1.0000      -2.298972       -62.5582 
  51   1.0000      -2.298003       -62.5318 
  52   1.0000      -2.297573       -62.5201 
  53   1.0000      -2.297366       -62.5145 
  54   1.0000      -2.297272       -62.5119 
  55   1.0000      -2.296250       -62.4841 
  56   1.0000      -2.296240       -62.4839 
  57   1.0000      -2.296103       -62.4801 
  58   1.0000      -2.294249       -62.4297 
  59   1.0000      -2.293785       -62.4171 
  60   1.0000      -2.292489       -62.3818 
  61   1.0000      -2.291855       -62.3645 
  62   1.0000      -2.291605       -62.3577 
  63   1.0000      -2.291354       -62.3509 
  64   1.0000      -2.290027       -62.3148 
  65   1.0000      -0.442745       -12.0477 
  66   1.0000      -0.404994       -11.0205 
  67   1.0000      -0.397307       -10.8113 
  68   1.0000      -0.396085       -10.7780 
  69   1.0000      -0.390562       -10.6277 
  70   1.0000      -0.390082       -10.6147 
  71   1.0000      -0.387778       -10.5520 
  72   1.0000      -0.385418       -10.4878 
  73   1.0000      -0.378600       -10.3022 
  74   1.0000      -0.377088       -10.2611 
  75   1.0000      -0.372616       -10.1394 
  76   1.0000      -0.368460       -10.0263 
  77   1.0000      -0.361605        -9.8398 
  78   1.0000      -0.360979        -9.8227 
  79   1.0000      -0.360635        -9.8134 
  80   1.0000      -0.357358        -9.7242 
  81   1.0000      -0.355896        -9.6844 
  82   1.0000      -0.353378        -9.6159 
  83   1.0000      -0.350846        -9.5470 
  84   1.0000      -0.346819        -9.4374 
  85   1.0000      -0.345266        -9.3952 
  86   1.0000      -0.339355        -9.2343 
  87   1.0000      -0.338962        -9.2236 
  88   1.0000      -0.335473        -9.1287 
  89   1.0000      -0.334282        -9.0963 
  90   1.0000      -0.333397        -9.0722 
  91   1.0000      -0.331583        -9.0228 
  92   1.0000      -0.329199        -8.9580 
  93   1.0000      -0.327493        -8.9115 
  94   1.0000      -0.327128        -8.9016 
  95   1.0000      -0.323714        -8.8087 
  96   1.0000      -0.323141        -8.7931 
  97   1.0000      -0.320516        -8.7217 
  98   1.0000      -0.319212        -8.6862 
  99   1.0000      -0.318820        -8.6755 
 100   1.0000      -0.316502        -8.6124 
 101   1.0000      -0.316137        -8.6025 
 102   1.0000      -0.308800        -8.4029 
 103   1.0000      -0.306452        -8.3390 
 104   1.0000      -0.301667        -8.2088 
 105   1.0000      -0.301021        -8.1912 
 106   1.0000      -0.299870        -8.1599 
 107   1.0000      -0.298852        -8.1322 
 108   1.0000      -0.292114        -7.9488 
 109   1.0000      -0.291926        -7.9437 
 110   1.0000      -0.289842        -7.8870 
 111   1.0000      -0.286669        -7.8007 
 112   1.0000      -0.285002        -7.7553 
 113   1.0000      -0.284981        -7.7547 
 114   1.0000      -0.281798        -7.6681 
 115   1.0000      -0.279846        -7.6150 
 116   1.0000      -0.279308        -7.6003 
 117   1.0000      -0.278085        -7.5671 
 118   1.0000      -0.277234        -7.5439 
 119   1.0000      -0.276300        -7.5185 
 120   1.0000      -0.275501        -7.4968 
 121   1.0000      -0.275043        -7.4843 
 122   1.0000      -0.273611        -7.4453 
 123   1.0000      -0.270217        -7.3530 
 124   1.0000      -0.269252        -7.3267 
 125   1.0000      -0.269073        -7.3218 
 126   1.0000      -0.268260        -7.2997 
 127   1.0000      -0.265021        -7.2116 
 128   1.0000      -0.264300        -7.1920 
 129   1.0000      -0.263787        -7.1780 
 130   1.0000      -0.263522        -7.1708 
 131   1.0000      -0.262143        -7.1333 
 132   1.0000      -0.260119        -7.0782 
 133   1.0000      -0.259139        -7.0515 
 134   1.0000      -0.258743        -7.0407 
 135   1.0000      -0.257913        -7.0182 
 136   1.0000      -0.257110        -6.9963 
 137   1.0000      -0.255966        -6.9652 
 138   1.0000      -0.249964        -6.8019 
 139   1.0000      -0.248251        -6.7553 
 140   1.0000      -0.248241        -6.7550 
 141   1.0000      -0.247263        -6.7284 
 142   1.0000      -0.242997        -6.6123 
 143   1.0000      -0.239844        -6.5265 
 144   1.0000      -0.226263        -6.1569 
 145   1.0000      -0.211317        -5.7502 
 146   1.0000      -0.200209        -5.4480 
 147   1.0000      -0.187141        -5.0924 
 148   0.0000      -0.177663        -4.8345 
 149   0.0000      -0.143169        -3.8958 
 150   0.0000      -0.131313        -3.5732 
 151   0.0000      -0.120577        -3.2811 
 152   0.0000      -0.117912        -3.2086 
 153   0.0000      -0.117070        -3.1856 
 154   0.0000      -0.098047        -2.6680 
 155   0.0000      -0.069706        -1.8968 
 156   0.0000      -0.058425        -1.5898 
 157   0.0000      -0.051405        -1.3988 
 158   0.0000      -0.050991        -1.3875 
 159   0.0000      -0.050847        -1.3836 
 160   0.0000      -0.047843        -1.3019 
 161   0.0000      -0.024951        -0.6790 
 162   0.0000      -0.018491        -0.5032 
 163   0.0000      -0.016953        -0.4613 
 164   0.0000      -0.009481        -0.2580 
 165   0.0000       0.003801         0.1034 
 166   0.0000       0.019382         0.5274 
 167   0.0000       0.023670         0.6441 
 168   0.0000       0.038258         1.0410 
 169   0.0000       0.044305         1.2056 
 170   0.0000       0.049866         1.3569 
 171   0.0000       0.050977         1.3872 
 172   0.0000       0.054670         1.4876 
 173   0.0000       0.057473         1.5639 
 174   0.0000       0.062060         1.6887 
 175   0.0000       0.063508         1.7281 
 176   0.0000       0.067130         1.8267 
 177   0.0000       0.073504         2.0001 
 178   0.0000       0.073568         2.0019 
 179   0.0000       0.082235         2.2377 
 180   0.0000       0.088039         2.3957 
 181   0.0000       0.093659         2.5486 
 182   0.0000       0.096638         2.6297 
 183   0.0000       0.097252         2.6464 
 184   0.0000       0.099105         2.6968 
 185   0.0000       0.100019         2.7217 
 186   0.0000       0.112098         3.0503 
 187   0.0000       0.112298         3.0558 
 188   0.0000       0.124521         3.3884 
 189   0.0000       0.135589         3.6896 
 190   0.0000       0.139916         3.8073 
 191   0.0000       0.142033         3.8649 
 192   0.0000       0.143820         3.9136 
 193   0.0000       0.152529         4.1505 
 194   0.0000       0.152623         4.1531 
 195   0.0000       0.155499         4.2313 
 196   0.0000       0.165433         4.5017 
 197   0.0000       0.167853         4.5675 
 198   0.0000       0.180810         4.9201 
 199   0.0000       0.181927         4.9505 
 200   0.0000       0.187399         5.0994 
 201   0.0000       0.188055         5.1172 
 202   0.0000       0.190831         5.1928 
 203   0.0000       0.191841         5.2203 
 204   0.0000       0.192032         5.2254 
 205   0.0000       0.204215         5.5570 
 206   0.0000       0.205380         5.5887 
 207   0.0000       0.216353         5.8873 
 208   0.0000       0.229361         6.2412 
 209   0.0000       0.232975         6.3396 
 210   0.0000       0.233253         6.3471 
 211   0.0000       0.237487         6.4624 
 212   0.0000       0.241296         6.5660 
 213   0.0000       0.245991         6.6938 
 214   0.0000       0.247904         6.7458 
 215   0.0000       0.258378         7.0308 
 216   0.0000       0.261196         7.1075 
 217   0.0000       0.263613         7.1733 
 218   0.0000       0.269186         7.3249 
 219   0.0000       0.276531         7.5248 
 220   0.0000       0.281932         7.6718 
 221   0.0000       0.288138         7.8406 
 222   0.0000       0.289039         7.8652 
 223   0.0000       0.291290         7.9264 
 224   0.0000       0.294712         8.0195 
 225   0.0000       0.303518         8.2592 
 226   0.0000       0.303945         8.2708 
 227   0.0000       0.315497         8.5851 
 228   0.0000       0.316705         8.6180 
 229   0.0000       0.320065         8.7094 
 230   0.0000       0.326592         8.8870 
 231   0.0000       0.332600         9.0505 
 232   0.0000       0.337775         9.1913 
 233   0.0000       0.341853         9.3023 
 234   0.0000       0.341954         9.3050 
 235   0.0000       0.347951         9.4682 
 236   0.0000       0.351383         9.5616 
 237   0.0000       0.357139         9.7182 
 238   0.0000       0.362633         9.8677 
 239   0.0000       0.367605        10.0030 
 240   0.0000       0.372699        10.1417 
 241   0.0000       0.378334        10.2950 
 242   0.0000       0.379376        10.3233 
 243   0.0000       0.385208        10.4820 
 244   0.0000       0.392103        10.6697 
 245   0.0000       0.397617        10.8197 
 246   0.0000       0.403356        10.9759 
 247   0.0000       0.403493        10.9796 
 248   0.0000       0.406334        11.0569 
 249   0.0000       0.406491        11.0612 
 250   0.0000       0.419179        11.4065 
 251   0.0000       0.420313        11.4373 
 252   0.0000       0.425280        11.5725 
 253   0.0000       0.434065        11.8115 
 254   0.0000       0.434769        11.8307 
 255   0.0000       0.439432        11.9575 
 256   0.0000       0.441218        12.0062 
 257   0.0000       0.450822        12.2675 
 258   0.0000       0.459663        12.5081 
 259   0.0000       0.463151        12.6030 
 260   0.0000       0.467026        12.7084 
 261   0.0000       0.468262        12.7420 
 262   0.0000       0.478242        13.0136 
 263   0.0000       0.483829        13.1657 
 264   0.0000       0.485877        13.2214 
 265   0.0000       0.491779        13.3820 
 266   0.0000       0.495888        13.4938 
 267   0.0000       0.500646        13.6233 
 268   0.0000       0.510735        13.8978 
 269   0.0000       0.514414        13.9979 
 270   0.0000       0.515675        14.0322 
 271   0.0000       0.520289        14.1578 
 272   0.0000       0.522650        14.2220 
 273   0.0000       0.526976        14.3397 
 274   0.0000       0.530737        14.4421 
 275   0.0000       0.537750        14.6329 
 276   0.0000       0.540063        14.6959 
 277   0.0000       0.541224        14.7274 
 278   0.0000       0.546242        14.8640 
 279   0.0000       0.553406        15.0589 
 280   0.0000       0.557523        15.1710 
 281   0.0000       0.558844        15.2069 
 282   0.0000       0.561412        15.2768 
 283   0.0000       0.566063        15.4033 
 284   0.0000       0.569484        15.4964 
 285   0.0000       0.573823        15.6145 
 286   0.0000       0.579474        15.7683 
 287   0.0000       0.579989        15.7823 
 288   0.0000       0.588615        16.0170 
 289   0.0000       0.590593        16.0709 
 290   0.0000       0.667478        18.1630 
 291   0.0000       0.685438        18.6517 
 292   0.0000       0.692220        18.8363 
 293   0.0000       0.696030        18.9399 
 294   0.0000       0.718171        19.5424 
 295   0.0000       0.726256        19.7624 
 296   0.0000       0.727852        19.8059 
 297   0.0000       0.756038        20.5728 
 298   0.0000       0.761815        20.7301 
 299   0.0000       0.763736        20.7823 
 300   0.0000       0.765999        20.8439 
 301   0.0000       0.781062        21.2538 
 302   0.0000       0.788867        21.4662 
 303   0.0000       0.798489        21.7280 
 304   0.0000       0.805676        21.9235 
 305   0.0000       0.806683        21.9510 
 306   0.0000       0.822258        22.3748 
 307   0.0000       0.826544        22.4914 
 308   0.0000       0.830582        22.6013 
 309   0.0000       0.841378        22.8951 
 310   0.0000       0.861793        23.4506 
 311   0.0000       0.872773        23.7494 
 312   0.0000       0.876769        23.8581 
 313   0.0000       0.882493        24.0139 
 314   0.0000       0.883539        24.0423 
 315   0.0000       0.892085        24.2749 
 316   0.0000       0.899081        24.4652 
 317   0.0000       0.904612        24.6158 
 318   0.0000       0.922140        25.0927 
 319   0.0000       0.925028        25.1713 
 320   0.0000       0.934360        25.4252 
 321   0.0000       0.937981        25.5238 
 322   0.0000       0.955066        25.9887 
 323   0.0000       0.955652        26.0046 
 324   0.0000       0.957368        26.0513 
 325   0.0000       0.988378        26.8951 
 326   0.0000       1.001470        27.2514 
 327   0.0000       1.005714        27.3669 
 328   0.0000       1.025580        27.9075 
 329   0.0000       1.030147        28.0317 
 330   0.0000       1.054176        28.6856 
 331   0.0000       1.093068        29.7439 
 332   0.0000       1.109498        30.1910 
 333   0.0000       1.175856        31.9967 
 334   0.0000       1.201437        32.6928 
 335   0.0000       1.240123        33.7455 
 336   0.0000       1.247305        33.9409 
 337   0.0000       1.284041        34.9405 
 338   0.0000       1.286190        34.9990 
 339   0.0000       1.295893        35.2630 
 340   0.0000       1.299398        35.3584 
 341   0.0000       1.321601        35.9626 
 342   0.0000       1.323439        36.0126 
 343   0.0000       1.332933        36.2710 
 344   0.0000       1.342640        36.5351 
 345   0.0000       1.352069        36.7917 
 346   0.0000       1.360821        37.0298 
 347   0.0000       1.365409        37.1547 
 348   0.0000       1.370145        37.2835 
 349   0.0000       1.377307        37.4784 
 350   0.0000       1.390539        37.8385 
 351   0.0000       1.397296        38.0223 
 352   0.0000       1.399325        38.0776 
 353   0.0000       1.411966        38.4216 
 354   0.0000       1.418833        38.6084 
 355   0.0000       1.431981        38.9662 
 356   0.0000       1.438572        39.1455 
 357   0.0000       1.439626        39.1742 
 358   0.0000       1.444057        39.2948 
 359   0.0000       1.453914        39.5630 
 360   0.0000       1.457568        39.6624 
 361   0.0000       1.459977        39.7280 
 362   0.0000       1.461528        39.7702 
 363   0.0000       1.466701        39.9110 
 364   0.0000       1.473941        40.1080 
 365   0.0000       1.474463        40.1222 
 366   0.0000       1.478354        40.2281 
 367   0.0000       1.480976        40.2994 
 368   0.0000       1.482185        40.3323 
 369   0.0000       1.482452        40.3396 
 370   0.0000       1.492774        40.6205 
 371   0.0000       1.500009        40.8173 
 372   0.0000       1.500703        40.8362 
 373   0.0000       1.509454        41.0743 
 374   0.0000       1.512635        41.1609 
 375   0.0000       1.512787        41.1650 
 376   0.0000       1.515501        41.2389 
 377   0.0000       1.517921        41.3047 
 378   0.0000       1.524297        41.4782 
 379   0.0000       1.527762        41.5725 
 380   0.0000       1.530781        41.6547 
 381   0.0000       1.532292        41.6958 
 382   0.0000       1.533433        41.7268 
 383   0.0000       1.535161        41.7738 
 384   0.0000       1.537046        41.8252 
 385   0.0000       1.541352        41.9423 
 386   0.0000       1.543737        42.0072 
 387   0.0000       1.543955        42.0131 
 388   0.0000       1.544323        42.0232 
 389   0.0000       1.546719        42.0884 
 390   0.0000       1.550161        42.1820 
 391   0.0000       1.551815        42.2270 
 392   0.0000       1.552792        42.2536 
 393   0.0000       1.555642        42.3312 
 394   0.0000       1.555978        42.3403 
 395   0.0000       1.556556        42.3560 
 396   0.0000       1.557384        42.3786 
 397   0.0000       1.559347        42.4320 
 398   0.0000       1.563565        42.5468 
 399   0.0000       1.564628        42.5757 
 400   0.0000       1.564972        42.5850 
 401   0.0000       1.566164        42.6175 
 402   0.0000       1.567523        42.6545 
 403   0.0000       1.570536        42.7365 
 404   0.0000       1.571498        42.7626 
 405   0.0000       1.571833        42.7717 
 406   0.0000       1.574119        42.8340 
 407   0.0000       1.575319        42.8666 
 408   0.0000       1.576480        42.8982 
 409   0.0000       1.576831        42.9077 
 410   0.0000       1.578226        42.9457 
 411   0.0000       1.579366        42.9767 
 412   0.0000       1.579958        42.9928 
 413   0.0000       1.582075        43.0504 
 414   0.0000       1.582466        43.0611 
 415   0.0000       1.583829        43.0982 
 416   0.0000       1.585340        43.1393 
 417   0.0000       1.585614        43.1468 
 418   0.0000       1.587180        43.1894 
 419   0.0000       1.589322        43.2477 
 420   0.0000       1.592678        43.3390 
 421   0.0000       1.595376        43.4124 
 422   0.0000       1.596460        43.4419 
 423   0.0000       1.597531        43.4710 
 424   0.0000       1.599051        43.5124 
 425   0.0000       1.599121        43.5143 
 426   0.0000       1.608665        43.7740 
 427   0.0000       1.609076        43.7852 
 428   0.0000       1.609467        43.7958 
 429   0.0000       1.612022        43.8654 
 430   0.0000       1.618837        44.0508 
 431   0.0000       1.619544        44.0700 
 432   0.0000       1.622620        44.1537 
 433   0.0000       1.624324        44.2001 
 434   0.0000       1.626768        44.2666 
 435   0.0000       1.629431        44.3391 
 436   0.0000       1.632431        44.4207 
 437   0.0000       1.633562        44.4515 
 438   0.0000       1.634987        44.4902 
 439   0.0000       1.639387        44.6100 
 440   0.0000       1.639890        44.6237 
 441   0.0000       1.644693        44.7544 
 442   0.0000       1.646246        44.7966 
 443   0.0000       1.650459        44.9113 
 444   0.0000       1.652210        44.9589 
 445   0.0000       1.654032        45.0085 
 446   0.0000       1.659086        45.1460 
 447   0.0000       1.660340        45.1801 
 448   0.0000       1.661533        45.2126 
 449   0.0000       1.665906        45.3316 
 450   0.0000       1.666639        45.3516 
 451   0.0000       1.671983        45.4970 
 452   0.0000       1.672441        45.5094 
 453   0.0000       1.679600        45.7042 
 454   0.0000       1.680203        45.7207 
 455   0.0000       1.685672        45.8695 
 456   0.0000       1.687210        45.9113 
 457   0.0000       1.687301        45.9138 
 458   0.0000       1.693730        46.0887 
 459   0.0000       1.695380        46.1336 
 460   0.0000       1.698320        46.2136 
 461   0.0000       1.699948        46.2579 
 462   0.0000       1.708611        46.4937 
 463   0.0000       1.710130        46.5350 
 464   0.0000       1.720468        46.8163 
 465   0.0000       1.721983        46.8575 
 466   0.0000       1.727688        47.0128 
 467   0.0000       1.729224        47.0546 
 468   0.0000       1.736462        47.2515 
 469   0.0000       1.738178        47.2982 
 470   0.0000       1.746007        47.5113 
 471   0.0000       1.754604        47.7452 
 472   0.0000       1.755451        47.7683 
 473   0.0000       1.773421        48.2572 
 474   0.0000       1.779283        48.4168 
 475   0.0000       1.786606        48.6160 
 476   0.0000       1.798505        48.9398 
 477   0.0000       1.807658        49.1889 
 478   0.0000       1.809769        49.2463 
 479   0.0000       1.819747        49.5178 
 480   0.0000       1.823412        49.6176 
 481   0.0000       1.833396        49.8892 
 482   0.0000       1.841783        50.1175 
 483   0.0000       1.844337        50.1870 
 484   0.0000       1.847249        50.2662 
 485   0.0000       1.858682        50.5773 
 486   0.0000       1.860681        50.6317 
 487   0.0000       1.864991        50.7490 
 488   0.0000       1.872466        50.9524 
 489   0.0000       1.884722        51.2859 
 490   0.0000       1.892232        51.4902 
 491   0.0000       1.898310        51.6556 
 492   0.0000       1.907821        51.9144 
 493   0.0000       1.916225        52.1431 
 494   0.0000       1.928217        52.4695 
 495   0.0000       1.937788        52.7299 
 496   0.0000       1.956609        53.2420 
 497   0.0000       1.963973        53.4424 
 498   0.0000       1.981535        53.9203 
 499   0.0000       1.993771        54.2533 
 500   0.0000       1.994546        54.2744 
 501   0.0000       2.066684        56.2373 
 502   0.0000       2.082631        56.6713 
 503   0.0000       2.092129        56.9297 
 504   0.0000       2.117433        57.6183 
 505   0.0000       2.267551        61.7032 
 506   0.0000       2.347223        63.8712 
 507   0.0000       2.393949        65.1427 
 508   0.0000       2.395598        65.1875 
 509   0.0000       2.437151        66.3183 
 510   0.0000       2.439283        66.3763 
 511   0.0000       2.493532        67.8524 
 512   0.0000       2.534318        68.9623 
 513   0.0000       2.542889        69.1955 
 514   0.0000       2.572467        70.0004 
 515   0.0000       2.587115        70.3990 
 516   0.0000       2.609745        71.0148 
 517   0.0000       2.627295        71.4923 
 518   0.0000       2.643173        71.9244 
 519   0.0000       2.644961        71.9730 
 520   0.0000       2.657099        72.3033 
 521   0.0000       2.679679        72.9178 
 522   0.0000       3.433788        93.4381 
 523   0.0000       3.658734        99.5592 
 524   0.0000       3.678829       100.1060 
 525   0.0000       3.778310       102.8130 
 526   0.0000       3.784294       102.9759 
 527   0.0000       3.846842       104.6779 
 528   0.0000       3.962908       107.8362 
 529   0.0000       3.965467       107.9059 
 530   0.0000       3.968011       107.9751 
 531   0.0000       3.980375       108.3115 
 532   0.0000       3.982294       108.3637 
 533   0.0000       3.986278       108.4721 
 534   0.0000       3.995918       108.7344 
 535   0.0000      24.058263       654.6586 
 536   0.0000      24.222391       659.1248 
 537   0.0000      24.341195       662.3576 
 538   0.0000      24.710055       672.3948 
 539   0.0000      24.865441       676.6230 
 540   0.0000      24.910291       677.8435 
 541   0.0000      25.088471       682.6920 
 542   0.0000      25.139053       684.0684 
 543   0.0000      25.289641       688.1661 
 544   0.0000      25.503391       693.9825 
 545   0.0000      25.544990       695.1145 
 546   0.0000      25.583369       696.1589 
 547   0.0000      25.871099       703.9884 
 548   0.0000      25.910451       705.0592 
 549   0.0000      26.168554       712.0825 
 550   0.0000      26.246597       714.2062 
 551   0.0000      26.276586       715.0223 
 552   0.0000      26.374763       717.6938 
 553   0.0000      26.438641       719.4320 
 554   0.0000      26.518070       721.5934 
 555   0.0000      26.541785       722.2387 
 556   0.0000      26.686908       726.1877 
 557   0.0000      26.742268       727.6941 
 558   0.0000      26.882534       731.5109 
 559   0.0000      26.928854       732.7714 
 560   0.0000      27.094002       737.2653 
 561   0.0000      27.137547       738.4502 
 562   0.0000      27.171423       739.3720 
 563   0.0000      27.377845       744.9890 
 564   0.0000      27.409985       745.8636 
 565   0.0000      27.426730       746.3193 
 566   0.0000      27.452001       747.0069 
 567   0.0000      27.575339       750.3631 
 568   0.0000      27.882810       758.7298 
 569   0.0000      27.890909       758.9502 
 570   0.0000      28.143085       765.8123 
 571   0.0000      28.146860       765.9150 
 572   0.0000      28.345988       771.3336 
 573   0.0000      28.733164       781.8691 
 574   0.0000      29.964008       815.3621 
 575   0.0000      30.262344       823.4802 
 576   0.0000      32.127505       874.2339 
 577   0.0000      44.405762      1208.3422 
 578   0.0000      44.492742      1210.7091 
 579   0.0000      44.530120      1211.7262 
 580   0.0000      44.533442      1211.8166 
 581   0.0000      44.539704      1211.9870 
 582   0.0000      44.586225      1213.2529 
 583   0.0000      44.626327      1214.3441 
 584   0.0000      44.651241      1215.0220 
 585   0.0000      44.683029      1215.8870 
 586   0.0000      44.690029      1216.0775 
 587   0.0000      44.691796      1216.1256 
 588   0.0000      44.710011      1216.6213 
 589   0.0000      44.736160      1217.3328 
 590   0.0000      44.748542      1217.6697 
 591   0.0000     205.254629      5585.2624 
 592   0.0000     205.297329      5586.4243 
 593   0.0000     205.310451      5586.7814 
 594   0.0000     205.312831      5586.8462 
 595   0.0000     205.314290      5586.8859 
 596   0.0000     205.337664      5587.5219 
 597   0.0000     205.350642      5587.8750 
 598   0.0000     205.360078      5588.1318 
 599   0.0000     205.373575      5588.4991 
 600   0.0000     205.374544      5588.5255 
 601   0.0000     205.379418      5588.6581 
 602   0.0000     205.385762      5588.8307 
 603   0.0000     205.394152      5589.0590 
 604   0.0000     205.398901      5589.1882 

                 SPIN DOWN ORBITALS
  NO   OCC          E(Eh)            E(eV) 
   0   1.0000    -255.664181     -6956.9761 
   1   1.0000     -29.885883      -813.2362 
   2   1.0000     -25.738296      -700.3746 
   3   1.0000     -25.733970      -700.2569 
   4   1.0000     -25.733944      -700.2562 
   5   1.0000      -4.128575      -112.3442 
   6   1.0000      -4.128570      -112.3441 
   7   1.0000      -4.124555      -112.2349 
   8   1.0000      -4.119426      -112.0953 
   9   1.0000      -4.119395      -112.0944 
  10   1.0000      -4.116262      -112.0092 
  11   1.0000      -4.115470      -111.9876 
  12   1.0000      -4.115432      -111.9866 
  13   1.0000      -4.113321      -111.9292 
  14   1.0000      -4.113262      -111.9275 
  15   1.0000      -4.113148      -111.9245 
  16   1.0000      -4.110103      -111.8416 
  17   1.0000      -4.106890      -111.7542 
  18   1.0000      -4.106117      -111.7331 
  19   1.0000      -3.371123       -91.7329 
  20   1.0000      -2.316723       -63.0412 
  21   1.0000      -2.316687       -63.0403 
  22   1.0000      -2.315371       -63.0044 
  23   1.0000      -2.314789       -62.9886 
  24   1.0000      -2.314731       -62.9870 
  25   1.0000      -2.311298       -62.8936 
  26   1.0000      -2.311075       -62.8876 
  27   1.0000      -2.309017       -62.8315 
  28   1.0000      -2.308391       -62.8145 
  29   1.0000      -2.307627       -62.7937 
  30   1.0000      -2.307274       -62.7841 
  31   1.0000      -2.305568       -62.7377 
  32   1.0000      -2.305086       -62.7246 
  33   1.0000      -2.304708       -62.7143 
  34   1.0000      -2.304465       -62.7077 
  35   1.0000      -2.303986       -62.6946 
  36   1.0000      -2.302792       -62.6621 
  37   1.0000      -2.302712       -62.6600 
  38   1.0000      -2.302506       -62.6544 
  39   1.0000      -2.301908       -62.6381 
  40   1.0000      -2.301143       -62.6173 
  41   1.0000      -2.301015       -62.6138 
  42   1.0000      -2.300803       -62.6080 
  43   1.0000      -2.300512       -62.6001 
  44   1.0000      -2.299461       -62.5715 
  45   1.0000      -2.298721       -62.5514 
  46   1.0000      -2.298464       -62.5444 
  47   1.0000      -2.298364       -62.5417 
  48   1.0000      -2.297740       -62.5247 
  49   1.0000      -2.297251       -62.5114 
  50   1.0000      -2.297034       -62.5055 
  51   1.0000      -2.297006       -62.5047 
  52   1.0000      -2.295846       -62.4731 
  53   1.0000      -2.295255       -62.4571 
  54   1.0000      -2.294365       -62.4329 
  55   1.0000      -2.293990       -62.4226 
  56   1.0000      -2.293385       -62.4062 
  57   1.0000      -2.293073       -62.3977 
  58   1.0000      -2.292095       -62.3711 
  59   1.0000      -2.290808       -62.3360 
  60   1.0000      -2.290613       -62.3308 
  61   1.0000      -2.289926       -62.3121 
  62   1.0000      -2.138659       -58.1959 
  63   1.0000      -2.136082       -58.1257 
  64   1.0000      -2.135866       -58.1199 
  65   1.0000      -0.438800       -11.9404 
  66   1.0000      -0.401319       -10.9205 
  67   1.0000      -0.391688       -10.6584 
  68   1.0000      -0.389644       -10.6027 
  69   1.0000      -0.380578       -10.3560 
  70   1.0000      -0.374200       -10.1825 
  71   1.0000      -0.372374       -10.1328 
  72   1.0000      -0.372301       -10.1308 
  73   1.0000      -0.368186       -10.0188 
  74   1.0000      -0.364815        -9.9271 
  75   1.0000      -0.361481        -9.8364 
  76   1.0000      -0.361263        -9.8305 
  77   1.0000      -0.360819        -9.8184 
  78   1.0000      -0.357706        -9.7337 
  79   1.0000      -0.356215        -9.6931 
  80   1.0000      -0.354599        -9.6491 
  81   1.0000      -0.353067        -9.6074 
  82   1.0000      -0.350969        -9.5504 
  83   1.0000      -0.348355        -9.4792 
  84   1.0000      -0.343474        -9.3464 
  85   1.0000      -0.337971        -9.1967 
  86   1.0000      -0.337816        -9.1925 
  87   1.0000      -0.337089        -9.1727 
  88   1.0000      -0.334482        -9.1017 
  89   1.0000      -0.331387        -9.0175 
  90   1.0000      -0.331097        -9.0096 
  91   1.0000      -0.327889        -8.9223 
  92   1.0000      -0.324634        -8.8337 
  93   1.0000      -0.323748        -8.8096 
  94   1.0000      -0.320428        -8.7193 
  95   1.0000      -0.319993        -8.7074 
  96   1.0000      -0.317841        -8.6489 
  97   1.0000      -0.312697        -8.5089 
  98   1.0000      -0.308796        -8.4028 
  99   1.0000      -0.307336        -8.3630 
 100   1.0000      -0.305216        -8.3053 
 101   1.0000      -0.303260        -8.2521 
 102   1.0000      -0.301602        -8.2070 
 103   1.0000      -0.299544        -8.1510 
 104   1.0000      -0.297332        -8.0908 
 105   1.0000      -0.296562        -8.0699 
 106   1.0000      -0.294906        -8.0248 
 107   1.0000      -0.291499        -7.9321 
 108   1.0000      -0.289850        -7.8872 
 109   1.0000      -0.288244        -7.8435 
 110   1.0000      -0.285554        -7.7703 
 111   1.0000      -0.284854        -7.7513 
 112   1.0000      -0.283158        -7.7051 
 113   1.0000      -0.280209        -7.6249 
 114   1.0000      -0.278289        -7.5726 
 115   1.0000      -0.277107        -7.5405 
 116   1.0000      -0.276956        -7.5364 
 117   1.0000      -0.276089        -7.5128 
 118   1.0000      -0.274988        -7.4828 
 119   1.0000      -0.269595        -7.3360 
 120   1.0000      -0.269373        -7.3300 
 121   1.0000      -0.268794        -7.3142 
 122   1.0000      -0.266918        -7.2632 
 123   1.0000      -0.265473        -7.2239 
 124   1.0000      -0.263171        -7.1613 
 125   1.0000      -0.262564        -7.1447 
 126   1.0000      -0.261907        -7.1269 
 127   1.0000      -0.260359        -7.0847 
 128   1.0000      -0.258815        -7.0427 
 129   1.0000      -0.258567        -7.0360 
 130   1.0000      -0.257474        -7.0062 
 131   1.0000      -0.256441        -6.9781 
 132   1.0000      -0.255710        -6.9582 
 133   1.0000      -0.249227        -6.7818 
 134   1.0000      -0.247718        -6.7407 
 135   1.0000      -0.247431        -6.7329 
 136   1.0000      -0.246683        -6.7126 
 137   1.0000      -0.243182        -6.6173 
 138   1.0000      -0.239789        -6.5250 
 139   1.0000      -0.226482        -6.1629 
 140   1.0000      -0.215678        -5.8689 
 141   1.0000      -0.208231        -5.6663 
 142   1.0000      -0.200593        -5.4584 
 143   1.0000      -0.198080        -5.3900 
 144   0.0000      -0.172047        -4.6816 
 145   0.0000      -0.168819        -4.5938 
 146   0.0000      -0.166337        -4.5263 
 147   0.0000      -0.153912        -4.1882 
 148   0.0000      -0.148656        -4.0451 
 149   0.0000      -0.132867        -3.6155 
 150   0.0000      -0.122719        -3.3394 
 151   0.0000      -0.116727        -3.1763 
 152   0.0000      -0.114502        -3.1158 
 153   0.0000      -0.108881        -2.9628 
 154   0.0000      -0.096198        -2.6177 
 155   0.0000      -0.067951        -1.8490 
 156   0.0000      -0.053743        -1.4624 
 157   0.0000      -0.051632        -1.4050 
 158   0.0000      -0.047758        -1.2996 
 159   0.0000      -0.046618        -1.2685 
 160   0.0000      -0.044534        -1.2118 
 161   0.0000      -0.022637        -0.6160 
 162   0.0000      -0.016878        -0.4593 
 163   0.0000      -0.012392        -0.3372 
 164   0.0000      -0.005389        -0.1466 
 165   0.0000       0.008652         0.2354 
 166   0.0000       0.020653         0.5620 
 167   0.0000       0.028353         0.7715 
 168   0.0000       0.042151         1.1470 
 169   0.0000       0.045080         1.2267 
 170   0.0000       0.052417         1.4263 
 171   0.0000       0.053424         1.4537 
 172   0.0000       0.057668         1.5692 
 173   0.0000       0.059351         1.6150 
 174   0.0000       0.063972         1.7408 
 175   0.0000       0.064070         1.7434 
 176   0.0000       0.068644         1.8679 
 177   0.0000       0.075123         2.0442 
 178   0.0000       0.075502         2.0545 
 179   0.0000       0.083153         2.2627 
 180   0.0000       0.089113         2.4249 
 181   0.0000       0.095394         2.5958 
 182   0.0000       0.097764         2.6603 
 183   0.0000       0.098718         2.6862 
 184   0.0000       0.099643         2.7114 
 185   0.0000       0.101236         2.7548 
 186   0.0000       0.113132         3.0785 
 187   0.0000       0.115224         3.1354 
 188   0.0000       0.125779         3.4226 
 189   0.0000       0.138197         3.7605 
 190   0.0000       0.142827         3.8865 
 191   0.0000       0.144495         3.9319 
 192   0.0000       0.147981         4.0268 
 193   0.0000       0.153433         4.1751 
 194   0.0000       0.153583         4.1792 
 195   0.0000       0.157311         4.2807 
 196   0.0000       0.166134         4.5207 
 197   0.0000       0.169582         4.6146 
 198   0.0000       0.183444         4.9918 
 199   0.0000       0.183575         4.9953 
 200   0.0000       0.189147         5.1469 
 201   0.0000       0.193994         5.2789 
 202   0.0000       0.194467         5.2917 
 203   0.0000       0.196602         5.3498 
 204   0.0000       0.198507         5.4017 
 205   0.0000       0.205190         5.5835 
 206   0.0000       0.211195         5.7469 
 207   0.0000       0.223794         6.0897 
 208   0.0000       0.230782         6.2799 
 209   0.0000       0.234008         6.3677 
 210   0.0000       0.234318         6.3761 
 211   0.0000       0.239832         6.5262 
 212   0.0000       0.241973         6.5844 
 213   0.0000       0.245813         6.6889 
 214   0.0000       0.250528         6.8172 
 215   0.0000       0.259174         7.0525 
 216   0.0000       0.261879         7.1261 
 217   0.0000       0.264109         7.1868 
[...]
      f0      :     0.001152  f :     0.006433
      f+1     :     0.001004
      f-1     :     0.001224
      f+2     :     0.000824
      f-2     :     0.000934
      f+3     :     0.000691
      f-3     :     0.000604
  5 Aus       :     2.545699  s :     2.545699
      pz      :     2.240450  p :     6.604903
      px      :     2.144615
      py      :     2.219838
      dz2     :     1.983766  d :     9.931761
      dxz     :     1.995154
      dyz     :     1.957490
      dx2y2   :     2.004021
      dxy     :     1.991330
      f0      :     0.000896  f :     0.006419
      f+1     :     0.000862
      f-1     :     0.001176
      f+2     :     0.000986
      f-2     :     0.000967
      f+3     :     0.000597
      f-3     :     0.000937
  6 Aus       :     2.526295  s :     2.526295
      pz      :     2.199253  p :     6.477852
      px      :     2.154006
      py      :     2.124594
      dz2     :     1.973055  d :     9.898037
      dxz     :     1.983659
      dyz     :     1.992385
      dx2y2   :     1.996355
      dxy     :     1.952583
      f0      :     0.000811  f :     0.005449
      f+1     :     0.000838
      f-1     :     0.000903
      f+2     :     0.000885
      f-2     :     0.000570
      f+3     :     0.000858
      f-3     :     0.000585
  7 Aus       :     2.616725  s :     2.616725
      pz      :     2.185433  p :     6.443347
      px      :     2.124311
      py      :     2.133603
      dz2     :     1.964141  d :     9.865151
      dxz     :     1.976484
      dyz     :     1.975319
      dx2y2   :     1.993231
      dxy     :     1.955976
      f0      :     0.000577  f :     0.005229
      f+1     :     0.000883
      f-1     :     0.000795
      f+2     :     0.000927
      f-2     :     0.000717
      f+3     :     0.000735
      f-3     :     0.000596
  8 Aus       :     2.515538  s :     2.515538
      pz      :     2.264740  p :     6.571796
      px      :     2.193284
      py      :     2.113772
      dz2     :     1.985083  d :     9.880993
      dxz     :     1.981530
      dyz     :     1.949589
      dx2y2   :     1.973211
      dxy     :     1.991580
      f0      :     0.000865  f :     0.006447
      f+1     :     0.001231
      f-1     :     0.001015
      f+2     :     0.001296
      f-2     :     0.000792
      f+3     :     0.000614
      f-3     :     0.000634
  9 Aus       :     2.679476  s :     2.679476
      pz      :     2.097992  p :     6.391008
      px      :     2.153720
      py      :     2.139297
      dz2     :     1.963656  d :     9.882049
      dxz     :     1.971903
      dyz     :     1.986992
      dx2y2   :     1.979806
      dxy     :     1.979691
      f0      :     0.000523  f :     0.004645
      f+1     :     0.000576
      f-1     :     0.000968
      f+2     :     0.000962
      f-2     :     0.000564
      f+3     :     0.000612
      f-3     :     0.000439
 10 Aus       :     2.526371  s :     2.526371
      pz      :     2.193861  p :     6.477360
      px      :     2.092136
      py      :     2.191363
      dz2     :     1.980034  d :     9.897625
      dxz     :     1.960903
      dyz     :     1.998582
      dx2y2   :     1.964386
      dxy     :     1.993720
      f0      :     0.000529  f :     0.005438
      f+1     :     0.000904
      f-1     :     0.000793
      f+2     :     0.000929
      f-2     :     0.000817
      f+3     :     0.000788
      f-3     :     0.000678
 11 Aus       :     2.615662  s :     2.615662
      pz      :     2.130520  p :     6.443627
      px      :     2.155134
      py      :     2.157973
      dz2     :     1.981357  d :     9.865084
      dxz     :     1.938480
      dyz     :     1.980971
      dx2y2   :     1.977156
      dxy     :     1.987120
      f0      :     0.000806  f :     0.005214
      f+1     :     0.000837
      f-1     :     0.000766
      f+2     :     0.000871
      f-2     :     0.000578
      f+3     :     0.000831
      f-3     :     0.000525
 12 Aus       :     2.570017  s :     2.570017
      pz      :     2.208499  p :     6.446853
      px      :     2.120708
      py      :     2.117647
      dz2     :     1.966881  d :     9.873417
      dxz     :     1.981910
      dyz     :     1.976546
      dx2y2   :     1.986728
      dxy     :     1.961352
      f0      :     0.000848  f :     0.005404
      f+1     :     0.000815
      f-1     :     0.001014
      f+2     :     0.000920
      f-2     :     0.000629
      f+3     :     0.000711
      f-3     :     0.000466
 13 Aus       :     2.571538  s :     2.571538
      pz      :     2.137078  p :     6.452911
      px      :     2.198878
      py      :     2.116956
      dz2     :     1.974985  d :     9.883761
      dxz     :     1.978923
      dyz     :     1.972557
      dx2y2   :     1.972363
      dxy     :     1.984933
      f0      :     0.000703  f :     0.005092
      f+1     :     0.000766
      f-1     :     0.000571
      f+2     :     0.000665
      f-2     :     0.000740
      f+3     :     0.000871
      f-3     :     0.000776
 14 Fes       :     6.266535  s :     6.266535
      pz      :     4.167782  p :    12.600021
      px      :     4.214458
      py      :     4.217781
      dz2     :     1.602804  d :     7.704475
      dxz     :     1.405837
      dyz     :     1.718149
      dx2y2   :     1.490246
      dxy     :     1.487440
      f0      :     0.000078  f :     0.000635
      f+1     :     0.000092
      f-1     :     0.000088
      f+2     :     0.000106
      f-2     :     0.000072
      f+3     :     0.000116
      f-3     :     0.000083

SPIN
  0 Aus       :    -0.036913  s :    -0.036913
      pz      :    -0.007678  p :    -0.041071
      px      :    -0.018903
      py      :    -0.014489
      dz2     :    -0.017842  d :    -0.035041
      dxz     :    -0.015645
      dyz     :     0.001402
      dx2y2   :     0.000044
      dxy     :    -0.003001
      f0      :    -0.000010  f :    -0.000086
      f+1     :    -0.000021
      f-1     :     0.000000
      f+2     :    -0.000006
      f-2     :    -0.000004
      f+3     :    -0.000021
      f-3     :    -0.000025
  1 Aus       :    -0.031382  s :    -0.031382
      pz      :    -0.004083  p :    -0.000108
      px      :     0.004197
      py      :    -0.000223
      dz2     :    -0.001824  d :    -0.004317
      dxz     :    -0.001751
      dyz     :    -0.001596
      dx2y2   :     0.000948
      dxy     :    -0.000095
      f0      :    -0.000010  f :    -0.000003
      f+1     :     0.000001
      f-1     :     0.000001
      f+2     :     0.000002
      f-2     :     0.000001
      f+3     :     0.000004
      f-3     :    -0.000001
  2 Aus       :     0.013646  s :     0.013646
      pz      :    -0.005089  p :    -0.040847
      px      :    -0.021381
      py      :    -0.014376
      dz2     :    -0.014863  d :    -0.038466
      dxz     :    -0.007770
      dyz     :    -0.008848
      dx2y2   :    -0.006698
      dxy     :    -0.000287
      f0      :    -0.000039  f :    -0.000121
      f+1     :    -0.000015
      f-1     :    -0.000006
      f+2     :    -0.000024
      f-2     :    -0.000020
      f+3     :    -0.000017
      f-3     :    -0.000000
  3 Aus       :     0.002283  s :     0.002283
      pz      :    -0.001631  p :    -0.013409
      px      :    -0.000163
      py      :    -0.011615
      dz2     :     0.001537  d :    -0.028303
      dxz     :    -0.004644
      dyz     :    -0.011063
      dx2y2   :    -0.007519
      dxy     :    -0.006614
      f0      :    -0.000005  f :    -0.000092
      f+1     :    -0.000005
      f-1     :    -0.000009
      f+2     :    -0.000033
      f-2     :    -0.000034
      f+3     :    -0.000001
      f-3     :    -0.000005
  4 Aus       :    -0.058633  s :    -0.058633
      pz      :     0.001219  p :    -0.046423
      px      :    -0.004443
      py      :    -0.043199
      dz2     :     0.008851  d :     0.018872
      dxz     :     0.003557
      dyz     :    -0.003585
      dx2y2   :     0.009573
      dxy     :     0.000475
      f0      :     0.000014  f :     0.000113
      f+1     :     0.000035
      f-1     :    -0.000002
      f+2     :     0.000038
      f-2     :    -0.000029
      f+3     :     0.000021
      f-3     :     0.000037
  5 Aus       :     0.003039  s :     0.003039
      pz      :    -0.003651  p :    -0.013290
      px      :    -0.005468
      py      :    -0.004170
      dz2     :    -0.009932  d :    -0.028367
      dxz     :    -0.005531
      dyz     :    -0.010267
      dx2y2   :    -0.000862
      dxy     :    -0.001776
      f0      :    -0.000013  f :    -0.000093
      f+1     :    -0.000011
      f-1     :    -0.000030
      f+2     :    -0.000006
      f-2     :    -0.000005
      f+3     :    -0.000014
      f-3     :    -0.000014
  6 Aus       :    -0.080352  s :    -0.080352
      pz      :    -0.011429  p :    -0.049743
      px      :    -0.026097
      py      :    -0.012217
      dz2     :     0.001786  d :     0.007992
      dxz     :    -0.001006
      dyz     :    -0.000722
      dx2y2   :    -0.003502
      dxy     :     0.011436
      f0      :     0.000004  f :     0.000098
      f+1     :     0.000007
      f-1     :     0.000014
      f+2     :    -0.000008
      f-2     :     0.000031
      f+3     :     0.000026
      f-3     :     0.000024
  7 Aus       :    -0.012071  s :    -0.012071
      pz      :    -0.004743  p :    -0.041940
      px      :    -0.022982
      py      :    -0.014214
      dz2     :    -0.007636  d :    -0.012030
      dxz     :    -0.004456
      dyz     :    -0.005881
      dx2y2   :    -0.005598
      dxy     :     0.011541
      f0      :    -0.000009  f :     0.000056
      f+1     :    -0.000012
      f-1     :     0.000009
      f+2     :    -0.000028
      f-2     :     0.000023
      f+3     :     0.000026
      f-3     :     0.000047
  8 Aus       :    -0.058607  s :    -0.058607
      pz      :    -0.000902  p :    -0.046688
      px      :    -0.030961
      py      :    -0.014825
      dz2     :    -0.000170  d :     0.018692
      dxz     :     0.000991
      dyz     :     0.011976
      dx2y2   :     0.004930
      dxy     :     0.000965
      f0      :     0.000023  f :     0.000111
      f+1     :    -0.000030
      f-1     :     0.000035
      f+2     :     0.000049
      f-2     :     0.000027
      f+3     :     0.000018
      f-3     :    -0.000011
  9 Aus       :     0.011195  s :     0.011195
      pz      :     0.002474  p :    -0.011872
      px      :    -0.006391
      py      :    -0.007955
      dz2     :     0.011184  d :    -0.007636
      dxz     :     0.003920
      dyz     :    -0.007675
      dx2y2   :    -0.007784
      dxy     :    -0.007280
      f0      :     0.000048  f :     0.000007
      f+1     :     0.000051
      f-1     :    -0.000047
      f+2     :    -0.000022
      f-2     :    -0.000008
      f+3     :    -0.000007
      f-3     :    -0.000008
 10 Aus       :    -0.081017  s :    -0.081017
      pz      :    -0.001029  p :    -0.049574
      px      :    -0.012255
      py      :    -0.036289
      dz2     :    -0.000111  d :     0.008616
      dxz     :     0.012517
      dyz     :    -0.003723
      dx2y2   :     0.005749
      dxy     :    -0.005816
      f0      :     0.000027  f :     0.000102
      f+1     :     0.000020
      f-1     :    -0.000020
      f+2     :     0.000072
      f-2     :    -0.000005
      f+3     :     0.000001
      f-3     :     0.000006
 11 Aus       :    -0.013332  s :    -0.013332
      pz      :     0.000950  p :    -0.041663
      px      :    -0.003920
      py      :    -0.038694
      dz2     :     0.000517  d :    -0.011243
      dxz     :     0.012617
      dyz     :    -0.024072
      dx2y2   :     0.000600
      dxy     :    -0.000904
      f0      :    -0.000023  f :     0.000062
      f+1     :     0.000099
      f-1     :    -0.000017
      f+2     :     0.000046
      f-2     :    -0.000003
      f+3     :    -0.000013
      f-3     :    -0.000027
 12 Aus       :    -0.054632  s :    -0.054632
      pz      :    -0.012014  p :    -0.062066
      px      :    -0.031079
      py      :    -0.018973
      dz2     :    -0.005523  d :     0.004166
      dxz     :    -0.002133
      dyz     :     0.002197
      dx2y2   :    -0.002573
      dxy     :     0.012198
      f0      :     0.000004  f :     0.000049
      f+1     :    -0.000042
      f-1     :    -0.000008
      f+2     :    -0.000021
      f-2     :     0.000042
      f+3     :     0.000032
      f-3     :     0.000042
 13 Aus       :    -0.080928  s :    -0.080928
      pz      :    -0.007500  p :    -0.035697
      px      :    -0.017431
      py      :    -0.010766
      dz2     :    -0.006324  d :     0.003580
      dxz     :    -0.006933
      dyz     :     0.005757
      dx2y2   :     0.008788
      dxy     :     0.002293
      f0      :    -0.000007  f :     0.000056
      f+1     :    -0.000036
      f-1     :    -0.000004
      f+2     :     0.000042
      f-2     :     0.000014
      f+3     :     0.000016
      f-3     :     0.000031
 14 Fes       :     0.012598  s :     0.012598
      pz      :     0.004586  p :     0.015572
      px      :     0.005492
      py      :     0.005495
      dz2     :     0.573066  d :     3.047142
      dxz     :     0.810369
      dyz     :     0.408733
      dx2y2   :     0.609593
      dxy     :     0.645381
      f0      :    -0.000005  f :     0.000013
      f+1     :    -0.000001
      f-1     :     0.000015
      f+2     :     0.000000
      f-2     :    -0.000001
      f+3     :     0.000003
      f-3     :     0.000003


                      *****************************
                      * MAYER POPULATION ANALYSIS *
                      *****************************

  NA   - Mulliken gross atomic population
  ZA   - Total nuclear charge
  QA   - Mulliken gross atomic charge
  VA   - Mayer's total valence
  BVA  - Mayer's bonded valence
  FA   - Mayer's free valence

  ATOM       NA         ZA         QA         VA         BVA        FA
  0 Au    19.3100    19.0000    -0.3100     2.2745     2.2603     0.0142
  1 Au    18.5159    19.0000     0.4841     1.2625     1.2585     0.0040
  2 Au    18.7050    19.0000     0.2950     1.3927     1.3888     0.0039
  3 Au    19.1351    19.0000    -0.1351     1.9500     1.9482     0.0019
  4 Au    18.9762    19.0000     0.0238     1.9046     1.8839     0.0207
  5 Au    19.1363    19.0000    -0.1363     1.9500     1.9481     0.0019
  6 Au    18.7539    19.0000     0.2461     1.5657     1.5296     0.0361
  7 Au    18.7442    19.0000     0.2558     1.5223     1.5158     0.0065
  8 Au    18.9793    19.0000     0.0207     1.9081     1.8874     0.0207
  9 Au    18.7214    19.0000     0.2786     1.4350     1.4312     0.0038
 10 Au    18.7529    19.0000     0.2471     1.5651     1.5285     0.0365
 11 Au    18.7423    19.0000     0.2577     1.5209     1.5142     0.0067
 12 Au    18.6187    19.0000     0.3813     1.4904     1.4777     0.0127
 13 Au    18.6933    19.0000     0.3067     1.4721     1.4402     0.0318
 14 Fe    28.2158    26.0000    -2.2158     7.9623     5.4122     2.5501

  Mayer bond orders larger than 0.100000
B(  0-Au,  1-Au) :   0.4269 B(  0-Au,  3-Au) :   0.2761 B(  0-Au,  5-Au) :   0.2759 
B(  0-Au,  6-Au) :   0.2022 B(  0-Au, 10-Au) :   0.2028 B(  0-Au, 12-Au) :   0.3662 
B(  0-Au, 14-Fe) :   0.3439 B(  1-Au,  3-Au) :   0.2810 B(  1-Au,  5-Au) :   0.2798 
B(  2-Au,  3-Au) :   0.2422 B(  2-Au,  4-Au) :   0.2814 B(  2-Au,  5-Au) :   0.2415 
B(  2-Au,  8-Au) :   0.2833 B(  2-Au, 14-Fe) :   0.1393 B(  3-Au,  5-Au) :   0.1830 
B(  3-Au,  8-Au) :   0.3433 B(  3-Au, 10-Au) :   0.2763 B(  3-Au, 14-Fe) :   0.1962 
B(  4-Au,  5-Au) :   0.3437 B(  4-Au,  8-Au) :   0.1035 B(  4-Au, 11-Au) :   0.2055 
B(  4-Au, 13-Au) :   0.1666 B(  4-Au, 14-Fe) :   0.5191 B(  5-Au,  6-Au) :   0.2780 
B(  5-Au, 14-Fe) :   0.1958 B(  6-Au, 11-Au) :   0.1628 B(  6-Au, 14-Fe) :   0.5609 
B(  7-Au,  8-Au) :   0.2101 B(  7-Au,  9-Au) :   0.2189 B(  7-Au, 10-Au) :   0.1629 
B(  7-Au, 13-Au) :   0.1816 B(  7-Au, 14-Fe) :   0.4388 B(  8-Au, 13-Au) :   0.1652 
B(  8-Au, 14-Fe) :   0.5185 B(  9-Au, 11-Au) :   0.2164 B(  9-Au, 12-Au) :   0.2973 
B(  9-Au, 14-Fe) :   0.4344 B( 10-Au, 14-Fe) :   0.5632 B( 11-Au, 13-Au) :   0.1832 
B( 11-Au, 14-Fe) :   0.4433 B( 12-Au, 14-Fe) :   0.4831 B( 13-Au, 14-Fe) :   0.5059 


-------
TIMINGS
-------

Total SCF time: 0 days 0 hours 4 min 26 sec 

Total time                  ....     266.721 sec
Sum of individual times     ....     264.518 sec  ( 99.2%)

Fock matrix formation       ....     247.257 sec  ( 92.7%)
  Split-RI-J                ....      45.581 sec  ( 18.4% of F)
  XC integration            ....     199.943 sec  ( 80.9% of F)
    Basis function eval.    ....      11.754 sec  (  5.9% of XC)
    Density eval.           ....      87.813 sec  ( 43.9% of XC)
    XC-Functional eval.     ....       6.949 sec  (  3.5% of XC)
    XC-Potential eval.      ....      84.280 sec  ( 42.2% of XC)
Diagonalization             ....      10.449 sec  (  3.9%)
Density matrix formation    ....       0.641 sec  (  0.2%)
Population analysis         ....       0.141 sec  (  0.1%)
Initial guess               ....       0.200 sec  (  0.1%)
Orbital Transformation      ....       0.000 sec  (  0.0%)
Orbital Orthonormalization  ....       0.171 sec  (  0.1%)
DIIS solution               ....       4.548 sec  (  1.7%)
Grid generation             ....       1.281 sec  (  0.5%)

Maximum memory used throughout the entire SCF-calculation: 101.2 MB

-------------------------   --------------------
FINAL SINGLE POINT ENERGY     -3165.553260839789
-------------------------   --------------------


                            ***************************************
                            *     ORCA property calculations      *
                            ***************************************

                                    ---------------------
                                    Active property flags
                                    ---------------------
   (+) Dipole Moment


------------------------------------------------------------------------------
                       ORCA ELECTRIC PROPERTIES CALCULATION
------------------------------------------------------------------------------

Dipole Moment Calculation                       ... on
Quadrupole Moment Calculation                   ... off
Polarizability Calculation                      ... off
GBWName                                         ... scan_job2.gbw
Electron density                                ... scan_job2.scfp
The origin for moment calculation is the CENTER OF MASS  = (13.390722, 14.842617 13.888283)

-------------
DIPOLE MOMENT
-------------
                                X             Y             Z
Electronic contribution:     -9.77225       6.84097     -31.42096
Nuclear contribution   :      9.78502      -6.86384      31.48100
                        -----------------------------------------
Total Dipole Moment    :      0.01277      -0.02287       0.06005
                        -----------------------------------------
Magnitude (a.u.)       :      0.06551
Magnitude (Debye)      :      0.16652



--------------------
Rotational spectrum 
--------------------
 
Rotational constants in cm-1:     0.001321     0.000915     0.000880 
Rotational constants in MHz :    39.592212    27.432360    26.374260 

 Dipole components along the rotational axes: 
x,y,z [a.u.] :     0.065474     0.001979    -0.000976 
x,y,z [Debye]:     0.166422     0.005031    -0.002480 

 

Timings for individual modules:

Sum of individual times         ...      276.150 sec (=   4.602 min)
GTO integral calculation        ...        9.285 sec (=   0.155 min)   3.4 %
SCF iterations                  ...      266.865 sec (=   4.448 min)  96.6 %



                             ****ORCA TERMINATED NORMALLY****
TOTAL RUN TIME: 0 days 0 hours 10 minutes 6 seconds 127 msec
