
                                 *****************
                                 * O   R   C   A *
                                 *****************

                                            #,                                       
                                            ###                                      
                                            ####                                     
                                            #####                                    
                                            ######                                   
                                           ########,                                 
                                     ,,################,,,,,                         
                               ,,#################################,,                 
                          ,,##########################################,,             
                       ,#########################################, ''#####,          
                    ,#############################################,,   '####,        
                  ,##################################################,,,,####,       
                ,###########''''           ''''###############################       
              ,#####''   ,,,,##########,,,,          '''####'''          '####       
            ,##' ,,,,###########################,,,                        '##       
           ' ,,###''''                  '''############,,,                           
         ,,##''                                '''############,,,,        ,,,,,,###''
      ,#''                                            '''#######################'''  
     '                                                          ''''####''''         
             ,#######,   #######,   ,#######,      ##                                
            ,#'     '#,  ##    ##  ,#'     '#,    #''#        ######   ,####,        
            ##       ##  ##   ,#'  ##            #'  '#       #        #'  '#        
            ##       ##  #######   ##           ,######,      #####,   #    #        
            '#,     ,#'  ##    ##  '#,     ,#' ,#      #,         ##   #,  ,#        
             '#######'   ##     ##  '#######'  #'      '#     #####' # '####'        



                  #######################################################
                  #                        -***-                        #
                  #          Department of theory and spectroscopy      #
                  #    Directorship and core code : Frank Neese         #
                  #        Max Planck Institute fuer Kohlenforschung    #
                  #                Kaiser Wilhelm Platz 1               #
                  #                 D-45470 Muelheim/Ruhr               #
                  #                      Germany                        #
                  #                                                     #
                  #                  All rights reserved                #
                  #                        -***-                        #
                  #######################################################


                         Program Version 5.0.3 -  RELEASE  -


 With contributions from (in alphabetic order):
   Daniel Aravena         : Magnetic Suceptibility
   Michael Atanasov       : Ab Initio Ligand Field Theory (pilot matlab implementation)
   Alexander A. Auer      : GIAO ZORA, VPT2 properties, NMR spectrum
   Ute Becker             : Parallelization
   Giovanni Bistoni       : ED, misc. LED, open-shell LED, HFLD
   Martin Brehm           : Molecular dynamics
   Dmytro Bykov           : SCF Hessian
   Vijay G. Chilkuri      : MRCI spin determinant printing, contributions to CSF-ICE
   Dipayan Datta          : RHF DLPNO-CCSD density
   Achintya Kumar Dutta   : EOM-CC, STEOM-CC
   Dmitry Ganyushin       : Spin-Orbit,Spin-Spin,Magnetic field MRCI
   Miquel Garcia          : C-PCM and meta-GGA Hessian, CC/C-PCM, Gaussian charge scheme
   Yang Guo               : DLPNO-NEVPT2, F12-NEVPT2, CIM, IAO-localization
   Andreas Hansen         : Spin unrestricted coupled pair/coupled cluster methods
   Benjamin Helmich-Paris : MC-RPA, TRAH-SCF, COSX integrals
   Lee Huntington         : MR-EOM, pCC
   Robert Izsak           : Overlap fitted RIJCOSX, COSX-SCS-MP3, EOM
   Marcus Kettner         : VPT2
   Christian Kollmar      : KDIIS, OOCD, Brueckner-CCSD(T), CCSD density, CASPT2, CASPT2-K
   Simone Kossmann        : Meta GGA functionals, TD-DFT gradient, OOMP2, MP2 Hessian
   Martin Krupicka        : Initial AUTO-CI
   Lucas Lang             : DCDCAS
   Marvin Lechner         : AUTO-CI (C++ implementation), FIC-MRCC
   Dagmar Lenk            : GEPOL surface, SMD
   Dimitrios Liakos       : Extrapolation schemes; Compound Job, initial MDCI parallelization
   Dimitrios Manganas     : Further ROCIS development; embedding schemes
   Dimitrios Pantazis     : SARC Basis sets
   Anastasios Papadopoulos: AUTO-CI, single reference methods and gradients
   Taras Petrenko         : DFT Hessian,TD-DFT gradient, ASA, ECA, R-Raman, ABS, FL, XAS/XES, NRVS
   Peter Pinski           : DLPNO-MP2, DLPNO-MP2 Gradient
   Christoph Reimann      : Effective Core Potentials
   Marius Retegan         : Local ZFS, SOC
   Christoph Riplinger    : Optimizer, TS searches, QM/MM, DLPNO-CCSD(T), (RO)-DLPNO pert. Triples
   Tobias Risthaus        : Range-separated hybrids, TD-DFT gradient, RPA, STAB
   Michael Roemelt        : Original ROCIS implementation
   Masaaki Saitow         : Open-shell DLPNO-CCSD energy and density
   Barbara Sandhoefer     : DKH picture change effects
   Avijit Sen             : IP-ROCIS
   Kantharuban Sivalingam : CASSCF convergence, NEVPT2, FIC-MRCI
   Bernardo de Souza      : ESD, SOC TD-DFT
   Georgi Stoychev        : AutoAux, RI-MP2 NMR, DLPNO-MP2 response
   Willem Van den Heuvel  : Paramagnetic NMR
   Boris Wezisla          : Elementary symmetry handling
   Frank Wennmohs         : Technical directorship


 We gratefully acknowledge several colleagues who have allowed us to
 interface, adapt or use parts of their codes:
   Stefan Grimme, W. Hujo, H. Kruse, P. Pracht,  : VdW corrections, initial TS optimization,
                  C. Bannwarth, S. Ehlert          DFT functionals, gCP, sTDA/sTD-DF
   Ed Valeev, F. Pavosevic, A. Kumar             : LibInt (2-el integral package), F12 methods
   Garnet Chan, S. Sharma, J. Yang, R. Olivares  : DMRG
   Ulf Ekstrom                                   : XCFun DFT Library
   Mihaly Kallay                                 : mrcc  (arbitrary order and MRCC methods)
   Jiri Pittner, Ondrej Demel                    : Mk-CCSD
   Frank Weinhold                                : gennbo (NPA and NBO analysis)
   Christopher J. Cramer and Donald G. Truhlar   : smd solvation model
   Lars Goerigk                                  : TD-DFT with DH, B97 family of functionals
   V. Asgeirsson, H. Jonsson                     : NEB implementation
   FAccTs GmbH                                   : IRC, NEB, NEB-TS, DLPNO-Multilevel, CI-OPT
                                                   MM, QMMM, 2- and 3-layer-ONIOM, Crystal-QMMM,
                                                   LR-CPCM, SF, NACMEs, symmetry and pop. for TD-DFT,
                                                   nearIR, NL-DFT gradient (VV10), updates on ESD,
                                                   ML-optimized integration grids
   S Lehtola, MJT Oliveira, MAL Marques          : LibXC Library
   Liviu Ungur et al                             : ANISO software


 Your calculation uses the libint2 library for the computation of 2-el integrals
 For citations please refer to: http://libint.valeyev.net

 Your ORCA version has been built with support for libXC version: 5.1.0
 For citations please refer to: https://tddft.org/programs/libxc/

 This ORCA versions uses:
   CBLAS   interface :  Fast vector & matrix operations
   LAPACKE interface :  Fast linear algebra routines
   SCALAPACK package :  Parallel linear algebra routines
   Shared memory     :  Shared parallel matrices
   BLAS/LAPACK       :  OpenBLAS 0.3.15  USE64BITINT DYNAMIC_ARCH NO_AFFINITY Haswell SINGLE_THREADED
        Core in use  :  Haswell
   Copyright (c) 2011-2014, The OpenBLAS Project




***************************************
The coordinates will be read from file: 2.xyz
***************************************


================================================================================

cite the ECPs for Au [Def2-ECP] as follows:
Ce-Yb(ecp-28): M. Dolg, H. Stoll, H.Preuss, J. Chem. Phys., 1989, 90, 1730-1734.
Y-Cd(ecp-28), Hf-Hg(ecp-46): D. Andrae,U. Haeussermann, M. Dolg, H. Stoll, H. Preuss, Theor. Chim. Acta, 1990, 77, 123-141.
In-Sb(ecp-28), Tl-Bi(ecp-46): B. Metz, H. Stoll, M. Dolg, J. Chem. Phys., 2000, 113, 2563-2569.
Te-Xe(ecp-28), Po-Rn(ecp-46): K. A. Peterson, D. Figgen, E. Goll, H. Stoll, M. Dolg, J. Chem. Phys., 2003, 119, 11113-11123.
Rb(ecp-28), Cs(ecp-46): T. Leininger, A. Nicklass, W. Kuechle, H. Stoll, M. Dolg, A. Bergner, Chem. Phys. Lett., 1996, 255, 274-280.
Sr(ecp-28), Ba(ecp-46): M. Kaupp, P. V. Schleyer, H. Stoll and H. Preuss, J. Chem. Phys., 1991, 94, 1360-1366.
La(ecp-46): M. Dolg, H. Stoll, A. Savin, H. Preuss, Theor. Chim. Acta, 1989, 75, 173-194.
Lu(ecp-28): X. Cao, M. Dolg, J. Chem. Phys., 2001, 115, 7348-7355.

ECP parameters for Au [Def2-ECP] have been obtained from:
TURBOMOLE (7.0.2)

----- Orbital basis set information -----
Your calculation utilizes the basis: def2-TZVP
   F. Weigend and R. Ahlrichs, Phys. Chem. Chem. Phys. 7, 3297 (2005).

----- AuxJ basis set information -----
Your calculation utilizes the auxiliary basis: def2/J
   F. Weigend, Phys. Chem. Chem. Phys. 8, 1057 (2006).

================================================================================
                                        WARNINGS
                       Please study these warnings very carefully!
================================================================================


WARNING: your system is open-shell and RHF/RKS was chosen
  ===> : WILL SWITCH to UHF/UKS


WARNING: Geometry Optimization
  ===> : Switching off AutoStart
         For restart on a previous wavefunction, please use MOREAD

INFO   : the flag for use of the SHARK integral package has been found!

================================================================================
                                       INPUT FILE
================================================================================
NAME = pbe.inp
|  1> %pal nprocs 1 end 
|  2> 
|  3> !PBE def2-TZVP OPT UNO
|  4> !SLOWCONV KDIIS 
|  5> 
|  6> %geom maxiter 300 end
|  7> 
|  8> *xyzfile 0 3 2.xyz                           ****END OF INPUT****
================================================================================

                       *****************************
                       * Geometry Optimization Run *
                       *****************************

Geometry optimization settings:
Update method            Update   .... BFGS
Choice of coordinates    CoordSys .... Z-matrix Internals
Initial Hessian          InHess   .... Almoef's Model

Convergence Tolerances:
Energy Change            TolE     ....  5.0000e-06 Eh
Max. Gradient            TolMAXG  ....  3.0000e-04 Eh/bohr
RMS Gradient             TolRMSG  ....  1.0000e-04 Eh/bohr
Max. Displacement        TolMAXD  ....  4.0000e-03 bohr
RMS Displacement         TolRMSD  ....  2.0000e-03 bohr
Strict Convergence                ....  False
------------------------------------------------------------------------------
                        ORCA OPTIMIZATION COORDINATE SETUP
------------------------------------------------------------------------------

The optimization will be done in new redundant internal coordinates
Making redundant internal coordinates   ...  (new redundants) done
Evaluating the initial hessian          ...  (Almloef) done
Evaluating the coordinates              ...  done
Calculating the B-matrix                .... done
Calculating the G-matrix                .... done
Diagonalizing the G-matrix              .... done
The first mode is                       ....  356
The number of degrees of freedom        ....   45

    -----------------------------------------------------------------
                    Redundant Internal Coordinates


    -----------------------------------------------------------------
         Definition                    Initial Value    Approx d2E/dq
    -----------------------------------------------------------------
      1. B(Au  9,Au  3)                  2.8069         0.006644   
      2. B(Au  9,Au  8)                  2.8754         0.005164   
      3. B(Au 10,Au  8)                  2.8326         0.006044   
      4. B(Au 10,Au  9)                  2.8068         0.006645   
      5. B(Au 12,Au  8)                  2.7954         0.006929   
      6. B(Au 13,Au  7)                  2.7406         0.008476   
      7. B(Au 13,Au  1)                  3.0391         0.002830   
      8. B(Au 13,Au  8)                  2.8939         0.004826   
      9. B(Au 13,Au 12)                  3.0399         0.002823   
     10. B(Au 14,Au  9)                  2.8756         0.005161   
     11. B(Au 14,Au  3)                  2.8327         0.006042   
     12. B(Au 14,Au 13)                  2.8940         0.004824   
     13. B(Au 14,Au  1)                  2.7956         0.006924   
     14. B(Au 15,Au 13)                  2.7562         0.008001   
     15. B(Au 15,Au  9)                  2.9089         0.004566   
     16. B(Au 15,Au 14)                  2.8120         0.006519   
     17. B(Au 15,Au  8)                  2.8120         0.006519   
     18. B(Cr 16,Au  6)                  2.6733         0.078900   
     19. B(Cr 16,Au  5)                  2.6467         0.087001   
     20. B(Cr 16,Au  2)                  2.6525         0.085142   
     21. B(Cr 16,Au 12)                  2.7127         0.068267   
     22. B(Cr 16,Au 11)                  2.6525         0.085167   
     23. B(Cr 16,Au  4)                  2.6682         0.080395   
     24. B(Cr 16,Au 10)                  2.8795         0.036982   
     25. B(Cr 16,Au  7)                  2.8590         0.039881   
     26. B(Cr 16,Au  3)                  2.8798         0.036952   
     27. B(Cr 16,Au  1)                  2.7128         0.068243   
     28. B(Cr 16,Au  0)                  2.6733         0.078897   
     29. A(Au 13,Au  1,Au 14)           59.2950         0.129425   
     30. A(Au 13,Au  1,Cr 16)           81.4740         0.165098   
     31. A(Au 14,Au  1,Cr 16)          106.2985         0.182175   
     32. A(Au 14,Au  3,Cr 16)          101.0039         0.167634   
     33. A(Au  9,Au  3,Cr 16)          106.6346         0.169342   
     34. A(Au  9,Au  3,Au 14)           61.3118         0.136548   
     35. A(Au 13,Au  7,Cr 16)           84.3831         0.175374   
     36. A(Au  9,Au  8,Au 10)           58.9030         0.133917   
     37. A(Au 10,Au  8,Au 12)           62.5311         0.137008   
     38. A(Au 13,Au  8,Au 15)           57.7486         0.133997   
     39. A(Au 10,Au  8,Au 15)          115.2500         0.136350   
     40. A(Au 12,Au  8,Au 13)           64.5680         0.134623   
     41. A(Au  9,Au  8,Au 15)           61.5110         0.134692   
     42. A(Au 12,Au  8,Au 15)          121.9967         0.137837   
     43. A(Au 10,Au  8,Au 13)           94.6354         0.133234   
     44. A(Au  9,Au  8,Au 12)          110.2727         0.135328   
     45. A(Au  9,Au  8,Au 13)           85.7284         0.131685   
     46. A(Au  8,Au  9,Au 15)           58.1708         0.131154   
     47. A(Au 10,Au  9,Au 14)          105.3396         0.134884   
     48. A(Au  8,Au  9,Au 14)           94.2048         0.132339   
     49. A(Au  3,Au  9,Au 10)           63.2012         0.137583   
     50. A(Au 10,Au  9,Au 15)          113.0223         0.133630   
     51. A(Au 14,Au  9,Au 15)           58.1692         0.131149   
     52. A(Au  3,Au  9,Au 15)          113.0201         0.133628   
     53. A(Au  3,Au  9,Au 14)           59.7870         0.134882   
     54. A(Au  8,Au  9,Au 10)           59.7869         0.134890   
     55. A(Au  3,Au  9,Au  8)          105.3363         0.134888   
     56. A(Au  8,Au 10,Au  9)           61.3102         0.136555   
     57. A(Au  9,Au 10,Cr 16)          106.6421         0.169360   
     58. A(Au  8,Au 10,Cr 16)          100.9991         0.167656   
     59. A(Au  8,Au 12,Cr 16)          106.2935         0.182201   
     60. A(Au 13,Au 12,Cr 16)           81.4614         0.165057   
     61. A(Au  8,Au 12,Au 13)           59.2854         0.129408   
     62. A(Au  8,Au 13,Au 15)           59.6353         0.136133   
     63. A(Au 12,Au 13,Au 15)          115.5000         0.130745   
     64. A(Au  7,Au 13,Au 15)          169.6784         0.142541   
     65. A(Au  1,Au 13,Au 15)          115.5113         0.130771   
     66. A(Au  7,Au 13,Au 12)           58.3971         0.131293   
     67. A(Au  1,Au 13,Au 12)           90.1276         0.121996   
     68. A(Au 14,Au 13,Au 15)           59.6341         0.136129   
     69. A(Au  8,Au 13,Au 14)           93.4231         0.131033   
     70. A(Au 12,Au 13,Au 14)          118.2667         0.126228   
     71. A(Au  7,Au 13,Au 14)          114.4884         0.136748   
     72. A(Au  1,Au 13,Au 14)           56.1592         0.126251   
     73. A(Au  8,Au 13,Au 12)           56.1465         0.126231   
     74. A(Au  1,Au 13,Au  7)           58.4081         0.131320   
     75. A(Au  7,Au 13,Au  8)          114.4656         0.136752   
     76. A(Au  1,Au 13,Au  8)          118.2682         0.126254   
     77. A(Au  9,Au 14,Au 15)           61.5090         0.134686   
     78. A(Au  1,Au 14,Au  3)           62.5353         0.136994   
     79. A(Au 13,Au 14,Au 15)           57.7473         0.133993   
     80. A(Au  3,Au 14,Au 15)          115.2456         0.136345   
     81. A(Au  1,Au 14,Au 15)          121.9732         0.137827   
     82. A(Au  3,Au 14,Au 13)           94.6295         0.133226   
     83. A(Au  1,Au 14,Au 13)           64.5458         0.134610   
     84. A(Au  9,Au 14,Au 13)           85.7237         0.131676   
     85. A(Au  3,Au 14,Au  9)           58.9012         0.133907   
     86. A(Au  1,Au 14,Au  9)          110.2626         0.135313   
     87. A(Au  9,Au 15,Au 14)           60.3217         0.133437   
     88. A(Au  9,Au 15,Au 13)           87.6565         0.135546   
     89. A(Au  8,Au 15,Au 14)           97.0277         0.137167   
     90. A(Au 13,Au 15,Au 14)           62.6185         0.139453   
     91. A(Au  8,Au 15,Au 13)           62.6162         0.139453   
     92. A(Au  8,Au 15,Au  9)           60.3182         0.133437   
     93. A(Au  5,Cr 16,Au 10)          117.2883         0.250314   
     94. A(Au  4,Cr 16,Au 10)           61.0599         0.247456   
     95. A(Au  4,Cr 16,Au  5)           66.4779         0.281310   
     96. A(Au  3,Cr 16,Au 10)           61.4271         0.221893   
     97. A(Au  2,Cr 16,Au 10)          114.0775         0.249527   
     98. A(Au  3,Cr 16,Au  5)          117.2817         0.250285   
     99. A(Au  0,Cr 16,Au  4)          120.9749         0.277101   
    100. A(Au  1,Cr 16,Au 10)          110.7714         0.241687   
    101. A(Au 11,Cr 16,Au 12)           65.4146         0.273431   
    102. A(Au  6,Cr 16,Au  7)           60.9027         0.249503   
    103. A(Au  2,Cr 16,Au  5)           68.1404         0.283823   
    104. A(Au 10,Cr 16,Au 12)           62.8975         0.241699   
    105. A(Au  7,Cr 16,Au 12)           61.0321         0.244330   
    106. A(Au  5,Cr 16,Au  7)          115.9859         0.253093   
    107. A(Au  6,Cr 16,Au 12)           64.4167         0.270268   
    108. A(Au  5,Cr 16,Au 12)          122.9643         0.274323   
    109. A(Au  3,Cr 16,Au  7)          116.9349         0.224182   
    110. A(Au  1,Cr 16,Au  5)          122.9616         0.274308   
    111. A(Au  2,Cr 16,Au  3)           60.5365         0.249498   
    112. A(Au  1,Cr 16,Au  2)           65.4103         0.273404   
    113. A(Au  4,Cr 16,Au 12)          117.9035         0.271040   
    114. A(Au  3,Cr 16,Au 12)          110.7743         0.241671   
    115. A(Au  2,Cr 16,Au  7)          115.2089         0.252293   
    116. A(Au  2,Cr 16,Au 12)          168.8794         0.273419   
    117. A(Au  1,Cr 16,Au 12)          104.9648         0.264411   
    118. A(Au  1,Cr 16,Au  7)           61.0323         0.244317   
    119. A(Au  0,Cr 16,Au  5)           67.0433         0.280493   
    120. A(Au  0,Cr 16,Au 12)          117.1463         0.270266   
    121. A(Au 10,Cr 16,Au 11)           60.5373         0.249538   
    122. A(Au  0,Cr 16,Au  7)           60.9049         0.249501   
    123. A(Au  7,Cr 16,Au 11)          115.2139         0.252304   
    124. A(Au  6,Cr 16,Au 11)           64.8794         0.279574   
    125. A(Au  5,Cr 16,Au  6)           67.0450         0.280495   
    126. A(Au  3,Cr 16,Au  4)           61.0555         0.247428   
    127. A(Au  1,Cr 16,Au  3)           62.9020         0.241659   
    128. A(Au  5,Cr 16,Au 11)           68.1412         0.283836   
    129. A(Au  4,Cr 16,Au 11)           65.3711         0.280385   
    130. A(Au  4,Cr 16,Au  6)          120.9759         0.277103   
    131. A(Au  3,Cr 16,Au 11)          114.0700         0.249509   
    132. A(Au  2,Cr 16,Au 11)          123.4885         0.282886   
    133. A(Au  2,Cr 16,Au  6)          124.1689         0.279561   
    134. A(Au  2,Cr 16,Au  4)           65.3781         0.280372   
    135. A(Au  1,Cr 16,Au 11)          168.8816         0.273416   
    136. A(Au  0,Cr 16,Au 11)          124.1726         0.279572   
    137. A(Au  1,Cr 16,Au  6)          117.1432         0.270254   
    138. A(Au  7,Cr 16,Au 10)          116.9292         0.224206   
    139. A(Au  6,Cr 16,Au 10)          115.1255         0.246784   
    140. A(Au  0,Cr 16,Au  6)           68.0881         0.276303   
    141. A(Au  1,Cr 16,Au  4)          117.9053         0.271025   
    142. A(Au  0,Cr 16,Au  3)          115.1236         0.246755   
    143. A(Au  0,Cr 16,Au  2)           64.8720         0.279559   
    144. A(Au  0,Cr 16,Au  1)           64.4149         0.270252   
    145. D(Au  3,Au  9,Au  8,Au 13)     52.5128         0.001501   
    146. D(Au  8,Au  9,Au  3,Cr 16)      7.7590         0.001501   
    147. D(Au  3,Au  9,Au  8,Au 15)    107.8801         0.001501   
    148. D(Au 15,Au  9,Au  8,Au 12)   -116.2459         0.001501   
    149. D(Au 15,Au  9,Au  3,Au 14)    -24.4195         0.001501   
    150. D(Au 10,Au  9,Au  8,Au 13)     98.0300         0.001501   
    151. D(Au 14,Au  9,Au  8,Au 12)    -68.1643         0.001501   
    152. D(Au 14,Au  9,Au  8,Au 15)     48.0816         0.001501   
    153. D(Au  8,Au  9,Au  3,Au 14)    -85.8873         0.001501   
    154. D(Au 15,Au  9,Au  3,Cr 16)     69.2268         0.001501   
    155. D(Au 14,Au  9,Au  8,Au 10)   -105.3157         0.001501   
    156. D(Au 10,Au  9,Au  8,Au 15)    153.3973         0.001501   
    157. D(Au 14,Au  9,Au  3,Cr 16)     93.6463         0.001501   
    158. D(Au 10,Au  9,Au  8,Au 12)     37.1514         0.001501   
    159. D(Au 15,Au  9,Au  8,Au 10)   -153.3973         0.001501   
    160. D(Au 10,Au  9,Au  3,Cr 16)    -35.9290         0.001501   
    161. D(Au 14,Au  9,Au  8,Au 13)     -7.2857         0.001501   
    162. D(Au 10,Au  9,Au  3,Au 14)   -129.5753         0.001501   
    163. D(Au  3,Au  9,Au  8,Au 12)     -8.3658         0.001501   
    164. D(Au  3,Au  9,Au  8,Au 10)    -45.5171         0.001501   
    165. D(Au 15,Au  9,Au  8,Au 13)    -55.3673         0.001501   
    166. D(Cr 16,Au 10,Au  8,Au 13)     20.9008         0.001501   
    167. D(Cr 16,Au 10,Au  8,Au 12)    -37.2460         0.001501   
    168. D(Au  9,Au 10,Au  8,Au 12)   -140.3203         0.001501   
    169. D(Au  9,Au 10,Au  8,Au 13)    -82.1735         0.001501   
    170. D(Au  9,Au 10,Au  8,Au 15)    -25.7951         0.001501   
    171. D(Cr 16,Au 10,Au  9,Au  3)     35.9337         0.001501   
    172. D(Cr 16,Au 10,Au  8,Au 15)     77.2793         0.001501   
    173. D(Cr 16,Au 10,Au  8,Au  9)    103.0743         0.001501   
    174. D(Cr 16,Au 10,Au  9,Au  8)    -93.6364         0.001501   
    175. D(Cr 16,Au 10,Au  9,Au 14)     -7.7511         0.001501   
    176. D(Au  8,Au 10,Au  9,Au 14)     85.8852         0.001501   
    177. D(Au  8,Au 10,Au  9,Au 15)     24.4179         0.001501   
    178. D(Cr 16,Au 10,Au  9,Au 15)    -69.2185         0.001501   
    179. D(Au  8,Au 10,Au  9,Au  3)    129.5701         0.001501   
    180. D(Au 13,Au 12,Au  8,Au 15)      6.3599         0.001502   
    181. D(Au 13,Au 12,Au  8,Au  9)     74.7183         0.001502   
    182. D(Cr 16,Au 12,Au  8,Au 10)     41.0757         0.001502   
    183. D(Cr 16,Au 12,Au  8,Au 15)    -62.9336         0.001502   
    184. D(Cr 16,Au 12,Au  8,Au 13)    -69.2935         0.001502   
    185. D(Au 13,Au 12,Au  8,Au 10)    110.3692         0.001502   
    186. D(Cr 16,Au 12,Au  8,Au  9)      5.4248         0.001502   
    187. D(Au  7,Au 13,Au  1,Au 14)    176.5919         0.001500   
    188. D(Au  1,Au 13,Au  8,Au 15)   -104.5789         0.001501   
    189. D(Au  1,Au 13,Au  8,Au  9)    -45.8072         0.001501   
    190. D(Au  1,Au 13,Au  8,Au 10)     12.4785         0.001501   
    191. D(Au 15,Au 13,Au  1,Cr 16)   -108.6786         0.001500   
    192. D(Au  8,Au 13,Au  7,Cr 16)     53.1189         0.001502   
    193. D(Au 14,Au 13,Au  7,Cr 16)    -53.1013         0.001502   
    194. D(Au 12,Au 13,Au  7,Cr 16)     56.2132         0.001502   
    195. D(Au  8,Au 13,Au  1,Au 14)     73.8048         0.001500   
    196. D(Au  1,Au 13,Au  7,Cr 16)    -56.2115         0.001502   
    197. D(Au  8,Au 13,Au  1,Cr 16)    -40.9717         0.001500   
    198. D(Au 15,Au 13,Au  1,Au 14)      6.0978         0.001500   
    199. D(Au 15,Au 13,Au  7,Cr 16)      0.0795         0.001502   
    200. D(Au 12,Au 13,Au  1,Au 14)    124.6582         0.001500   
    201. D(Au  7,Au 13,Au  8,Au 15)   -170.4488         0.001501   
    202. D(Au 12,Au 13,Au  1,Cr 16)      9.8817         0.001500   
    203. D(Au  7,Au 13,Au  8,Au 10)    -53.3914         0.001501   
    204. D(Au  1,Au 13,Au  8,Au 12)     69.0434         0.001501   
    205. D(Au 15,Au 13,Au 12,Au  8)     -6.0957         0.001500   
    206. D(Au  7,Au 13,Au  8,Au 12)      3.1735         0.001501   
    207. D(Au 14,Au 13,Au  8,Au 15)    -51.5391         0.001501   
    208. D(Au  1,Au 13,Au 12,Au  8)   -124.6659         0.001500   
    209. D(Au  7,Au 13,Au 12,Au  8)   -176.6082         0.001500   
    210. D(Au 15,Au 13,Au 12,Cr 16)    108.6878         0.001500   
    211. D(Au 14,Au 13,Au  8,Au 12)    122.0832         0.001501   
    212. D(Au  7,Au 13,Au 12,Cr 16)    -61.8247         0.001500   
    213. D(Au 14,Au 13,Au  8,Au 10)     65.5183         0.001501   
    214. D(Au 15,Au 13,Au  8,Au  9)     58.7717         0.001501   
    215. D(Au  8,Au 13,Au 12,Cr 16)    114.7835         0.001500   
    216. D(Au 15,Au 13,Au  8,Au 12)    173.6223         0.001501   
    217. D(Au 14,Au 13,Au  8,Au  9)      7.2326         0.001501   
    218. D(Au  1,Au 13,Au 12,Cr 16)     -9.8824         0.001500   
    219. D(Au 15,Au 13,Au  8,Au 10)    117.0574         0.001501   
    220. D(Au 14,Au 13,Au 12,Au  8)    -73.7965         0.001500   
    221. D(Au 12,Au 13,Au  8,Au  9)   -114.8506         0.001501   
    222. D(Au 12,Au 13,Au  8,Au 15)   -173.6223         0.001501   
    223. D(Au  7,Au 13,Au  1,Cr 16)     61.8154         0.001500   
    224. D(Au 12,Au 13,Au  8,Au 10)    -56.5649         0.001501   
    225. D(Au  7,Au 13,Au  8,Au  9)   -111.6771         0.001501   
    226. D(Au 14,Au 13,Au 12,Cr 16)     40.9870         0.001500   
    227. D(Au 14,Au 13,Au  1,Cr 16)   -114.7765         0.001500   
    228. D(Au  9,Au 14,Au  1,Cr 16)     -5.3962         0.001502   
    229. D(Au 15,Au 14,Au 13,Au  8)     51.5399         0.001501   
    230. D(Au 13,Au 14,Au  3,Au  9)     82.1713         0.001501   
    231. D(Au  3,Au 14,Au 13,Au  8)    -65.5163         0.001501   
    232. D(Au  9,Au 14,Au 13,Au  1)    114.8484         0.001501   
    233. D(Au  3,Au 14,Au 13,Au  1)     56.5643         0.001501   
    234. D(Au  1,Au 14,Au 13,Au  8)   -122.0806         0.001501   
    235. D(Au  1,Au 14,Au 13,Au 12)    -69.0553         0.001501   
    236. D(Au  1,Au 14,Au 13,Au  7)     -3.1898         0.001501   
    237. D(Au  3,Au 14,Au  9,Au  8)    105.3118         0.001501   
    238. D(Au 13,Au 14,Au  9,Au 15)     55.3682         0.001501   
    239. D(Au 13,Au 14,Au  9,Au  3)    -98.0263         0.001501   
    240. D(Au 13,Au 14,Au  9,Au 10)    -52.5126         0.001501   
    241. D(Au  3,Au 14,Au  9,Au 15)    153.3945         0.001501   
    242. D(Au 15,Au 14,Au  9,Au  8)    -48.0827         0.001501   
    243. D(Au 15,Au 14,Au  9,Au 10)   -107.8808         0.001501   
    244. D(Au 15,Au 14,Au  9,Au  3)   -153.3945         0.001501   
    245. D(Au  1,Au 14,Au  9,Au 15)    116.2230         0.001501   
    246. D(Au  1,Au 14,Au  9,Au 10)      8.3422         0.001501   
    247. D(Au  1,Au 14,Au  9,Au  8)     68.1403         0.001501   
    248. D(Au  1,Au 14,Au  9,Au  3)    -37.1715         0.001501   
    249. D(Au 13,Au 14,Au  9,Au  8)      7.2855         0.001501   
    250. D(Au  1,Au 14,Au 13,Au 15)   -173.6206         0.001501   
    251. D(Au  9,Au 14,Au  3,Cr 16)   -103.0635         0.001501   
    252. D(Au 15,Au 14,Au  3,Au  9)     25.7962         0.001501   
    253. D(Au  3,Au 14,Au  9,Au 10)     45.5137         0.001501   
    254. D(Au 15,Au 14,Au  3,Cr 16)    -77.2673         0.001501   
    255. D(Au 15,Au 14,Au 13,Au  1)    173.6206         0.001501   
    256. D(Au  3,Au 14,Au 13,Au 15)   -117.0563         0.001501   
    257. D(Au 13,Au 14,Au  3,Cr 16)    -20.8922         0.001501   
    258. D(Au 15,Au 14,Au 13,Au  7)    170.4308         0.001501   
    259. D(Au  1,Au 14,Au  3,Au  9)    140.2970         0.001501   
    260. D(Au  1,Au 14,Au  3,Cr 16)     37.2335         0.001501   
    261. D(Au  9,Au 14,Au  1,Au 13)    -74.7072         0.001502   
    262. D(Au  9,Au 14,Au 13,Au  7)    111.6586         0.001501   
    263. D(Au  9,Au 14,Au 13,Au 12)     45.7931         0.001501   
    264. D(Au 15,Au 14,Au  1,Au 13)     -6.3599         0.001502   
    265. D(Au 15,Au 14,Au 13,Au 12)    104.5653         0.001501   
    266. D(Au  3,Au 14,Au 13,Au 12)    -12.4910         0.001501   
    267. D(Au 15,Au 14,Au  1,Cr 16)     62.9511         0.001502   
    268. D(Au 13,Au 14,Au  1,Cr 16)     69.3109         0.001502   
    269. D(Au  3,Au 14,Au  1,Cr 16)    -41.0638         0.001502   
    270. D(Au  3,Au 14,Au 13,Au  7)     53.3745         0.001501   
    271. D(Au  9,Au 14,Au 13,Au  8)     -7.2322         0.001501   
    272. D(Au  9,Au 14,Au 13,Au 15)    -58.7722         0.001501   
    273. D(Au  3,Au 14,Au  1,Au 13)   -110.3747         0.001502   
    274. D(Au  9,Au 15,Au 14,Au 13)   -104.0145         0.001502   
    275. D(Au  9,Au 15,Au 14,Au  1)    -97.2223         0.001502   
    276. D(Au  8,Au 15,Au 14,Au  9)     49.8706         0.001502   
    277. D(Au  8,Au 15,Au 14,Au 13)    -54.1439         0.001502   
    278. D(Au  8,Au 15,Au 14,Au  1)    -47.3517         0.001502   
    279. D(Au 13,Au 15,Au 14,Au  9)    104.0145         0.001502   
    280. D(Au 13,Au 15,Au 14,Au  3)     78.9287         0.001502   
    281. D(Au 13,Au 15,Au 14,Au  1)      6.7922         0.001502   
    282. D(Au  9,Au 15,Au 13,Au 14)     57.5291         0.001502   
    283. D(Au  9,Au 15,Au 13,Au  8)    -57.5243         0.001502   
    284. D(Au  9,Au 15,Au 13,Au 12)    -51.6581         0.001502   
    285. D(Au  9,Au 15,Au 13,Au  1)     51.6598         0.001502   
    286. D(Au 14,Au 15,Au 13,Au  8)   -115.0534         0.001502   
    287. D(Au 14,Au 15,Au 13,Au 12)   -109.1872         0.001502   
    288. D(Au 14,Au 15,Au 13,Au  1)     -5.8693         0.001502   
    289. D(Au  8,Au 15,Au 13,Au 14)    115.0534         0.001502   
    290. D(Au  8,Au 15,Au 13,Au 12)      5.8663         0.001502   
    291. D(Au  8,Au 15,Au 13,Au  7)     57.4510         0.001502   
    292. D(Au  8,Au 15,Au 13,Au  1)    109.1842         0.001502   
    293. D(Au 14,Au 15,Au  9,Au 10)     94.2739         0.001501   
    294. D(Au 14,Au 15,Au  9,Au  8)    119.1376         0.001501   
    295. D(Au 14,Au 15,Au  9,Au  3)     24.8659         0.001501   
    296. D(Au  8,Au 15,Au  9,Au 14)   -119.1376         0.001501   
    297. D(Au  8,Au 15,Au  9,Au 10)    -24.8637         0.001501   
    298. D(Au 14,Au 15,Au 13,Au  7)    -57.6024         0.001502   
    299. D(Au  8,Au 15,Au  9,Au  3)    -94.2717         0.001501   
    300. D(Au 13,Au 15,Au  9,Au 14)    -59.5707         0.001501   
    301. D(Au 13,Au 15,Au  9,Au 10)     34.7032         0.001501   
    302. D(Au  9,Au 15,Au 13,Au  7)     -0.0733         0.001502   
    303. D(Au 13,Au 15,Au  9,Au  8)     59.5669         0.001501   
    304. D(Au 13,Au 15,Au  9,Au  3)    -34.7048         0.001501   
    305. D(Au  9,Au 15,Au  8,Au 13)    104.0185         0.001502   
    306. D(Au  9,Au 15,Au  8,Au 12)     97.2252         0.001502   
    307. D(Au  9,Au 15,Au  8,Au 10)     25.0846         0.001502   
    308. D(Au 14,Au 15,Au  8,Au  9)    -49.8730         0.001502   
    309. D(Au 14,Au 15,Au  8,Au 13)     54.1456         0.001502   
    310. D(Au  8,Au 15,Au 14,Au  3)     24.7848         0.001502   
    311. D(Au 14,Au 15,Au  8,Au 12)     47.3522         0.001502   
    312. D(Au 14,Au 15,Au  8,Au 10)    -24.7883         0.001502   
    313. D(Au 13,Au 15,Au  8,Au  9)   -104.0185         0.001502   
    314. D(Au  9,Au 15,Au 14,Au  3)    -25.0858         0.001502   
    315. D(Au 13,Au 15,Au  8,Au 12)     -6.7933         0.001502   
    316. D(Au 13,Au 15,Au  8,Au 10)    -78.9339         0.001502   
    317. D(Au 10,Cr 16,Au 12,Au 13)    -94.5166         0.001524   
    318. D(Au  7,Cr 16,Au 12,Au  8)    109.7548         0.001524   
    319. D(Au  7,Cr 16,Au 12,Au 13)     55.3449         0.001524   
    320. D(Au  6,Cr 16,Au 12,Au 13)    124.7828         0.001524   
    321. D(Au  5,Cr 16,Au 12,Au  8)   -146.4829         0.001524   
    322. D(Au  5,Cr 16,Au 12,Au 13)    159.1072         0.001524   
    323. D(Au  4,Cr 16,Au 12,Au 13)   -122.1280         0.001524   
    324. D(Au  3,Cr 16,Au 12,Au  8)     -0.3511         0.001524   
    325. D(Au  3,Cr 16,Au 12,Au 13)    -54.7609         0.001524   
    326. D(Au  2,Cr 16,Au 12,Au  8)     36.7441         0.001524   
    327. D(Au  2,Cr 16,Au 12,Au 13)    -17.6658         0.001524   
    328. D(Au  1,Cr 16,Au 12,Au  8)     65.8897         0.001524   
    329. D(Au  1,Cr 16,Au 12,Au 13)     11.4798         0.001524   
    330. D(Au  0,Cr 16,Au 12,Au 13)     80.0540         0.001524   
    331. D(Au 12,Cr 16,Au 10,Au  9)    101.5425         0.001508   
    332. D(Au 12,Cr 16,Au 10,Au  8)     38.4360         0.001508   
    333. D(Au 11,Cr 16,Au 10,Au  8)    114.0959         0.001508   
    334. D(Au  7,Cr 16,Au 10,Au  9)     72.0243         0.001508   
    335. D(Au  7,Cr 16,Au 10,Au  8)      8.9178         0.001508   
    336. D(Au  6,Cr 16,Au 10,Au  8)     77.5585         0.001508   
    337. D(Au  5,Cr 16,Au 10,Au  9)   -143.3854         0.001508   
    338. D(Au  5,Cr 16,Au 10,Au  8)    153.5081         0.001508   
    339. D(Au  4,Cr 16,Au 10,Au  9)   -106.3641         0.001508   
    340. D(Au  4,Cr 16,Au 10,Au  8)   -169.4706         0.001508   
    341. D(Au  3,Cr 16,Au 10,Au  9)    -35.5466         0.001508   
    342. D(Au  3,Cr 16,Au 10,Au  8)    -98.6531         0.001508   
    343. D(Au  2,Cr 16,Au 10,Au  8)   -129.6926         0.001508   
    344. D(Au  1,Cr 16,Au 10,Au  9)      4.8738         0.001508   
    345. D(Au  1,Cr 16,Au 10,Au  8)    -58.2326         0.001508   
    346. D(Au 11,Cr 16,Au  7,Au 13)   -103.2103         0.001508   
    347. D(Au 10,Cr 16,Au  7,Au 13)    -34.9623         0.001508   
    348. D(Au  6,Cr 16,Au  7,Au 13)   -140.1705         0.001508   
    349. D(Au  3,Cr 16,Au  7,Au 13)     34.9400         0.001508   
    350. D(Au  2,Cr 16,Au  7,Au 13)    103.1870         0.001508   
    351. D(Au  1,Cr 16,Au  7,Au 13)     65.0264         0.001508   
    352. D(Au  0,Cr 16,Au  7,Au 13)    140.1443         0.001508   
    353. D(Au 12,Cr 16,Au  3,Au  9)     -4.8650         0.001508   
    354. D(Au 12,Cr 16,Au  3,Au 14)     58.2437         0.001508   
    355. D(Au 11,Cr 16,Au  3,Au  9)     66.5988         0.001508   
    356. D(Au 11,Cr 16,Au  3,Au 14)    129.7076         0.001508   
    357. D(Au 10,Cr 16,Au  3,Au  9)     35.5442         0.001508   
    358. D(Au  5,Cr 16,Au  7,Au 13)    179.9869         0.001508   
    359. D(Au 10,Cr 16,Au  3,Au 14)     98.6529         0.001508   
    360. D(Au  7,Cr 16,Au  3,Au  9)    -72.0176         0.001508   
    361. D(Au  7,Cr 16,Au  3,Au 14)     -8.9088         0.001508   
    362. D(Au 12,Cr 16,Au  7,Au 13)    -65.0494         0.001508   
    363. D(Au  5,Cr 16,Au  3,Au  9)    143.3936         0.001508   
    364. D(Au  5,Cr 16,Au  3,Au 14)   -153.4976         0.001508   
    365. D(Au  4,Cr 16,Au  3,Au  9)    106.3688         0.001508   
    366. D(Au  2,Cr 16,Au 10,Au  9)    -66.5861         0.001508   
    367. D(Au  4,Cr 16,Au  3,Au 14)    169.4775         0.001508   
    368. D(Au  2,Cr 16,Au  3,Au  9)   -177.1868         0.001508   
    369. D(Au  2,Cr 16,Au  3,Au 14)   -114.0780         0.001508   
    370. D(Au  1,Cr 16,Au  3,Au  9)   -101.5338         0.001508   
    371. D(Au  1,Cr 16,Au  3,Au 14)    -38.4250         0.001508   
    372. D(Au  0,Cr 16,Au  3,Au  9)   -140.6619         0.001508   
    373. D(Au  0,Cr 16,Au  3,Au 14)    -77.5532         0.001508   
    374. D(Au  6,Cr 16,Au 10,Au  9)    140.6650         0.001508   
    375. D(Au 12,Cr 16,Au  1,Au 14)    -65.9067         0.001524   
    376. D(Au 12,Cr 16,Au  1,Au 13)    -11.4823         0.001524   
    377. D(Au 11,Cr 16,Au  1,Au 14)    -36.7369         0.001524   
    378. D(Au 11,Cr 16,Au 10,Au  9)    177.2024         0.001508   
    379. D(Au 11,Cr 16,Au  1,Au 13)     17.6875         0.001524   
    380. D(Au 10,Cr 16,Au  1,Au 14)      0.3288         0.001524   
    381. D(Au 10,Cr 16,Au  1,Au 13)     54.7532         0.001524   
    382. D(Au  0,Cr 16,Au 12,Au  8)    134.4639         0.001524   
    383. D(Au  7,Cr 16,Au  1,Au 14)   -109.7718         0.001524   
    384. D(Au  7,Cr 16,Au  1,Au 13)    -55.3474         0.001524   
    385. D(Au  6,Cr 16,Au  1,Au 14)   -134.4827         0.001524   
    386. D(Au  6,Cr 16,Au  1,Au 13)    -80.0583         0.001524   
    387. D(Au  5,Cr 16,Au  1,Au 14)    146.4648         0.001524   
    388. D(Au  5,Cr 16,Au  1,Au 13)   -159.1108         0.001524   
    389. D(Au  4,Cr 16,Au  1,Au 14)     67.7001         0.001524   
    390. D(Au  4,Cr 16,Au 12,Au  8)    -67.7181         0.001524   
    391. D(Au  4,Cr 16,Au  1,Au 13)    122.1245         0.001524   
    392. D(Au  3,Cr 16,Au  1,Au 14)     40.0935         0.001524   
    393. D(Au  3,Cr 16,Au  1,Au 13)     94.5180         0.001524   
    394. D(Au  6,Cr 16,Au 12,Au  8)    179.1927         0.001524   
    395. D(Au  2,Cr 16,Au  1,Au 14)    108.1638         0.001524   
    396. D(Au  2,Cr 16,Au  1,Au 13)    162.5882         0.001524   
    397. D(Au  0,Cr 16,Au  1,Au 14)   -179.2130         0.001524   
    398. D(Au 10,Cr 16,Au 12,Au  8)    -40.1068         0.001524   
    399. D(Au  0,Cr 16,Au  1,Au 13)   -124.7886         0.001524   
    400. D(Au 11,Cr 16,Au 12,Au  8)   -108.1777         0.001524   
    401. D(Au 11,Cr 16,Au 12,Au 13)   -162.5876         0.001524   
    -----------------------------------------------------------------

Number of atoms                         .... 17
Number of degrees of freedom            .... 401

         *************************************************************
         *                GEOMETRY OPTIMIZATION CYCLE   1            *
         *************************************************************
---------------------------------
CARTESIAN COORDINATES (ANGSTROEM)
---------------------------------
  Au     4.656205    6.286965    8.508659
  Au     7.263761    6.926476    9.525353
  Au     6.908916    4.775316    7.614029
  Au     9.219491    6.338693    7.436170
  Au     7.756442    5.823737    5.076258
  Au     4.900126    5.710048    5.638170
  Au     4.171115    8.430081    6.476236
  Au     5.381121    8.963487    8.953777
  Au     9.223360   10.824914    6.897932
  Au    10.944017    8.538181    7.177814
  Au     8.742659    8.445003    5.438990
  Au     6.151803    8.120976    4.440834
  Au     6.566427   10.007554    6.603218
  Au     7.937931    9.882270    9.313219
  Au     9.906447    7.808185    9.758432
  Au    10.626452   10.489496    9.311687
  Cr     6.557098    7.315296    6.935264

----------------------------
CARTESIAN COORDINATES (A.U.)
----------------------------
  NO LB      ZA    FRAG     MASS         X           Y           Z
   0 Au   19.0000*   0   196.966    8.798952   11.880642   16.079035
   1 Au   19.0000*   0   196.966   13.726519   13.089143   18.000308
   2 Au   19.0000*   0   196.966   13.055960    9.024039   14.388429
   3 Au   19.0000*   0   196.966   17.422312   11.978393   14.052324
   4 Au   19.0000*   0   196.966   14.657551   11.005268    9.592738
   5 Au   19.0000*   0   196.966    9.259895   10.790428   10.654598
   6 Au   19.0000*   0   196.966    7.882265   15.930544   12.238312
   7 Au   19.0000*   0   196.966   10.168845   16.938536   16.920187
   8 Au   19.0000*   0   196.966   17.429624   20.456124   13.035202
   9 Au   19.0000*   0   196.966   20.681194   16.134824   13.564102
  10 Au   19.0000*   0   196.966   16.521231   15.958742   10.278201
  11 Au   19.0000*   0   196.966   11.625223   15.346421    8.391961
  12 Au   19.0000*   0   196.966   12.408748   18.911537   12.478273
  13 Au   19.0000*   0   196.966   15.000515   18.674783   17.599433
  14 Au   19.0000*   0   196.966   18.720471   14.755331   18.440764
  15 Au   19.0000*   0   196.966   20.081085   19.822274   17.596538
  16 Cr   24.0000    0    52.000   12.391120   13.823906   13.105750
* core charge reduced due to ECP

--------------------------------
INTERNAL COORDINATES (ANGSTROEM)
--------------------------------
 Au     0   0   0     0.000000000000     0.00000000     0.00000000
 Au     1   0   0     2.870886686264     0.00000000     0.00000000
 Au     1   2   0     2.856598596130    60.82507301     0.00000000
 Au     3   1   2     2.795448928443   112.07342653   325.84633889
 Au     4   3   1     2.823981806683    61.50835858   260.89257119
 Au     5   4   3     2.913282234736   110.72497392    34.71759525
 Au     6   5   4     2.938092200752   105.19833999    65.70090277
 Au     7   6   5     2.808353616388   108.69761444   292.08818973
 Au     4   3   1     4.518395810072   124.30252245   335.97610729
 Au     4   3   1     2.806864377845   162.16167982   335.86278369
 Au    10   4   3     2.806807145859    63.20124569   316.46455908
 Au    11  10   4     2.795325161803   162.17280721    43.50247448
 Au     9   4   3     2.795393991637    73.82522046   351.88693905
 Au     8   7   6     2.740553828729   125.54594572    84.78356002
 Au     2   1   3     2.795625844016   163.40897202    70.00071623
 Au    14   8   7     2.756242879592   169.67841458   319.17757924
 Cr     6   5   4     2.646664302027    57.11461998    33.84139189

---------------------------
INTERNAL COORDINATES (A.U.)
---------------------------
 Au     0   0   0     0.000000000000     0.00000000     0.00000000
 Au     1   0   0     5.425189598559     0.00000000     0.00000000
 Au     1   2   0     5.398189021230    60.82507301     0.00000000
 Au     3   1   2     5.282632896121   112.07342653   325.84633889
 Au     4   3   1     5.336552221806    61.50835858   260.89257119
 Au     5   4   3     5.505305574469   110.72497392    34.71759525
 Au     6   5   4     5.552189615632   105.19833999    65.70090277
 Au     7   6   5     5.307019222181   108.69761444   292.08818973
 Au     4   3   1     8.538530645693   124.30252245   335.97610729
 Au     4   3   1     5.304204969187   162.16167982   335.86278369
 Au    10   4   3     5.304096816406    63.20124569   316.46455908
 Au    11  10   4     5.282399011067   162.17280721    43.50247448
 Au     9   4   3     5.282529080603    73.82522046   351.88693905
 Au     8   7   6     5.178896191568   125.54594572    84.78356002
 Au     2   1   3     5.282967218103   163.40897202    70.00071623
 Au    14   8   7     5.208544201000   169.67841458   319.17757924
 Cr     6   5   4     5.001470699256    57.11461998    33.84139189

---------------------
BASIS SET INFORMATION
---------------------
There are 2 groups of distinct atoms

 Group   1 Type Au  : 8s7p6d1f contracted to 6s4p3d1f pattern {311111/4111/411/1}
 Group   2 Type Cr  : 17s11p7d1f contracted to 6s4p4d1f pattern {842111/6311/4111/1}

Atom   0Au   basis set group =>   1
Atom   1Au   basis set group =>   1
Atom   2Au   basis set group =>   1
Atom   3Au   basis set group =>   1
Atom   4Au   basis set group =>   1
Atom   5Au   basis set group =>   1
Atom   6Au   basis set group =>   1
Atom   7Au   basis set group =>   1
Atom   8Au   basis set group =>   1
Atom   9Au   basis set group =>   1
Atom  10Au   basis set group =>   1
Atom  11Au   basis set group =>   1
Atom  12Au   basis set group =>   1
Atom  13Au   basis set group =>   1
Atom  14Au   basis set group =>   1
Atom  15Au   basis set group =>   1
Atom  16Cr   basis set group =>   2
---------------------------------
AUXILIARY/J BASIS SET INFORMATION
---------------------------------
There are 2 groups of distinct atoms

 Group   1 Type Au  : 11s5p5d3f3g contracted to 8s5p5d2f3g pattern {41111111/11111/11111/21/111}
 Group   2 Type Cr  : 19s5p5d3f3g contracted to 8s5p5d2f3g pattern {121111111/11111/11111/21/111}

Atom   0Au   basis set group =>   1
Atom   1Au   basis set group =>   1
Atom   2Au   basis set group =>   1
Atom   3Au   basis set group =>   1
Atom   4Au   basis set group =>   1
Atom   5Au   basis set group =>   1
Atom   6Au   basis set group =>   1
Atom   7Au   basis set group =>   1
Atom   8Au   basis set group =>   1
Atom   9Au   basis set group =>   1
Atom  10Au   basis set group =>   1
Atom  11Au   basis set group =>   1
Atom  12Au   basis set group =>   1
Atom  13Au   basis set group =>   1
Atom  14Au   basis set group =>   1
Atom  15Au   basis set group =>   1
Atom  16Cr   basis set group =>   2
-------------------------
ECP PARAMETER INFORMATION
-------------------------

 Group 1, Type Au ECP Def2-ECP (replacing 60 core electrons, lmax=3)

Atom   0Au   ECP group =>   1
Atom   1Au   ECP group =>   1
Atom   2Au   ECP group =>   1
Atom   3Au   ECP group =>   1
Atom   4Au   ECP group =>   1
Atom   5Au   ECP group =>   1
Atom   6Au   ECP group =>   1
Atom   7Au   ECP group =>   1
Atom   8Au   ECP group =>   1
Atom   9Au   ECP group =>   1
Atom  10Au   ECP group =>   1
Atom  11Au   ECP group =>   1
Atom  12Au   ECP group =>   1
Atom  13Au   ECP group =>   1
Atom  14Au   ECP group =>   1
Atom  15Au   ECP group =>   1

------------------------------------------------------------------------------
                           ORCA GTO INTEGRAL CALCULATION
                           -- RI-GTO INTEGRALS CHOSEN --
------------------------------------------------------------------------------
------------------------------------------------------------------------------
                   ___                                                        
                  /   \      - P O W E R E D   B Y -                         
                 /     \                                                     
                 |  |  |   _    _      __       _____    __    __             
                 |  |  |  | |  | |    /  \     |  _  \  |  |  /  |          
                  \  \/   | |  | |   /    \    | | | |  |  | /  /          
                 / \  \   | |__| |  /  /\  \   | |_| |  |  |/  /          
                |  |  |   |  __  | /  /__\  \  |    /   |      \           
                |  |  |   | |  | | |   __   |  |    \   |  |\   \          
                \     /   | |  | | |  |  |  |  | |\  \  |  | \   \       
                 \___/    |_|  |_| |__|  |__|  |_| \__\ |__|  \__/        
                                                                              
                      - O R C A' S   B I G   F R I E N D -                    
                                      &                                       
                       - I N T E G R A L  F E E D E R -                       
                                                                              
 v1 FN, 2020, v2 2021                                                         
------------------------------------------------------------------------------


Reading SHARK input file pbe.SHARKINP.tmp ... ok
----------------------
SHARK INTEGRAL PACKAGE
----------------------

Number of atoms                             ...     17
Number of basis functions                   ...    685
Number of shells                            ...    239
Maximum angular momentum                    ...      3
Integral batch strategy                     ... SHARK/LIBINT Hybrid
RI-J (if used) integral strategy            ... SPLIT-RIJ (Revised 2003 algorithm where possible)
Printlevel                                  ...      1
Contraction scheme used                     ... SEGMENTED contraction
Coulomb Range Separation                    ... NOT USED
Exchange Range Separation                   ... NOT USED
Finite Nucleus Model                        ... NOT USED
Auxiliary Coulomb fitting basis             ... AVAILABLE
   # of basis functions in Aux-J            ...   1513
   # of shells in Aux-J                     ...    391
   Maximum angular momentum in Aux-J        ...      4
Auxiliary J/K fitting basis                 ... NOT available
Auxiliary Correlation fitting basis         ... NOT available
Auxiliary 'external' fitting basis          ... NOT available
Integral threshold                          ...     2.500000e-11
Primitive cut-off                           ...     2.500000e-12
Primitive pair pre-selection threshold      ...     2.500000e-12

Calculating pre-screening integrals         ... done (  0.4 sec) Dimension = 239
Organizing shell pair data                  ... done (  0.4 sec)
Shell pair information
Total number of shell pairs                 ...     28680
Shell pairs after pre-screening             ...     22514
Total number of primitive shell pairs       ...     75765
Primitive shell pairs kept                  ...     42892
          la=0 lb=0:   3531 shell pairs
          la=1 lb=0:   5178 shell pairs
          la=1 lb=1:   1916 shell pairs
          la=2 lb=0:   4479 shell pairs
          la=2 lb=1:   3147 shell pairs
          la=2 lb=2:   1295 shell pairs
          la=3 lb=0:   1175 shell pairs
          la=3 lb=1:    892 shell pairs
          la=3 lb=2:    781 shell pairs
          la=3 lb=3:    120 shell pairs

Calculating one electron integrals          ... done (  0.1 sec)
Calculating ECP integrals                   ... done ( 12.9 sec)
Calculating RI/J V-Matrix + Cholesky decomp.... done (  0.1 sec)
Calculating Nuclear repulsion               ... done (  0.0 sec) ENN=   6922.671020750834 Eh

SHARK setup successfully completed in  14.6 seconds

Maximum memory used throughout the entire GTOINT-calculation: 634.5 MB
-------------------------------------------------------------------------------
                                 ORCA SCF
-------------------------------------------------------------------------------

------------
SCF SETTINGS
------------
Hamiltonian:
 Density Functional     Method          .... DFT(GTOs)
 Exchange Functional    Exchange        .... PBE
   PBE kappa parameter   XKappa         ....  0.804000
   PBE mue parameter    XMuePBE         ....  0.219520
 Correlation Functional Correlation     .... PBE
   PBE beta parameter  CBetaPBE         ....  0.066725
 LDA part of GGA corr.  LDAOpt          .... PW91-LDA
 Gradients option       PostSCFGGA      .... off
   Density functional embedding theory  .... OFF
   NL short-range parameter             ....  6.400000
 RI-approximation to the Coulomb term is turned on
   Number of AuxJ basis functions       .... 1513


General Settings:
 Integral files         IntName         .... pbe
 Hartree-Fock type      HFTyp           .... UHF
 Total Charge           Charge          ....    0
 Multiplicity           Mult            ....    3
 Number of Electrons    NEL             ....  328
 Basis Dimension        Dim             ....  685
 Nuclear Repulsion      ENuc            ....   6922.6710207508 Eh

Convergence Acceleration:
 DIIS                   CNVDIIS         .... off
 Trust-Rad. Augm. Hess. CNVTRAH         .... auto
   Auto Start mean grad. ratio tolernc. ....  1.125000
   Auto Start start iteration           ....    20
   Auto Start num. interpolation iter.  ....    10
   Max. Number of Micro iterations      ....    16
   Max. Number of Macro iterations      .... Maxiter - #DIIS iter
   Number of Davidson start vectors     ....     2
   Converg. threshold I  (grad. norm)   ....   1.000e-05
   Converg. threshold II (energy diff.) ....   1.000e-08
   Grad. Scal. Fac. for Micro threshold ....   0.100
   Minimum threshold for Micro iter.    ....   0.010
   NR start threshold (gradient norm)   ....   0.001
   Initial trust radius                 ....   0.400
   Minimum AH scaling param. (alpha)    ....   1.000
   Maximum AH scaling param. (alpha)    .... 1000.000
   Orbital update algorithm             .... Taylor
   White noise on init. David. guess    .... on
   Maximum white noise                  ....   0.010
   Quad. conv. algorithm                .... NR
 SOSCF                  CNVSOSCF        .... off
 Level Shifting         CNVShift        .... off
 Zerner damping         CNVZerner       .... off
 Static damping         CNVDamp         .... off
 Fernandez-Rico         CNVRico         .... off

SCF Procedure:
 Maximum # iterations   MaxIter         ....   125
 SCF integral mode      SCFMode         .... Direct
   Integral package                     .... SHARK and LIBINT hybrid scheme
 Reset frequency        DirectResetFreq ....    20
 Integral Threshold     Thresh          ....  2.500e-11 Eh
 Primitive CutOff       TCut            ....  2.500e-12 Eh

Convergence Tolerance:
 Convergence Check Mode ConvCheckMode   .... Total+1el-Energy
 Convergence forced     ConvForced      .... 0
 Energy Change          TolE            ....  1.000e-08 Eh
 1-El. energy change                    ....  1.000e-05 Eh


Diagonalization of the overlap matrix:
Smallest eigenvalue                        ... 5.041e-05
Time for diagonalization                   ...    0.066 sec
Threshold for overlap eigenvalues          ... 1.000e-08
Number of eigenvalues below threshold      ... 0
Time for construction of square roots      ...    0.033 sec
Total time needed                          ...    0.100 sec

Time for model grid setup =    1.560 sec

------------------------------
INITIAL GUESS: MODEL POTENTIAL
------------------------------
Loading Hartree-Fock densities                     ... done
  calling /media/Programs/ORCA501/orca pbe_atom79.inp > pbe_atom79.out in order to generate an atomic fitting density for atom 0 (Au with ECP) on-the-fly... 
    atom 0 (Au), assumed electronic state with S=2: 1s2 2s2 2p6 3s2 3p6 4s2 3d10 4p6 5s2 4d10 5p6 6s1 4f14 5d10           ... done
Calculating cut-offs                               ... done
Initializing the effective Hamiltonian             ... done
Setting up the integral package (SHARK)            ... done
Starting the Coulomb interaction                   ... done (   3.2 sec)
Reading the grid                                   ... done
Mapping shells                                     ... done
Starting the XC term evaluation                    ... done (   3.1 sec)
  promolecular density results
     # of electrons  =   1288.015294495
     EX              =  -5900.418628104
     EC              =    -78.554389454
     EX+EC           =  -5978.973017558
Transforming the Hamiltonian                       ... done (   0.0 sec)
Diagonalizing the Hamiltonian                      ... done (   0.1 sec)
Back transforming the eigenvectors                 ... done (   0.0 sec)
Now organizing SCF variables                       ... done
                      ------------------
                      INITIAL GUESS DONE (   8.5 sec)
                      ------------------
-------------------
DFT GRID GENERATION
-------------------

General Integration Accuracy     IntAcc      ... 4.388
Radial Grid Type                 RadialGrid  ... OptM3 with GC (2021)
Angular Grid (max. ang.)         AngularGrid ... 4 (Lebedev-302)
Angular grid pruning method      GridPruning ... 4 (adaptive)
Weight generation scheme         WeightScheme... Becke
Basis function cutoff            BFCut       ... 1.0000e-11
Integration weight cutoff        WCut        ... 1.0000e-14
Angular grids for H and He will be reduced by one unit
Partially contracted basis set               ... off
Rotationally invariant grid construction     ... off

Total number of grid points                  ...   186959
Total number of batches                      ...     2930
Average number of points per batch           ...       63
Average number of grid points per atom       ...    10998
Time for grid setup =    3.544 sec

--------------
SCF ITERATIONS
--------------
ITER       Energy         Delta-E        Max-DP      RMS-DP      [F,P]   Gradient Norm
               ***  Starting incremental Fock matrix formation  ***
                             ****Resetting KDIIS****
                             ****Turning on KDIIS(Cayley)****
  0  -3215.1744790463   0.000000000000 0.55140790  0.00221512  0.4218572   0.222801098
  1  -3216.4949041215  -1.320425075135 1.77637150  0.00343591  0.3772649   0.168644570
  2  -3217.0649641814  -0.570060059943 0.19833045  0.00134540  0.2979365   0.125715031
  3  -3217.3197417298  -0.254777548381 0.17308431  0.00171359  0.1733546   0.074261614
  4  -3217.3669981364  -0.047256406551 0.04218917  0.00058688  0.0590786   0.027207605
  5  -3217.4390739869  -0.072075850507 0.64863000  0.00132233  0.0335140   0.007387094
  6  -3217.4539968970  -0.014922910168 0.47963068  0.00097933  0.0395455   0.009610888
  7  -3217.4662496169  -0.012252719884 0.27963161  0.00056325  0.0293578   0.009130652
  8  -3217.4700402303  -0.003790613395 0.22090705  0.00044889  0.0101069   0.007674069
  9  -3217.4780112015  -0.007970971204 0.02888652  0.00016885  0.0063124   0.004438212
 10  -3217.4801054870  -0.002094285472 0.02282955  0.00011110  0.0073981   0.002748679
 11  -3217.4816020938  -0.001496606795 0.10999107  0.00016201  0.0134573   0.002347690
 12  -3217.4827800228  -0.001177928988 0.03456250  0.00008502  0.0061492   0.001798386
 13  -3217.4840636049  -0.001283582090 0.14911024  0.00022050  0.0072703   0.001114074
 14  -3217.4862647548  -0.002201149915 0.04314575  0.00009176  0.0094961   0.001608363
 15  -3217.4871511453  -0.000886390486 0.12800148  0.00019507  0.0072970   0.001426452
 16  -3217.4889908111  -0.001839665828 0.04349443  0.00008719  0.0066131   0.001485305
 17  -3217.4893351188  -0.000344307689 0.08790075  0.00018411  0.0071129   0.001538233
 18  -3217.4911971105  -0.001861991727 0.01939085  0.00007275  0.0085360   0.001833702
 19  -3217.4907999567   0.000397153797 0.05618093  0.00013258  0.0059352   0.001267682
               *** Restarting incremental Fock matrix formation ***
                             ****Resetting KDIIS****

 WARNING: the maximum gradient error descreased on average only by a factor   1.0
          during the last 20 iterations

                      *** Initiating the TRAH-SCF procedure ***

                    *** KDIIS BlockDiag ( 0.137 sec) ***

TRAH GRID
---------

General Integration Accuracy     IntAcc      ... 3.467
Radial Grid Type                 RadialGrid  ... OptM3 with GC (2021)
Angular Grid (max. ang.)         AngularGrid ... 1 (Lebedev-50)
Angular grid pruning method      GridPruning ... 4 (adaptive)
Weight generation scheme         WeightScheme... Becke
Basis function cutoff            BFCut       ... 1.0000e-11
Integration weight cutoff        WCut        ... 1.0000e-14
Angular grids for H and He will be reduced by one unit
Partially contracted basis set               ... off
Rotationally invariant grid construction     ... off

Total number of grid points                  ...    80595
Total number of batches                      ...     1268
Average number of points per batch           ...       63
Average number of grid points per atom       ...     4741

 --------------------------------------------------------------------------------------------
   Iter.        energy            ||Error||_2        Shift      TRadius  Mac/Mic        Rej.
 --------------------------------------------------------------------------------------------
    0      -3217.492013081539     2.578171e-02                     0.400 (TRAH MAcro)   No
WARNING : small    HOMO - LUMO gap : (op = alpha) 0.016291
    0     dE    -1.538790e-04     4.330360e-02    -1.5387e-04      0.006 (TRAH MIcro)
    0     dE    -1.002265e-03     4.709586e-02    -9.9598e-04      0.079 (TRAH MIcro)
    0     dE    -4.051815e-03     4.831593e-02    -3.6505e-03      0.332 (TRAH MIcro)
    0     dE    -4.898693e-03     2.055018e-02    -4.2361e-03      0.396 (TRAH MIcro)
    0     dE    -5.193331e-03     1.644114e-02    -5.8290e-03      0.400 (TRAH MIcro)
    0     dE    -5.318826e-03     1.149016e-02    -6.5015e-03      0.400 (TRAH MIcro)
    0     dE    -5.350711e-03     3.170823e-03    -6.5967e-03      0.400 (TRAH MIcro)
    0     dE    -5.354450e-03     1.127804e-03    -6.5924e-03      0.400 (TRAH MIcro)
    1      -3217.494887201896     3.774236e-02                     0.400 (TRAH MAcro)   No
WARNING : small    HOMO - LUMO gap : (op = alpha) 0.011295
    1     dE    -3.344367e-04     2.355266e-02    -3.3441e-04      0.009 (TRAH MIcro)
    1     dE    -5.505055e-04     8.262722e-03    -5.5009e-04      0.028 (TRAH MIcro)
    1     dE    -7.647378e-04     1.093897e-02    -7.6209e-04      0.059 (TRAH MIcro)
    1     dE    -8.362446e-04     5.192504e-03    -8.3185e-04      0.073 (TRAH MIcro)
    1     dE    -8.485053e-04     1.997049e-03    -8.4371e-04      0.075 (TRAH MIcro)
    2      -3217.495778976802     2.627523e-03                     0.480 (TRAH MAcro)   No
WARNING : small    HOMO - LUMO gap : (op = alpha) 0.016615
    2     dE    -6.813780e-07     7.097707e-03    -6.8138e-07      0.000 (TRAH MIcro)
    2     dE    -1.601918e-05     4.327148e-03    -1.6017e-05      0.013 (TRAH MIcro)
    2     dE    -1.985977e-05     2.783751e-03    -1.9855e-05      0.016 (TRAH MIcro)
    2     dE    -2.307954e-05     1.663947e-03    -2.3071e-05      0.019 (TRAH MIcro)
    2     dE    -2.400339e-05     7.862064e-04    -2.3994e-05      0.019 (TRAH MIcro)
    2     dE    -2.457927e-05     4.681440e-04    -2.4569e-05      0.020 (TRAH MIcro)
    2     dE    -2.469341e-05     2.465971e-04    -2.4683e-05      0.020 (TRAH MIcro)
    3      -3217.495803884311     2.707411e-04                           (NR   MAcro)
WARNING : small    HOMO - LUMO gap : (op = alpha) 0.016582
    3     dE    -1.704294e-08     2.220006e-04                           (NR   MIcro)
    3     dE    -4.354525e-08     1.240224e-04                           (NR   MIcro)
    3     dE    -5.699542e-08     7.362041e-05                           (NR   MIcro)
    3     dE    -5.999830e-08     5.567228e-05                           (NR   MIcro)
    3     dE    -6.199434e-08     3.008739e-05                           (NR   MIcro)
    3     dE    -6.242910e-08     1.224808e-05                           (NR   MIcro)
    3     dE    -6.258543e-08     6.966697e-06                           (NR   MIcro)
    3     dE    -6.261304e-08     3.368225e-06                           (NR   MIcro)
    3     dE    -6.261804e-08     1.457349e-06                           (NR   MIcro)
    3     dE    -6.261889e-08     5.710783e-07                           (NR   MIcro)
    4      -3217.495803946942     6.158769e-07                           (NR   MAcro)
WARNING : small    HOMO - LUMO gap : (op = alpha) 0.016589
    4     dE    -1.042355e-13     4.262629e-07                           (NR   MIcro)
    5      -3217.495803946947     4.262674e-07                           (NR   MAcro)
WARNING : small    HOMO - LUMO gap : (op = alpha) 0.016589

               *****************************************************
               *                     SUCCESS                       *
               *           SCF CONVERGED AFTER  57 CYCLES          *
               *****************************************************


----------------
TOTAL SCF ENERGY
----------------

Total Energy       :        -3217.49580395 Eh          -87552.51191 eV

Components:
Nuclear Repulsion  :         6922.67102075 Eh          188375.45530 eV
Electronic Energy  :       -10140.16682470 Eh         -275927.96721 eV
One Electron Energy:       -19087.48079079 Eh         -519396.75794 eV
Two Electron Energy:         8947.31396609 Eh          243468.79073 eV

Virial components:
Potential Energy   :        -4992.78231912 Eh         -135860.51392 eV
Kinetic Energy     :         1775.28651518 Eh           48308.00201 eV
Virial Ratio       :            2.81238114


DFT components:
N(Alpha)           :      164.999942323563 electrons
N(Beta)            :      162.999941386835 electrons
N(Total)           :      327.999883710397 electrons
E(X)               :     -240.251568733863 Eh       
E(C)               :      -14.316840584795 Eh       
E(XC)              :     -254.568409318658 Eh       
DFET-embed. en.    :        0.000000000000 Eh       

---------------
SCF CONVERGENCE
---------------

  Last Energy change         ...   -5.0022e-12  Tolerance :   1.0000e-08
  Last Orbital Gradient      ...    4.2627e-07  Tolerance :   1.0000e-05
  Last Orbital Rotation      ...    4.6777e-07

             **** THE GBW FILE WAS UPDATED (pbe.gbw) ****
             **** DENSITY pbe.scfp WAS UPDATED ****
             **** ENERGY FILE WAS UPDATED (pbe.en.tmp) ****
----------------------
UHF SPIN CONTAMINATION
----------------------

Warning: in a DFT calculation there is little theoretical justification to 
         calculate <S**2> as in Hartree-Fock theory. We will do it anyways
         but you should keep in mind that the values have only limited relevance

Expectation value of <S**2>     :     3.277424
Ideal value S*(S+1) for S=1.0   :     2.000000
Deviation                       :     1.277424

             **** THE GBW FILE WAS UPDATED (pbe.gbw) ****
             **** DENSITY pbe.scfp WAS UPDATED ****
----------------
ORBITAL ENERGIES
----------------
                 SPIN UP ORBITALS
  NO   OCC          E(Eh)            E(eV) 
   0   1.0000    -214.505114     -5836.9809 
   1   1.0000     -24.306693      -661.4187 
   2   1.0000     -20.672445      -562.5258 
   3   1.0000     -20.672053      -562.5152 
   4   1.0000     -20.666428      -562.3621 
   5   1.0000      -4.034532      -109.7852 
   6   1.0000      -4.034529      -109.7851 
   7   1.0000      -4.032912      -109.7411 
   8   1.0000      -4.032744      -109.7365 
   9   1.0000      -4.031648      -109.7067 
  10   1.0000      -4.031644      -109.7066 
  11   1.0000      -4.031014      -109.6895 
  12   1.0000      -4.030962      -109.6880 
  13   1.0000      -4.029707      -109.6539 
  14   1.0000      -4.029667      -109.6528 
  15   1.0000      -4.022017      -109.4446 
  16   1.0000      -4.017526      -109.3224 
  17   1.0000      -4.016389      -109.2915 
  18   1.0000      -4.016380      -109.2913 
  19   1.0000      -4.014461      -109.2390 
  20   1.0000      -4.012275      -109.1796 
  21   1.0000      -2.806326       -76.3640 
  22   1.0000      -2.250999       -61.2528 
  23   1.0000      -2.250962       -61.2518 
  24   1.0000      -2.250027       -61.2263 
  25   1.0000      -2.248944       -61.1969 
  26   1.0000      -2.248321       -61.1799 
  27   1.0000      -2.248146       -61.1752 
  28   1.0000      -2.247307       -61.1523 
  29   1.0000      -2.247138       -61.1477 
  30   1.0000      -2.246872       -61.1405 
  31   1.0000      -2.246794       -61.1384 
  32   1.0000      -2.246587       -61.1327 
  33   1.0000      -2.245632       -61.1067 
  34   1.0000      -2.245571       -61.1051 
  35   1.0000      -2.245362       -61.0994 
  36   1.0000      -2.244605       -61.0788 
  37   1.0000      -2.244231       -61.0686 
  38   1.0000      -2.243934       -61.0606 
  39   1.0000      -2.243860       -61.0585 
  40   1.0000      -2.243478       -61.0481 
  41   1.0000      -2.242843       -61.0309 
  42   1.0000      -2.242668       -61.0261 
  43   1.0000      -2.241797       -61.0024 
  44   1.0000      -2.241607       -60.9972 
  45   1.0000      -2.241390       -60.9913 
  46   1.0000      -2.241339       -60.9899 
  47   1.0000      -2.241197       -60.9861 
  48   1.0000      -2.240837       -60.9763 
  49   1.0000      -2.240819       -60.9758 
  50   1.0000      -2.240694       -60.9724 
  51   1.0000      -2.239854       -60.9495 
  52   1.0000      -2.238448       -60.9113 
  53   1.0000      -2.235561       -60.8327 
  54   1.0000      -2.233032       -60.7639 
  55   1.0000      -2.232851       -60.7590 
  56   1.0000      -2.232249       -60.7426 
  57   1.0000      -2.232149       -60.7399 
  58   1.0000      -2.230710       -60.7007 
  59   1.0000      -2.229658       -60.6721 
  60   1.0000      -2.229423       -60.6657 
  61   1.0000      -2.229263       -60.6613 
  62   1.0000      -2.228157       -60.6312 
  63   1.0000      -2.227490       -60.6131 
  64   1.0000      -2.226601       -60.5889 
  65   1.0000      -2.225682       -60.5639 
  66   1.0000      -2.225049       -60.5467 
  67   1.0000      -2.224464       -60.5307 
  68   1.0000      -2.224383       -60.5285 
  69   1.0000      -2.223411       -60.5021 
  70   1.0000      -1.798565       -48.9414 
  71   1.0000      -1.798219       -48.9320 
  72   1.0000      -1.791087       -48.7379 
  73   1.0000      -0.435127       -11.8404 
  74   1.0000      -0.389473       -10.5981 
  75   1.0000      -0.387762       -10.5515 
  76   1.0000      -0.387645       -10.5484 
  77   1.0000      -0.380441       -10.3523 
  78   1.0000      -0.374784       -10.1984 
  79   1.0000      -0.372072       -10.1246 
  80   1.0000      -0.365885        -9.9562 
  81   1.0000      -0.365444        -9.9442 
  82   1.0000      -0.362263        -9.8577 
  83   1.0000      -0.357370        -9.7245 
  84   1.0000      -0.357260        -9.7215 
  85   1.0000      -0.355484        -9.6732 
  86   1.0000      -0.353609        -9.6222 
  87   1.0000      -0.349424        -9.5083 
  88   1.0000      -0.349132        -9.5004 
  89   1.0000      -0.345562        -9.4032 
  90   1.0000      -0.344696        -9.3797 
  91   1.0000      -0.343896        -9.3579 
  92   1.0000      -0.340820        -9.2742 
  93   1.0000      -0.340719        -9.2714 
  94   1.0000      -0.337080        -9.1724 
  95   1.0000      -0.333182        -9.0663 
  96   1.0000      -0.332605        -9.0506 
  97   1.0000      -0.331454        -9.0193 
  98   1.0000      -0.328277        -8.9329 
  99   1.0000      -0.325760        -8.8644 
 100   1.0000      -0.325340        -8.8530 
 101   1.0000      -0.324317        -8.8251 
 102   1.0000      -0.323337        -8.7984 
 103   1.0000      -0.320855        -8.7309 
 104   1.0000      -0.320176        -8.7124 
 105   1.0000      -0.315621        -8.5885 
 106   1.0000      -0.314800        -8.5661 
 107   1.0000      -0.309911        -8.4331 
 108   1.0000      -0.309224        -8.4144 
 109   1.0000      -0.307412        -8.3651 
 110   1.0000      -0.304945        -8.2980 
 111   1.0000      -0.303021        -8.2456 
 112   1.0000      -0.300443        -8.1755 
 113   1.0000      -0.298436        -8.1209 
 114   1.0000      -0.294836        -8.0229 
 115   1.0000      -0.293576        -7.9886 
 116   1.0000      -0.292033        -7.9466 
 117   1.0000      -0.290110        -7.8943 
 118   1.0000      -0.288668        -7.8551 
 119   1.0000      -0.287199        -7.8151 
 120   1.0000      -0.286356        -7.7921 
 121   1.0000      -0.285349        -7.7647 
 122   1.0000      -0.279231        -7.5983 
 123   1.0000      -0.279042        -7.5931 
 124   1.0000      -0.278721        -7.5844 
 125   1.0000      -0.277442        -7.5496 
 126   1.0000      -0.275291        -7.4910 
 127   1.0000      -0.274511        -7.4698 
 128   1.0000      -0.273278        -7.4363 
 129   1.0000      -0.272080        -7.4037 
 130   1.0000      -0.271355        -7.3840 
 131   1.0000      -0.267817        -7.2877 
 132   1.0000      -0.267306        -7.2738 
 133   1.0000      -0.266670        -7.2565 
 134   1.0000      -0.265438        -7.2229 
 135   1.0000      -0.264690        -7.2026 
 136   1.0000      -0.262858        -7.1527 
 137   1.0000      -0.261048        -7.1035 
 138   1.0000      -0.259983        -7.0745 
 139   1.0000      -0.258867        -7.0441 
 140   1.0000      -0.257754        -7.0138 
 141   1.0000      -0.255572        -6.9545 
 142   1.0000      -0.255531        -6.9533 
 143   1.0000      -0.255267        -6.9462 
 144   1.0000      -0.253670        -6.9027 
 145   1.0000      -0.253506        -6.8983 
 146   1.0000      -0.251270        -6.8374 
 147   1.0000      -0.249386        -6.7861 
 148   1.0000      -0.248331        -6.7574 
 149   1.0000      -0.245397        -6.6776 
 150   1.0000      -0.244347        -6.6490 
 151   1.0000      -0.243921        -6.6374 
 152   1.0000      -0.241217        -6.5638 
 153   1.0000      -0.240940        -6.5563 
 154   1.0000      -0.240302        -6.5390 
 155   1.0000      -0.236380        -6.4322 
 156   1.0000      -0.234772        -6.3885 
 157   1.0000      -0.229202        -6.2369 
 158   1.0000      -0.219992        -5.9863 
 159   1.0000      -0.218478        -5.9451 
 160   1.0000      -0.216347        -5.8871 
 161   1.0000      -0.215749        -5.8708 
 162   1.0000      -0.204585        -5.5670 
 163   1.0000      -0.198758        -5.4085 
 164   1.0000      -0.197880        -5.3846 
 165   0.0000      -0.181291        -4.9332 
 166   0.0000      -0.176338        -4.7984 
 167   0.0000      -0.164560        -4.4779 
 168   0.0000      -0.141861        -3.8602 
 169   0.0000      -0.139704        -3.8016 
 170   0.0000      -0.133401        -3.6300 
 171   0.0000      -0.125123        -3.4048 
 172   0.0000      -0.121074        -3.2946 
 173   0.0000      -0.103074        -2.8048 
 174   0.0000      -0.096217        -2.6182 
 175   0.0000      -0.071172        -1.9367 
 176   0.0000      -0.068404        -1.8614 
 177   0.0000      -0.060096        -1.6353 
 178   0.0000      -0.058167        -1.5828 
 179   0.0000      -0.050624        -1.3776 
 180   0.0000      -0.045959        -1.2506 
 181   0.0000      -0.038727        -1.0538 
 182   0.0000      -0.033176        -0.9028 
 183   0.0000      -0.024376        -0.6633 
 184   0.0000      -0.019797        -0.5387 
 185   0.0000      -0.017161        -0.4670 
 186   0.0000      -0.010325        -0.2810 
 187   0.0000      -0.000427        -0.0116 
 188   0.0000       0.009297         0.2530 
 189   0.0000       0.021069         0.5733 
 190   0.0000       0.030122         0.8197 
 191   0.0000       0.042356         1.1526 
 192   0.0000       0.043053         1.1715 
 193   0.0000       0.043974         1.1966 
 194   0.0000       0.045254         1.2314 
 195   0.0000       0.049902         1.3579 
 196   0.0000       0.057255         1.5580 
 197   0.0000       0.059753         1.6260 
 198   0.0000       0.062842         1.7100 
 199   0.0000       0.064365         1.7515 
 200   0.0000       0.067999         1.8504 
 201   0.0000       0.070091         1.9073 
 202   0.0000       0.073204         1.9920 
 203   0.0000       0.075816         2.0631 
 204   0.0000       0.077380         2.1056 
 205   0.0000       0.082815         2.2535 
 206   0.0000       0.084467         2.2985 
 207   0.0000       0.084689         2.3045 
 208   0.0000       0.085992         2.3400 
 209   0.0000       0.095343         2.5944 
 210   0.0000       0.102691         2.7944 
 211   0.0000       0.106185         2.8895 
 212   0.0000       0.111225         3.0266 
 213   0.0000       0.120068         3.2672 
 214   0.0000       0.120651         3.2831 
 215   0.0000       0.129093         3.5128 
 216   0.0000       0.132048         3.5932 
 217   0.0000       0.132431         3.6036 
 218   0.0000       0.136371         3.7109 
 219   0.0000       0.136720         3.7204 
 220   0.0000       0.138069         3.7570 
 221   0.0000       0.141708         3.8561 
 222   0.0000       0.149451         4.0668 
 223   0.0000       0.154733         4.2105 
 224   0.0000       0.157129         4.2757 
 225   0.0000       0.161632         4.3982 
 226   0.0000       0.163052         4.4369 
 227   0.0000       0.165686         4.5085 
 228   0.0000       0.171586         4.6691 
 229   0.0000       0.180889         4.9222 
 230   0.0000       0.180944         4.9237 
 231   0.0000       0.188233         5.1221 
 232   0.0000       0.189314         5.1515 
 233   0.0000       0.198422         5.3993 
 234   0.0000       0.198581         5.4037 
 235   0.0000       0.205053         5.5798 
 236   0.0000       0.207764         5.6536 
 237   0.0000       0.210636         5.7317 
 238   0.0000       0.214933         5.8486 
 239   0.0000       0.218125         5.9355 
 240   0.0000       0.221476         6.0267 
 241   0.0000       0.225053         6.1240 
 242   0.0000       0.230092         6.2611 
 243   0.0000       0.233762         6.3610 
 244   0.0000       0.240074         6.5327 
 245   0.0000       0.242366         6.5951 
 246   0.0000       0.246551         6.7090 
 247   0.0000       0.247997         6.7483 
 248   0.0000       0.252344         6.8666 
 249   0.0000       0.264075         7.1858 
 250   0.0000       0.264382         7.1942 
 251   0.0000       0.272055         7.4030 
 252   0.0000       0.272755         7.4220 
 253   0.0000       0.279621         7.6089 
 254   0.0000       0.282468         7.6863 
 255   0.0000       0.286372         7.7926 
 256   0.0000       0.289665         7.8822 
 257   0.0000       0.294721         8.0198 
 258   0.0000       0.296983         8.0813 
 259   0.0000       0.301549         8.2056 
 260   0.0000       0.308454         8.3935 
 261   0.0000       0.317034         8.6269 
 262   0.0000       0.318315         8.6618 
 263   0.0000       0.322031         8.7629 
 264   0.0000       0.322939         8.7876 
 265   0.0000       0.325266         8.8509 
 266   0.0000       0.331931         9.0323 
 267   0.0000       0.337667         9.1884 
 268   0.0000       0.339974         9.2512 
 269   0.0000       0.346818         9.4374 
 270   0.0000       0.346993         9.4422 
 271   0.0000       0.353974         9.6321 
 272   0.0000       0.354058         9.6344 
 273   0.0000       0.363371         9.8878 
 274   0.0000       0.364313         9.9135 
 275   0.0000       0.370415        10.0795 
 276   0.0000       0.373284        10.1576 
 277   0.0000       0.376685        10.2501 
 278   0.0000       0.380114        10.3434 
 279   0.0000       0.387059        10.5324 
 280   0.0000       0.388600        10.5743 
[...]
 300( 0) :     0.475109 a.u.    12.928 eV
 301( 0) :     0.480223 a.u.    13.068 eV
 302( 0) :     0.483035 a.u.    13.144 eV
 303( 0) :     0.486890 a.u.    13.249 eV
 304( 0) :     0.487071 a.u.    13.254 eV
 305( 0) :     0.494807 a.u.    13.464 eV
 306( 0) :     0.496101 a.u.    13.500 eV
 307( 0) :     0.501955 a.u.    13.659 eV
 308( 0) :     0.502381 a.u.    13.670 eV
 309( 0) :     0.507099 a.u.    13.799 eV
 310( 0) :     0.510206 a.u.    13.883 eV
 311( 0) :     0.518016 a.u.    14.096 eV
 312( 0) :     0.519142 a.u.    14.127 eV
 313( 0) :     0.524843 a.u.    14.282 eV
 314( 0) :     0.526913 a.u.    14.338 eV
 315( 0) :     0.528730 a.u.    14.387 eV
 316( 0) :     0.529396 a.u.    14.406 eV
 317( 0) :     0.531174 a.u.    14.454 eV
 318( 0) :     0.535196 a.u.    14.563 eV
 319( 0) :     0.540250 a.u.    14.701 eV
 320( 0) :     0.542282 a.u.    14.756 eV
 321( 0) :     0.545863 a.u.    14.854 eV
 322( 0) :     0.549681 a.u.    14.958 eV
 323( 0) :     0.554420 a.u.    15.087 eV
 324( 0) :     0.561019 a.u.    15.266 eV
 325( 0) :     0.565639 a.u.    15.392 eV
 326( 0) :     0.571737 a.u.    15.558 eV
 327( 0) :     0.576226 a.u.    15.680 eV
 328( 0) :     0.583029 a.u.    15.865 eV
 329( 0) :     0.584430 a.u.    15.903 eV
 330( 0) :     0.604235 a.u.    16.442 eV
 331( 0) :     0.607137 a.u.    16.521 eV
 332( 0) :     0.611854 a.u.    16.649 eV
 333( 0) :     0.660277 a.u.    17.967 eV
 334( 0) :     0.662645 a.u.    18.031 eV
 335( 0) :     0.677470 a.u.    18.435 eV
 336( 0) :     0.684705 a.u.    18.632 eV
 337( 0) :     0.689239 a.u.    18.755 eV
 338( 0) :     0.701371 a.u.    19.085 eV
 339( 0) :     0.703618 a.u.    19.146 eV
 340( 0) :     0.724746 a.u.    19.721 eV
 341( 0) :     0.728319 a.u.    19.819 eV
 342( 0) :     0.738672 a.u.    20.100 eV
 343( 0) :     0.741592 a.u.    20.180 eV
 344( 0) :     0.752996 a.u.    20.490 eV
 345( 0) :     0.753286 a.u.    20.498 eV
 346( 0) :     0.761314 a.u.    20.716 eV
 347( 0) :     0.772826 a.u.    21.030 eV
 348( 0) :     0.777932 a.u.    21.169 eV
 349( 0) :     0.789038 a.u.    21.471 eV
 350( 0) :     0.809762 a.u.    22.035 eV
 351( 0) :     0.814068 a.u.    22.152 eV
 352( 0) :     0.826680 a.u.    22.495 eV
 353( 0) :     0.834670 a.u.    22.713 eV
 354( 0) :     0.843803 a.u.    22.961 eV
 355( 0) :     0.854719 a.u.    23.258 eV
 356( 0) :     0.863016 a.u.    23.484 eV
 357( 0) :     0.863633 a.u.    23.501 eV
 358( 0) :     0.871388 a.u.    23.712 eV
 359( 0) :     0.878012 a.u.    23.892 eV
 360( 0) :     0.886882 a.u.    24.133 eV
 361( 0) :     0.893800 a.u.    24.322 eV
 362( 0) :     0.895484 a.u.    24.367 eV
 363( 0) :     0.900185 a.u.    24.495 eV
 364( 0) :     0.904492 a.u.    24.612 eV
 365( 0) :     0.912257 a.u.    24.824 eV
 366( 0) :     0.921247 a.u.    25.068 eV
 367( 0) :     0.930860 a.u.    25.330 eV
 368( 0) :     0.932131 a.u.    25.365 eV
 369( 0) :     0.978849 a.u.    26.636 eV
 370( 0) :     0.982318 a.u.    26.730 eV
 371( 0) :     0.988143 a.u.    26.889 eV
 372( 0) :     1.013131 a.u.    27.569 eV
 373( 0) :     1.027363 a.u.    27.956 eV
 374( 0) :     1.054814 a.u.    28.703 eV
 375( 0) :     1.093652 a.u.    29.760 eV
 376( 0) :     1.150161 a.u.    31.297 eV
 377( 0) :     1.163641 a.u.    31.664 eV
 378( 0) :     1.167484 a.u.    31.769 eV
 379( 0) :     1.185987 a.u.    32.272 eV
 380( 0) :     1.195051 a.u.    32.519 eV
 381( 0) :     1.203124 a.u.    32.739 eV
 382( 0) :     1.204035 a.u.    32.763 eV
 383( 0) :     1.225296 a.u.    33.342 eV
 384( 0) :     1.242010 a.u.    33.797 eV
 385( 0) :     1.254325 a.u.    34.132 eV
 386( 0) :     1.262797 a.u.    34.362 eV
 387( 0) :     1.270468 a.u.    34.571 eV
 388( 0) :     1.279868 a.u.    34.827 eV
 389( 0) :     1.288324 a.u.    35.057 eV
 390( 0) :     1.293420 a.u.    35.196 eV
 391( 0) :     1.293883 a.u.    35.208 eV
 392( 0) :     1.295480 a.u.    35.252 eV
 393( 0) :     1.309204 a.u.    35.625 eV
 394( 0) :     1.315351 a.u.    35.793 eV
 395( 0) :     1.322438 a.u.    35.985 eV
 396( 0) :     1.324477 a.u.    36.041 eV
 397( 0) :     1.334056 a.u.    36.302 eV
 398( 0) :     1.337020 a.u.    36.382 eV
 399( 0) :     1.340969 a.u.    36.490 eV
 400( 0) :     1.346646 a.u.    36.644 eV
 401( 0) :     1.349976 a.u.    36.735 eV
 402( 0) :     1.364771 a.u.    37.137 eV
 403( 0) :     1.365993 a.u.    37.171 eV
 404( 0) :     1.376518 a.u.    37.457 eV
 405( 0) :     1.380973 a.u.    37.578 eV
 406( 0) :     1.386790 a.u.    37.736 eV
 407( 0) :     1.392636 a.u.    37.896 eV
 408( 0) :     1.397194 a.u.    38.020 eV
 409( 0) :     1.405672 a.u.    38.250 eV
 410( 0) :     1.407041 a.u.    38.288 eV
 411( 0) :     1.408119 a.u.    38.317 eV
 412( 0) :     1.411736 a.u.    38.415 eV
 413( 0) :     1.414610 a.u.    38.493 eV
 414( 0) :     1.415926 a.u.    38.529 eV
 415( 0) :     1.422151 a.u.    38.699 eV
 416( 0) :     1.423145 a.u.    38.726 eV
 417( 0) :     1.424618 a.u.    38.766 eV
 418( 0) :     1.428170 a.u.    38.862 eV
 419( 0) :     1.429073 a.u.    38.887 eV
 420( 0) :     1.432679 a.u.    38.985 eV
 421( 0) :     1.434855 a.u.    39.044 eV
 422( 0) :     1.439104 a.u.    39.160 eV
 423( 0) :     1.440356 a.u.    39.194 eV
 424( 0) :     1.448091 a.u.    39.405 eV
 425( 0) :     1.448608 a.u.    39.419 eV
 426( 0) :     1.450627 a.u.    39.474 eV
 427( 0) :     1.451419 a.u.    39.495 eV
 428( 0) :     1.456329 a.u.    39.629 eV
 429( 0) :     1.456542 a.u.    39.635 eV
 430( 0) :     1.461160 a.u.    39.760 eV
 431( 0) :     1.463705 a.u.    39.829 eV
 432( 0) :     1.465425 a.u.    39.876 eV
 433( 0) :     1.465874 a.u.    39.888 eV
 434( 0) :     1.468317 a.u.    39.955 eV
 435( 0) :     1.471203 a.u.    40.033 eV
 436( 0) :     1.473927 a.u.    40.108 eV
 437( 0) :     1.474571 a.u.    40.125 eV
 438( 0) :     1.476993 a.u.    40.191 eV
 439( 0) :     1.478873 a.u.    40.242 eV
 440( 0) :     1.478947 a.u.    40.244 eV
 441( 0) :     1.481426 a.u.    40.312 eV
 442( 0) :     1.482354 a.u.    40.337 eV
 443( 0) :     1.484879 a.u.    40.406 eV
 444( 0) :     1.485166 a.u.    40.413 eV
 445( 0) :     1.487283 a.u.    40.471 eV
 446( 0) :     1.489578 a.u.    40.533 eV
 447( 0) :     1.490956 a.u.    40.571 eV
 448( 0) :     1.492886 a.u.    40.624 eV
 449( 0) :     1.493454 a.u.    40.639 eV
 450( 0) :     1.494267 a.u.    40.661 eV
 451( 0) :     1.496323 a.u.    40.717 eV
 452( 0) :     1.497533 a.u.    40.750 eV
 453( 0) :     1.498830 a.u.    40.785 eV
 454( 0) :     1.499491 a.u.    40.803 eV
 455( 0) :     1.500831 a.u.    40.840 eV
 456( 0) :     1.501037 a.u.    40.845 eV
 457( 0) :     1.503541 a.u.    40.913 eV
 458( 0) :     1.504567 a.u.    40.941 eV
 459( 0) :     1.506530 a.u.    40.995 eV
 460( 0) :     1.507166 a.u.    41.012 eV
 461( 0) :     1.507752 a.u.    41.028 eV
 462( 0) :     1.511360 a.u.    41.126 eV
 463( 0) :     1.512309 a.u.    41.152 eV
 464( 0) :     1.512579 a.u.    41.159 eV
 465( 0) :     1.513624 a.u.    41.188 eV
 466( 0) :     1.515446 a.u.    41.237 eV
 467( 0) :     1.517145 a.u.    41.284 eV
 468( 0) :     1.517485 a.u.    41.293 eV
 469( 0) :     1.520923 a.u.    41.386 eV
 470( 0) :     1.522143 a.u.    41.420 eV
 471( 0) :     1.524069 a.u.    41.472 eV
 472( 0) :     1.524510 a.u.    41.484 eV
 473( 0) :     1.524971 a.u.    41.497 eV
 474( 0) :     1.529140 a.u.    41.610 eV
 475( 0) :     1.530634 a.u.    41.651 eV
 476( 0) :     1.533585 a.u.    41.731 eV
 477( 0) :     1.534413 a.u.    41.754 eV
 478( 0) :     1.537737 a.u.    41.844 eV
 479( 0) :     1.541743 a.u.    41.953 eV
 480( 0) :     1.542839 a.u.    41.983 eV
 481( 0) :     1.545238 a.u.    42.048 eV
 482( 0) :     1.546975 a.u.    42.095 eV
 483( 0) :     1.551812 a.u.    42.227 eV
 484( 0) :     1.554780 a.u.    42.308 eV
 485( 0) :     1.556077 a.u.    42.343 eV
 486( 0) :     1.558753 a.u.    42.416 eV
 487( 0) :     1.561363 a.u.    42.487 eV
 488( 0) :     1.563010 a.u.    42.532 eV
 489( 0) :     1.566704 a.u.    42.632 eV
 490( 0) :     1.568042 a.u.    42.669 eV
 491( 0) :     1.570404 a.u.    42.733 eV
 492( 0) :     1.572134 a.u.    42.780 eV
 493( 0) :     1.573699 a.u.    42.823 eV
 494( 0) :     1.575916 a.u.    42.883 eV
 495( 0) :     1.577604 a.u.    42.929 eV
 496( 0) :     1.581858 a.u.    43.045 eV
 497( 0) :     1.582667 a.u.    43.067 eV
 498( 0) :     1.583764 a.u.    43.096 eV
 499( 0) :     1.583859 a.u.    43.099 eV
 500( 0) :     1.585745 a.u.    43.150 eV
 501( 0) :     1.587933 a.u.    43.210 eV
 502( 0) :     1.590599 a.u.    43.282 eV
 503( 0) :     1.592523 a.u.    43.335 eV
 504( 0) :     1.592838 a.u.    43.343 eV
 505( 0) :     1.596210 a.u.    43.435 eV
 506( 0) :     1.600339 a.u.    43.547 eV
 507( 0) :     1.600529 a.u.    43.553 eV
 508( 0) :     1.605057 a.u.    43.676 eV
 509( 0) :     1.606491 a.u.    43.715 eV
 510( 0) :     1.610697 a.u.    43.829 eV
 511( 0) :     1.611919 a.u.    43.863 eV
 512( 0) :     1.613572 a.u.    43.908 eV
 513( 0) :     1.614410 a.u.    43.930 eV
 514( 0) :     1.617339 a.u.    44.010 eV
 515( 0) :     1.626756 a.u.    44.266 eV
 516( 0) :     1.626818 a.u.    44.268 eV
 517( 0) :     1.629677 a.u.    44.346 eV
 518( 0) :     1.633146 a.u.    44.440 eV
 519( 0) :     1.634601 a.u.    44.480 eV
 520( 0) :     1.640703 a.u.    44.646 eV
 521( 0) :     1.642064 a.u.    44.683 eV
 522( 0) :     1.650311 a.u.    44.907 eV
 523( 0) :     1.656609 a.u.    45.079 eV
 524( 0) :     1.657676 a.u.    45.108 eV
 525( 0) :     1.664415 a.u.    45.291 eV
 526( 0) :     1.664796 a.u.    45.301 eV
 527( 0) :     1.668186 a.u.    45.394 eV
 528( 0) :     1.673501 a.u.    45.538 eV
 529( 0) :     1.687159 a.u.    45.910 eV
 530( 0) :     1.687666 a.u.    45.924 eV
 531( 0) :     1.692746 a.u.    46.062 eV
 532( 0) :     1.696989 a.u.    46.177 eV
 533( 0) :     1.707594 a.u.    46.466 eV
 534( 0) :     1.713454 a.u.    46.625 eV
 535( 0) :     1.718840 a.u.    46.772 eV
 536( 0) :     1.727964 a.u.    47.020 eV
 537( 0) :     1.729340 a.u.    47.058 eV
 538( 0) :     1.733054 a.u.    47.159 eV
 539( 0) :     1.735421 a.u.    47.223 eV
 540( 0) :     1.738700 a.u.    47.312 eV
 541( 0) :     1.745309 a.u.    47.492 eV
 542( 0) :     1.749983 a.u.    47.619 eV
 543( 0) :     1.756031 a.u.    47.784 eV
 544( 0) :     1.756057 a.u.    47.785 eV
 545( 0) :     1.763073 a.u.    47.976 eV
 546( 0) :     1.766342 a.u.    48.065 eV
 547( 0) :     1.766554 a.u.    48.070 eV
 548( 0) :     1.768752 a.u.    48.130 eV
 549( 0) :     1.770794 a.u.    48.186 eV
 550( 0) :     1.777952 a.u.    48.381 eV
 551( 0) :     1.783303 a.u.    48.526 eV
 552( 0) :     1.783789 a.u.    48.539 eV
 553( 0) :     1.787100 a.u.    48.629 eV
 554( 0) :     1.789771 a.u.    48.702 eV
 555( 0) :     1.799234 a.u.    48.960 eV
 556( 0) :     1.804650 a.u.    49.107 eV
 557( 0) :     1.806170 a.u.    49.148 eV
 558( 0) :     1.818241 a.u.    49.477 eV
 559( 0) :     1.828283 a.u.    49.750 eV
 560( 0) :     1.834631 a.u.    49.923 eV
 561( 0) :     1.849403 a.u.    50.325 eV
 562( 0) :     1.850968 a.u.    50.367 eV
 563( 0) :     1.852994 a.u.    50.423 eV
 564( 0) :     1.875958 a.u.    51.047 eV
 565( 0) :     1.881901 a.u.    51.209 eV
 566( 0) :     1.893378 a.u.    51.521 eV
 567( 0) :     1.914764 a.u.    52.103 eV
 568( 0) :     1.919096 a.u.    52.221 eV
 569( 0) :     1.919762 a.u.    52.239 eV
 570( 0) :     1.933683 a.u.    52.618 eV
 571( 0) :     2.007027 a.u.    54.614 eV
 572( 0) :     2.073799 a.u.    56.431 eV
 573( 0) :     2.191158 a.u.    59.624 eV
 574( 0) :     2.252450 a.u.    61.292 eV
 575( 0) :     2.296801 a.u.    62.499 eV
 576( 0) :     2.298469 a.u.    62.545 eV
 577( 0) :     2.317369 a.u.    63.059 eV
 578( 0) :     2.360489 a.u.    64.232 eV
 579( 0) :     2.377888 a.u.    64.706 eV
 580( 0) :     2.416146 a.u.    65.747 eV
 581( 0) :     2.423175 a.u.    65.938 eV
 582( 0) :     2.424127 a.u.    65.964 eV
 583( 0) :     2.425225 a.u.    65.994 eV
 584( 0) :     2.428110 a.u.    66.072 eV
 585( 0) :     2.429797 a.u.    66.118 eV
 586( 0) :     2.456085 a.u.    66.833 eV
 587( 0) :     2.479145 a.u.    67.461 eV
 588( 0) :     2.496573 a.u.    67.935 eV
 589( 0) :     2.537826 a.u.    69.058 eV
 590( 0) :     2.542600 a.u.    69.188 eV
 591( 0) :     2.561461 a.u.    69.701 eV
 592( 0) :     2.576728 a.u.    70.116 eV
 593( 0) :     2.593362 a.u.    70.569 eV
 594( 0) :     2.598002 a.u.    70.695 eV
 595( 0) :     2.620755 a.u.    71.314 eV
 596( 0) :     2.661401 a.u.    72.420 eV
 597( 0) :     2.855851 a.u.    77.712 eV
 598( 0) :     2.862130 a.u.    77.883 eV
 599( 0) :     2.865100 a.u.    77.963 eV
 600( 0) :     2.868996 a.u.    78.069 eV
 601( 0) :     2.873635 a.u.    78.196 eV
 602( 0) :     2.873856 a.u.    78.202 eV
 603( 0) :     2.885277 a.u.    78.512 eV
 604( 0) :     3.052089 a.u.    83.052 eV
 605( 0) :    23.994734 a.u.   652.930 eV
 606( 0) :    24.016822 a.u.   653.531 eV
 607( 0) :    24.331431 a.u.   662.092 eV
 608( 0) :    24.496436 a.u.   666.582 eV
 609( 0) :    24.593293 a.u.   669.218 eV
 610( 0) :    24.601541 a.u.   669.442 eV
 611( 0) :    24.914244 a.u.   677.951 eV
 612( 0) :    24.969022 a.u.   679.442 eV
 613( 0) :    25.174842 a.u.   685.042 eV
 614( 0) :    25.267390 a.u.   687.561 eV
 615( 0) :    25.286947 a.u.   688.093 eV
 616( 0) :    25.374267 a.u.   690.469 eV
 617( 0) :    25.507293 a.u.   694.089 eV
 618( 0) :    25.639518 a.u.   697.687 eV
 619( 0) :    25.672361 a.u.   698.580 eV
 620( 0) :    25.764415 a.u.   701.085 eV
 621( 0) :    25.800901 a.u.   702.078 eV
 622( 0) :    26.082659 a.u.   709.745 eV
 623( 0) :    26.117114 a.u.   710.683 eV
 624( 0) :    26.124880 a.u.   710.894 eV
 625( 0) :    26.218321 a.u.   713.437 eV
 626( 0) :    26.251480 a.u.   714.339 eV
 627( 0) :    26.396334 a.u.   718.281 eV
 628( 0) :    26.469391 a.u.   720.269 eV
 629( 0) :    26.548088 a.u.   722.410 eV
 630( 0) :    26.634637 a.u.   724.765 eV
 631( 0) :    26.658899 a.u.   725.426 eV
 632( 0) :    26.698661 a.u.   726.507 eV
 633( 0) :    26.956780 a.u.   733.531 eV
 634( 0) :    26.962440 a.u.   733.685 eV
 635( 0) :    27.082385 a.u.   736.949 eV
 636( 0) :    27.093246 a.u.   737.245 eV
 637( 0) :    27.193583 a.u.   739.975 eV
 638( 0) :    27.246043 a.u.   741.403 eV
 639( 0) :    27.361477 a.u.   744.544 eV
 640( 0) :    27.361746 a.u.   744.551 eV
 641( 0) :    27.470880 a.u.   747.521 eV
 642( 0) :    27.768929 a.u.   755.631 eV
 643( 0) :    27.997131 a.u.   761.841 eV
 644( 0) :    28.225778 a.u.   768.062 eV
 645( 0) :    28.340604 a.u.   771.187 eV
 646( 0) :    28.545465 a.u.   776.762 eV
 647( 0) :    28.722984 a.u.   781.592 eV
 648( 0) :    28.744046 a.u.   782.165 eV
 649( 0) :    29.414414 a.u.   800.407 eV
 650( 0) :    29.451419 a.u.   801.414 eV
 651( 0) :    29.598712 a.u.   805.422 eV
 652( 0) :    32.694867 a.u.   889.673 eV
 653( 0) :    43.928859 a.u.  1195.365 eV
 654( 0) :    44.042183 a.u.  1198.449 eV
 655( 0) :    44.075367 a.u.  1199.352 eV
 656( 0) :    44.086041 a.u.  1199.642 eV
 657( 0) :    44.098638 a.u.  1199.985 eV
 658( 0) :    44.122214 a.u.  1200.626 eV
 659( 0) :    44.122745 a.u.  1200.641 eV
 660( 0) :    44.133623 a.u.  1200.937 eV
 661( 0) :    44.148994 a.u.  1201.355 eV
 662( 0) :    44.155883 a.u.  1201.543 eV
 663( 0) :    44.169805 a.u.  1201.922 eV
 664( 0) :    44.190183 a.u.  1202.476 eV
 665( 0) :    44.197545 a.u.  1202.676 eV
 666( 0) :    44.221816 a.u.  1203.337 eV
 667( 0) :    44.259518 a.u.  1204.363 eV
 668( 0) :    44.323680 a.u.  1206.109 eV
 669( 0) :   205.098375 a.u.  5581.011 eV
 670( 0) :   205.143230 a.u.  5582.231 eV
 671( 0) :   205.158435 a.u.  5582.645 eV
 672( 0) :   205.161548 a.u.  5582.730 eV
 673( 0) :   205.174420 a.u.  5583.080 eV
 674( 0) :   205.182017 a.u.  5583.287 eV
 675( 0) :   205.184615 a.u.  5583.357 eV
 676( 0) :   205.186468 a.u.  5583.408 eV
 677( 0) :   205.190302 a.u.  5583.512 eV
 678( 0) :   205.194734 a.u.  5583.633 eV
 679( 0) :   205.198870 a.u.  5583.745 eV
 680( 0) :   205.208942 a.u.  5584.019 eV
 681( 0) :   205.212336 a.u.  5584.112 eV
 682( 0) :   205.222899 a.u.  5584.399 eV
 683( 0) :   205.234808 a.u.  5584.723 eV
 684( 0) :   205.259818 a.u.  5585.404 eV
-------
TIMINGS
-------

Total SCF time: 0 days 0 hours 9 min 2 sec 

Total time                  ....     542.607 sec
Sum of individual times     ....     523.563 sec  ( 96.5%)

Fock matrix formation       ....     512.347 sec  ( 94.4%)
  Split-RI-J                ....     179.174 sec  ( 35.0% of F)
  XC integration            ....     315.313 sec  ( 61.5% of F)
    Basis function eval.    ....      40.453 sec  ( 12.8% of XC)
    Density eval.           ....     140.299 sec  ( 44.5% of XC)
    XC-Functional eval.     ....       6.046 sec  (  1.9% of XC)
    XC-Potential eval.      ....     112.067 sec  ( 35.5% of XC)
Diagonalization             ....       4.240 sec  (  0.8%)
Density matrix formation    ....       0.774 sec  (  0.1%)
Population analysis         ....       1.332 sec  (  0.2%)
Initial guess               ....       0.276 sec  (  0.1%)
Orbital Transformation      ....       1.019 sec  (  0.2%)
Orbital Orthonormalization  ....       0.231 sec  (  0.0%)
DIIS solution               ....       0.000 sec  (  0.0%)
Grid generation             ....       3.571 sec  (  0.7%)

Maximum memory used throughout the entire SCF-calculation: 766.6 MB

-------------------------   --------------------
FINAL SINGLE POINT ENERGY     -3217.503919951541
-------------------------   --------------------

                                *** OPTIMIZATION RUN DONE ***

                            ***************************************
                            *     ORCA property calculations      *
                            ***************************************

                                    ---------------------
                                    Active property flags
                                    ---------------------
   (+) Dipole Moment


------------------------------------------------------------------------------
                       ORCA ELECTRIC PROPERTIES CALCULATION
------------------------------------------------------------------------------

Dipole Moment Calculation                       ... on
Quadrupole Moment Calculation                   ... off
Polarizability Calculation                      ... off
GBWName                                         ... pbe.gbw
Electron density                                ... pbe.scfp
The origin for moment calculation is the CENTER OF MASS  = (14.170086, 15.008923 13.930952)

-------------
DIPOLE MOMENT
-------------
                                X             Y             Z
Electronic contribution:     26.91638      16.03698      10.43027
Nuclear contribution   :    -27.34003     -16.26939     -10.57593
                        -----------------------------------------
Total Dipole Moment    :     -0.42365      -0.23241      -0.14566
                        -----------------------------------------
Magnitude (a.u.)       :      0.50469
Magnitude (Debye)      :      1.28282



--------------------
Rotational spectrum 
--------------------
 
Rotational constants in cm-1:     0.001106     0.000719     0.000694 
Rotational constants in MHz :    33.147803    21.553682    20.807187 

 Dipole components along the rotational axes: 
x,y,z [a.u.] :     0.503860     0.001055    -0.028947 
x,y,z [Debye]:     1.280710     0.002683    -0.073576 

 

Timings for individual modules:

Sum of individual times         ...    20029.153 sec (= 333.819 min)
GTO integral calculation        ...      377.796 sec (=   6.297 min)   1.9 %
SCF iterations                  ...    15994.975 sec (= 266.583 min)  79.9 %
SCF Gradient evaluation         ...     3639.562 sec (=  60.659 min)  18.2 %
Geometry relaxation             ...       16.820 sec (=   0.280 min)   0.1 %
                             ****ORCA TERMINATED NORMALLY****
TOTAL RUN TIME: 0 days 5 hours 33 minutes 52 seconds 914 msec
