
                                 *****************
                                 * O   R   C   A *
                                 *****************

                                            #,                                       
                                            ###                                      
                                            ####                                     
                                            #####                                    
                                            ######                                   
                                           ########,                                 
                                     ,,################,,,,,                         
                               ,,#################################,,                 
                          ,,##########################################,,             
                       ,#########################################, ''#####,          
                    ,#############################################,,   '####,        
                  ,##################################################,,,,####,       
                ,###########''''           ''''###############################       
              ,#####''   ,,,,##########,,,,          '''####'''          '####       
            ,##' ,,,,###########################,,,                        '##       
           ' ,,###''''                  '''############,,,                           
         ,,##''                                '''############,,,,        ,,,,,,###''
      ,#''                                            '''#######################'''  
     '                                                          ''''####''''         
             ,#######,   #######,   ,#######,      ##                                
            ,#'     '#,  ##    ##  ,#'     '#,    #''#        ######   ,####,        
            ##       ##  ##   ,#'  ##            #'  '#       #        #'  '#        
            ##       ##  #######   ##           ,######,      #####,   #    #        
            '#,     ,#'  ##    ##  '#,     ,#' ,#      #,         ##   #,  ,#        
             '#######'   ##     ##  '#######'  #'      '#     #####' # '####'        



                  #######################################################
                  #                        -***-                        #
                  #          Department of theory and spectroscopy      #
                  #    Directorship and core code : Frank Neese         #
                  #        Max Planck Institute fuer Kohlenforschung    #
                  #                Kaiser Wilhelm Platz 1               #
                  #                 D-45470 Muelheim/Ruhr               #
                  #                      Germany                        #
                  #                                                     #
                  #                  All rights reserved                #
                  #                        -***-                        #
                  #######################################################


                         Program Version 5.0.3 -  RELEASE  -


 With contributions from (in alphabetic order):
   Daniel Aravena         : Magnetic Suceptibility
   Michael Atanasov       : Ab Initio Ligand Field Theory (pilot matlab implementation)
   Alexander A. Auer      : GIAO ZORA, VPT2 properties, NMR spectrum
   Ute Becker             : Parallelization
   Giovanni Bistoni       : ED, misc. LED, open-shell LED, HFLD
   Martin Brehm           : Molecular dynamics
   Dmytro Bykov           : SCF Hessian
   Vijay G. Chilkuri      : MRCI spin determinant printing, contributions to CSF-ICE
   Dipayan Datta          : RHF DLPNO-CCSD density
   Achintya Kumar Dutta   : EOM-CC, STEOM-CC
   Dmitry Ganyushin       : Spin-Orbit,Spin-Spin,Magnetic field MRCI
   Miquel Garcia          : C-PCM and meta-GGA Hessian, CC/C-PCM, Gaussian charge scheme
   Yang Guo               : DLPNO-NEVPT2, F12-NEVPT2, CIM, IAO-localization
   Andreas Hansen         : Spin unrestricted coupled pair/coupled cluster methods
   Benjamin Helmich-Paris : MC-RPA, TRAH-SCF, COSX integrals
   Lee Huntington         : MR-EOM, pCC
   Robert Izsak           : Overlap fitted RIJCOSX, COSX-SCS-MP3, EOM
   Marcus Kettner         : VPT2
   Christian Kollmar      : KDIIS, OOCD, Brueckner-CCSD(T), CCSD density, CASPT2, CASPT2-K
   Simone Kossmann        : Meta GGA functionals, TD-DFT gradient, OOMP2, MP2 Hessian
   Martin Krupicka        : Initial AUTO-CI
   Lucas Lang             : DCDCAS
   Marvin Lechner         : AUTO-CI (C++ implementation), FIC-MRCC
   Dagmar Lenk            : GEPOL surface, SMD
   Dimitrios Liakos       : Extrapolation schemes; Compound Job, initial MDCI parallelization
   Dimitrios Manganas     : Further ROCIS development; embedding schemes
   Dimitrios Pantazis     : SARC Basis sets
   Anastasios Papadopoulos: AUTO-CI, single reference methods and gradients
   Taras Petrenko         : DFT Hessian,TD-DFT gradient, ASA, ECA, R-Raman, ABS, FL, XAS/XES, NRVS
   Peter Pinski           : DLPNO-MP2, DLPNO-MP2 Gradient
   Christoph Reimann      : Effective Core Potentials
   Marius Retegan         : Local ZFS, SOC
   Christoph Riplinger    : Optimizer, TS searches, QM/MM, DLPNO-CCSD(T), (RO)-DLPNO pert. Triples
   Tobias Risthaus        : Range-separated hybrids, TD-DFT gradient, RPA, STAB
   Michael Roemelt        : Original ROCIS implementation
   Masaaki Saitow         : Open-shell DLPNO-CCSD energy and density
   Barbara Sandhoefer     : DKH picture change effects
   Avijit Sen             : IP-ROCIS
   Kantharuban Sivalingam : CASSCF convergence, NEVPT2, FIC-MRCI
   Bernardo de Souza      : ESD, SOC TD-DFT
   Georgi Stoychev        : AutoAux, RI-MP2 NMR, DLPNO-MP2 response
   Willem Van den Heuvel  : Paramagnetic NMR
   Boris Wezisla          : Elementary symmetry handling
   Frank Wennmohs         : Technical directorship


 We gratefully acknowledge several colleagues who have allowed us to
 interface, adapt or use parts of their codes:
   Stefan Grimme, W. Hujo, H. Kruse, P. Pracht,  : VdW corrections, initial TS optimization,
                  C. Bannwarth, S. Ehlert          DFT functionals, gCP, sTDA/sTD-DF
   Ed Valeev, F. Pavosevic, A. Kumar             : LibInt (2-el integral package), F12 methods
   Garnet Chan, S. Sharma, J. Yang, R. Olivares  : DMRG
   Ulf Ekstrom                                   : XCFun DFT Library
   Mihaly Kallay                                 : mrcc  (arbitrary order and MRCC methods)
   Jiri Pittner, Ondrej Demel                    : Mk-CCSD
   Frank Weinhold                                : gennbo (NPA and NBO analysis)
   Christopher J. Cramer and Donald G. Truhlar   : smd solvation model
   Lars Goerigk                                  : TD-DFT with DH, B97 family of functionals
   V. Asgeirsson, H. Jonsson                     : NEB implementation
   FAccTs GmbH                                   : IRC, NEB, NEB-TS, DLPNO-Multilevel, CI-OPT
                                                   MM, QMMM, 2- and 3-layer-ONIOM, Crystal-QMMM,
                                                   LR-CPCM, SF, NACMEs, symmetry and pop. for TD-DFT,
                                                   nearIR, NL-DFT gradient (VV10), updates on ESD,
                                                   ML-optimized integration grids
   S Lehtola, MJT Oliveira, MAL Marques          : LibXC Library
   Liviu Ungur et al                             : ANISO software


 Your calculation uses the libint2 library for the computation of 2-el integrals
 For citations please refer to: http://libint.valeyev.net

 Your ORCA version has been built with support for libXC version: 5.1.0
 For citations please refer to: https://tddft.org/programs/libxc/

 This ORCA versions uses:
   CBLAS   interface :  Fast vector & matrix operations
   LAPACKE interface :  Fast linear algebra routines
   SCALAPACK package :  Parallel linear algebra routines
   Shared memory     :  Shared parallel matrices
   BLAS/LAPACK       :  OpenBLAS 0.3.15  USE64BITINT DYNAMIC_ARCH NO_AFFINITY Haswell SINGLE_THREADED
        Core in use  :  Haswell
   Copyright (c) 2011-2014, The OpenBLAS Project




***************************************
The coordinates will be read from file: pbe.xyz
***************************************


================================================================================

cite the ECPs for Au [Def2-ECP] as follows:
Ce-Yb(ecp-28): M. Dolg, H. Stoll, H.Preuss, J. Chem. Phys., 1989, 90, 1730-1734.
Y-Cd(ecp-28), Hf-Hg(ecp-46): D. Andrae,U. Haeussermann, M. Dolg, H. Stoll, H. Preuss, Theor. Chim. Acta, 1990, 77, 123-141.
In-Sb(ecp-28), Tl-Bi(ecp-46): B. Metz, H. Stoll, M. Dolg, J. Chem. Phys., 2000, 113, 2563-2569.
Te-Xe(ecp-28), Po-Rn(ecp-46): K. A. Peterson, D. Figgen, E. Goll, H. Stoll, M. Dolg, J. Chem. Phys., 2003, 119, 11113-11123.
Rb(ecp-28), Cs(ecp-46): T. Leininger, A. Nicklass, W. Kuechle, H. Stoll, M. Dolg, A. Bergner, Chem. Phys. Lett., 1996, 255, 274-280.
Sr(ecp-28), Ba(ecp-46): M. Kaupp, P. V. Schleyer, H. Stoll and H. Preuss, J. Chem. Phys., 1991, 94, 1360-1366.
La(ecp-46): M. Dolg, H. Stoll, A. Savin, H. Preuss, Theor. Chim. Acta, 1989, 75, 173-194.
Lu(ecp-28): X. Cao, M. Dolg, J. Chem. Phys., 2001, 115, 7348-7355.

ECP parameters for Au [Def2-ECP] have been obtained from:
TURBOMOLE (7.0.2)

----- Orbital basis set information -----
Your calculation utilizes the basis: def2-TZVP
   F. Weigend and R. Ahlrichs, Phys. Chem. Chem. Phys. 7, 3297 (2005).

----- AuxJ basis set information -----
Your calculation utilizes the auxiliary basis: def2/J
   F. Weigend, Phys. Chem. Chem. Phys. 8, 1057 (2006).

----- AuxC basis set information -----
Your calculation utilizes the auxiliary basis: def2-TZVP/C
  H-La, Hf-Rn : A. Hellweg, C. Hattig, S. Hofener and W. Klopper, Theor. Chem. Acc. 117, 587 (2007).
        Ce-Lu : J. Chmela and M. E. Harding, Mol. Phys. (2018).

================================================================================
                                        WARNINGS
                       Please study these warnings very carefully!
================================================================================


INFO   : the flag for use of the SHARK integral package has been found!

================================================================================
                                       INPUT FILE
================================================================================
NAME = casscf.inp
|  1> !CASSCF def2-TZVP def2-TZVP/C
|  2> !MOREAD RIJCOSX
|  3> %maxcore 6000
|  4> %moinp "pbe.qro"
|  5> %pal nprocs 2 end 
|  6> 
|  7> %casscf
|  8>  mult 5,3
|  9>  bweight 1,1
| 10>  nroots 5,45
| 11>  nel 6
| 12>  norb 5
| 13> end
| 14> 
| 15> 
| 16> *xyzfile 0 5 pbe.xyz
| 17> 
| 18> 
| 19>                          ****END OF INPUT****
================================================================================

                       ****************************
                       * Single Point Calculation *
                       ****************************

---------------------------------
CARTESIAN COORDINATES (ANGSTROEM)
---------------------------------
  Au     7.722206    9.747631    8.327318
  Au     4.837493    8.971830    8.873584
  Au     7.152397    5.990227    9.613166
  Au     4.735771    6.841996   10.647861
  Au     3.796102    8.012834    6.492862
  Au     6.869665    8.652049   10.737040
  Au     5.576466   10.329929    6.609694
  Au     4.812886    5.902193    8.056915
  Au     5.296595    5.912859    5.316292
  Au     5.709863    8.571842    4.407863
  Au     9.388266    7.617816    6.932962
  Au     8.084259    9.582362    5.541721
  Au     7.938822    6.767410    4.732386
  Au     9.315550    7.918423    9.688873
  Au     7.401721    5.120490    6.952643
  Au     9.631819    5.379527    8.548681
  Fe     6.539907    7.750953    6.935006

----------------------------
CARTESIAN COORDINATES (A.U.)
----------------------------
  NO LB      ZA    FRAG     MASS         X           Y           Z
   0 Au   19.0000*   0   196.966   14.592854   18.420353   15.736350
   1 Au   19.0000*   0   196.966    9.141537   16.954301   16.768643
   2 Au   19.0000*   0   196.966   13.516072   11.319888   18.166251
   3 Au   19.0000*   0   196.966    8.949310   12.929498   20.121541
   4 Au   19.0000*   0   196.966    7.173594   15.142061   12.269731
   5 Au   19.0000*   0   196.966   12.981785   16.350003   20.290065
   6 Au   19.0000*   0   196.966   10.537993   19.520736   12.490512
   7 Au   19.0000*   0   196.966    9.095037   11.153529   15.225363
   8 Au   19.0000*   0   196.966   10.009113   11.173685   10.046336
   9 Au   19.0000*   0   196.966   10.790077   16.198433    8.329654
  10 Au   19.0000*   0   196.966   17.741252   14.395585   13.101399
  11 Au   19.0000*   0   196.966   15.277036   18.108039   10.472335
  12 Au   19.0000*   0   196.966   15.002200   12.788551    8.942913
  13 Au   19.0000*   0   196.966   17.603839   14.963650   18.309316
  14 Au   19.0000*   0   196.966   13.987226    9.676324   13.138591
  15 Au   19.0000*   0   196.966   18.201501   10.165833   16.154666
  16 Fe   26.0000    0    55.850   12.358633   14.647178   13.105263
* core charge reduced due to ECP

--------------------------------
INTERNAL COORDINATES (ANGSTROEM)
--------------------------------
 Au     0   0   0     0.000000000000     0.00000000     0.00000000
 Au     1   0   0     3.036748782273     0.00000000     0.00000000
 Au     2   1   0     3.846520712427    70.17953125     0.00000000
 Au     3   2   1     2.763365417214    46.11309503   149.51556501
 Au     2   1   3     2.769838098849   106.91717598   268.44098864
 Au     2   1   3     2.775689278398    56.95619832    53.04400671
 Au     2   1   3     2.741479557353    57.91597016   225.30036842
 Au     4   3   2     2.757204473186    61.22459571    68.32223769
 Au     8   4   3     2.783002620508   158.27102527   282.88748525
 Au     7   2   1     2.820766607863   110.40070571   101.55297796
 Au     1   2   3     3.042384144278   115.07481568    41.27641384
 Au    11   1   2     2.737777433634    57.97650617    93.50905901
 Au    11   1   2     2.768864966420   107.01286167    49.99672569
 Au     6   2   1     2.760293079119   115.11446713   323.57340026
 Au     9   8   4     2.781555690002    63.32821883    86.95660199
 Au    15   9   8     2.754591550112   157.93891116   272.30503332
 Fe     1   2   3     2.706120301062    59.27158576    61.70450897

---------------------------
INTERNAL COORDINATES (A.U.)
---------------------------
 Au     0   0   0     0.000000000000     0.00000000     0.00000000
 Au     1   0   0     5.738623536015     0.00000000     0.00000000
 Au     2   1   0     7.268870714943    70.17953125     0.00000000
 Au     3   2   1     5.222003846484    46.11309503   149.51556501
 Au     2   1   3     5.234235442126   106.91717598   268.44098864
 Au     2   1   3     5.245292569034    56.95619832    53.04400671
 Au     2   1   3     5.180645565141    57.91597016   225.30036842
 Au     4   3   2     5.210361349544    61.22459571    68.32223769
 Au     8   4   3     5.259112782745   158.27102527   282.88748525
 Au     7   2   1     5.330476376572   110.40070571   101.55297796
 Au     1   2   3     5.749272826869   115.07481568    41.27641384
 Au    11   1   2     5.173649565197    57.97650617    93.50905901
 Au    11   1   2     5.232396488342   107.01286167    49.99672569
 Au     6   2   1     5.216197968892   115.11446713   323.57340026
 Au     9   8   4     5.256378480353    63.32821883    86.95660199
 Au    15   9   8     5.205423640526   157.93891116   272.30503332
 Fe     1   2   3     5.113826254451    59.27158576    61.70450897

---------------------
BASIS SET INFORMATION
---------------------
There are 2 groups of distinct atoms

 Group   1 Type Au  : 8s7p6d1f contracted to 6s4p3d1f pattern {311111/4111/411/1}
 Group   2 Type Fe  : 17s11p7d1f contracted to 6s4p4d1f pattern {842111/6311/4111/1}

Atom   0Au   basis set group =>   1
Atom   1Au   basis set group =>   1
Atom   2Au   basis set group =>   1
Atom   3Au   basis set group =>   1
Atom   4Au   basis set group =>   1
Atom   5Au   basis set group =>   1
Atom   6Au   basis set group =>   1
Atom   7Au   basis set group =>   1
Atom   8Au   basis set group =>   1
Atom   9Au   basis set group =>   1
Atom  10Au   basis set group =>   1
Atom  11Au   basis set group =>   1
Atom  12Au   basis set group =>   1
Atom  13Au   basis set group =>   1
Atom  14Au   basis set group =>   1
Atom  15Au   basis set group =>   1
Atom  16Fe   basis set group =>   2
---------------------------------
AUXILIARY/J BASIS SET INFORMATION
---------------------------------
There are 2 groups of distinct atoms

 Group   1 Type Au  : 11s5p5d3f3g contracted to 8s5p5d2f3g pattern {41111111/11111/11111/21/111}
 Group   2 Type Fe  : 19s5p5d3f3g contracted to 8s5p5d2f3g pattern {121111111/11111/11111/21/111}

Atom   0Au   basis set group =>   1
Atom   1Au   basis set group =>   1
Atom   2Au   basis set group =>   1
Atom   3Au   basis set group =>   1
Atom   4Au   basis set group =>   1
Atom   5Au   basis set group =>   1
Atom   6Au   basis set group =>   1
Atom   7Au   basis set group =>   1
Atom   8Au   basis set group =>   1
Atom   9Au   basis set group =>   1
Atom  10Au   basis set group =>   1
Atom  11Au   basis set group =>   1
Atom  12Au   basis set group =>   1
Atom  13Au   basis set group =>   1
Atom  14Au   basis set group =>   1
Atom  15Au   basis set group =>   1
Atom  16Fe   basis set group =>   2
---------------------------------
AUXILIARY/C BASIS SET INFORMATION
---------------------------------
There are 2 groups of distinct atoms

 Group   1 Type Au  : 8s8p7d5f3g2h contracted to 8s8p7d5f3g2h pattern {11111111/11111111/1111111/11111/111/11}
 Group   2 Type Fe  : 11s9p8d6f5g2h contracted to 9s8p8d6f5g2h pattern {311111111/21111111/11111111/111111/11111/11}

Atom   0Au   basis set group =>   1
Atom   1Au   basis set group =>   1
Atom   2Au   basis set group =>   1
Atom   3Au   basis set group =>   1
Atom   4Au   basis set group =>   1
Atom   5Au   basis set group =>   1
Atom   6Au   basis set group =>   1
Atom   7Au   basis set group =>   1
Atom   8Au   basis set group =>   1
Atom   9Au   basis set group =>   1
Atom  10Au   basis set group =>   1
Atom  11Au   basis set group =>   1
Atom  12Au   basis set group =>   1
Atom  13Au   basis set group =>   1
Atom  14Au   basis set group =>   1
Atom  15Au   basis set group =>   1
Atom  16Fe   basis set group =>   2
-------------------------
ECP PARAMETER INFORMATION
-------------------------

 Group 1, Type Au ECP Def2-ECP (replacing 60 core electrons, lmax=3)

Atom   0Au   ECP group =>   1
Atom   1Au   ECP group =>   1
Atom   2Au   ECP group =>   1
Atom   3Au   ECP group =>   1
Atom   4Au   ECP group =>   1
Atom   5Au   ECP group =>   1
Atom   6Au   ECP group =>   1
Atom   7Au   ECP group =>   1
Atom   8Au   ECP group =>   1
Atom   9Au   ECP group =>   1
Atom  10Au   ECP group =>   1
Atom  11Au   ECP group =>   1
Atom  12Au   ECP group =>   1
Atom  13Au   ECP group =>   1
Atom  14Au   ECP group =>   1
Atom  15Au   ECP group =>   1



           ************************************************************
           *        Program running with 2 parallel MPI-processes     *
           *              working on a common directory               *
           ************************************************************
------------------------------------------------------------------------------
                           ORCA GTO INTEGRAL CALCULATION
                           -- RI-GTO INTEGRALS CHOSEN --
------------------------------------------------------------------------------
------------------------------------------------------------------------------
                   ___                                                        
                  /   \      - P O W E R E D   B Y -                         
                 /     \                                                     
                 |  |  |   _    _      __       _____    __    __             
                 |  |  |  | |  | |    /  \     |  _  \  |  |  /  |          
                  \  \/   | |  | |   /    \    | | | |  |  | /  /          
                 / \  \   | |__| |  /  /\  \   | |_| |  |  |/  /          
                |  |  |   |  __  | /  /__\  \  |    /   |      \           
                |  |  |   | |  | | |   __   |  |    \   |  |\   \          
                \     /   | |  | | |  |  |  |  | |\  \  |  | \   \       
                 \___/    |_|  |_| |__|  |__|  |_| \__\ |__|  \__/        
                                                                              
                      - O R C A' S   B I G   F R I E N D -                    
                                      &                                       
                       - I N T E G R A L  F E E D E R -                       
                                                                              
 v1 FN, 2020, v2 2021                                                         
------------------------------------------------------------------------------


Reading SHARK input file casscf.SHARKINP.tmp ... ok
----------------------
SHARK INTEGRAL PACKAGE
----------------------

Number of atoms                             ...     17
Number of basis functions                   ...    685
Number of shells                            ...    239
Maximum angular momentum                    ...      3
Integral batch strategy                     ... SHARK/LIBINT Hybrid
RI-J (if used) integral strategy            ... SPLIT-RIJ (Revised 2003 algorithm where possible)
Printlevel                                  ...      1
Contraction scheme used                     ... SEGMENTED contraction
Coulomb Range Separation                    ... NOT USED
Exchange Range Separation                   ... NOT USED
Finite Nucleus Model                        ... NOT USED
Auxiliary Coulomb fitting basis             ... AVAILABLE
   # of basis functions in Aux-J            ...   1513
   # of shells in Aux-J                     ...    391
   Maximum angular momentum in Aux-J        ...      4
Auxiliary J/K fitting basis                 ... NOT available
Auxiliary Correlation fitting basis         ... AVAILABLE
   # of basis functions in Aux-C            ...   2598
   # of shells in Aux-C                     ...    566
   Maximum angular momentum in Aux-C        ...      5
Auxiliary 'external' fitting basis          ... NOT available
Integral threshold                          ...     1.000000e-10
Primitive cut-off                           ...     1.000000e-11
Primitive pair pre-selection threshold      ...     1.000000e-11

Calculating pre-screening integrals         ... done (  0.3 sec) Dimension = 239
Organizing shell pair data                  ... done (  0.4 sec)
Shell pair information
Total number of shell pairs                 ...     28680
Shell pairs after pre-screening             ...     22403
Total number of primitive shell pairs       ...     75765
Primitive shell pairs kept                  ...     42508
          la=0 lb=0:   3550 shell pairs
          la=1 lb=0:   5094 shell pairs
          la=1 lb=1:   1925 shell pairs
          la=2 lb=0:   4464 shell pairs
          la=2 lb=1:   3136 shell pairs
          la=2 lb=2:   1291 shell pairs
          la=3 lb=0:   1149 shell pairs
          la=3 lb=1:    891 shell pairs
          la=3 lb=2:    784 shell pairs
          la=3 lb=3:    119 shell pairs

Calculating one electron integrals          ... done (  0.1 sec)
Calculating ECP integrals                   ... done ( 11.2 sec)
Calculating RI/J V-Matrix + Cholesky decomp.... done (  0.1 sec)
Calculating RI/C V-Matrix + Cholesky decomp.... done (  0.3 sec)
Calculating Nuclear repulsion               ... done (  0.0 sec) ENN=   7135.651894569399 Eh

SHARK setup successfully completed in  12.8 seconds

Maximum memory used throughout the entire GTOINT-calculation: 112.7 MB


           ************************************************************
           *        Program running with 2 parallel MPI-processes     *
           *              working on a common directory               *
           ************************************************************
-------------------------------------------------------------------------------
                                 ORCA SCF
-------------------------------------------------------------------------------

------------
SCF SETTINGS
------------
Hamiltonian:
 Ab initio Hamiltonian  Method          .... Hartree-Fock(GTOs)
 RI-approximation to the Coulomb term is turned on
   Number of AuxJ basis functions       .... 1513
   RIJ-COSX (HFX calculated with COS-X)).... on


General Settings:
 Integral files         IntName         .... casscf
 Hartree-Fock type      HFTyp           .... CASSCF
 Total Charge           Charge          ....    0
 Multiplicity           Mult            ....    5
 Number of Electrons    NEL             ....  330
 Basis Dimension        Dim             ....  685
 Nuclear Repulsion      ENuc            ....   7135.6518945694 Eh


Diagonalization of the overlap matrix:
Smallest eigenvalue                        ... 3.082e-04
Time for diagonalization                   ...    0.059 sec
Threshold for overlap eigenvalues          ... 1.000e-08
Number of eigenvalues below threshold      ... 0
Time for construction of square roots      ...    0.033 sec
Total time needed                          ...    0.094 sec

---------------------
INITIAL GUESS: MOREAD
---------------------
Guess MOs are being read from file: pbe.qro
Input Geometry matches current geometry (good)
Input basis set matches current basis set (good)
MOs were renormalized
Gram-Schmidt orthogonalization of all MOs with pivot on actives
                      ------------------
                      INITIAL GUESS DONE (   2.5 sec)
                      ------------------
--------------------
COSX GRID GENERATION
--------------------

GRIDX 1
-------
General Integration Accuracy     IntAcc      ... 3.816
Radial Grid Type                 RadialGrid  ... OptM3 with GC (2021)
Angular Grid (max. ang.)         AngularGrid ... 1 (Lebedev-50)
Angular grid pruning method      GridPruning ... 4 (adaptive)
Weight generation scheme         WeightScheme... Becke
Basis function cutoff            BFCut       ... 1.0000e-10
Integration weight cutoff        WCut        ... 1.0000e-14
Angular grids for H and He will be reduced by one unit
Partially contracted basis set               ... on
Rotationally invariant grid construction     ... off

Total number of grid points                  ...    19493
Total number of batches                      ...      312
Average number of points per batch           ...       62
Average number of grid points per atom       ...     1147
UseSFitting                                  ... on

GRIDX 2
-------
General Integration Accuracy     IntAcc      ... 4.020
Radial Grid Type                 RadialGrid  ... OptM3 with GC (2021)
Angular Grid (max. ang.)         AngularGrid ... 2 (Lebedev-110)
Angular grid pruning method      GridPruning ... 4 (adaptive)
Weight generation scheme         WeightScheme... Becke
Basis function cutoff            BFCut       ... 1.0000e-10
Integration weight cutoff        WCut        ... 1.0000e-14
Angular grids for H and He will be reduced by one unit
Partially contracted basis set               ... on
Rotationally invariant grid construction     ... off

Total number of grid points                  ...    59213
Total number of batches                      ...      932
Average number of points per batch           ...       63
Average number of grid points per atom       ...     3483
UseSFitting                                  ... on

GRIDX 3
-------
General Integration Accuracy     IntAcc      ... 4.338
Radial Grid Type                 RadialGrid  ... OptM3 with GC (2021)
Angular Grid (max. ang.)         AngularGrid ... 3 (Lebedev-194)
Angular grid pruning method      GridPruning ... 4 (adaptive)
Weight generation scheme         WeightScheme... Becke
Basis function cutoff            BFCut       ... 1.0000e-10
Integration weight cutoff        WCut        ... 1.0000e-14
Angular grids for H and He will be reduced by one unit
Partially contracted basis set               ... on
Rotationally invariant grid construction     ... off

Total number of grid points                  ...   107196
Total number of batches                      ...     1684
Average number of points per batch           ...       63
Average number of grid points per atom       ...     6306
UseSFitting                                  ... on

Time for X-Grid setup             =    2.801 sec



 ... the calculation is a CASSCF calculation -I'm leaving here GOOD LUCK!!!



           ************************************************************
           *        Program running with 2 parallel MPI-processes     *
           *              working on a common directory               *
           ************************************************************
-------------------------------------------------------------------------------
                              ORCA-CASSCF
-------------------------------------------------------------------------------

Setting up the integral package       ... done
Setting up the integral package (RI)  ... done
Building the CAS space                ... done (5 configurations for Mult=5)
Building the CAS space                ... done (35 configurations for Mult=3)

SYSTEM-SPECIFIC SETTINGS:
Number of active electrons          ...    6
Number of active orbitals           ...    5
Total number of electrons           ...  330
Total number of orbitals            ...  685
Total number aux. functions         ... 2598

Determined orbital ranges:
   Internal       0 -  161 ( 162 orbitals)
   Active       162 -  166 (   5 orbitals)
   External     167 -  684 ( 518 orbitals)
Number of rotation parameters      ...  87316

CI-STEP:
CI strategy                         ... General CI
Number of multiplicity blocks       ...    2
BLOCK  1 WEIGHT=   0.5000
  Multiplicity                      ...    5
  #(Configurations)                 ...    5
  #(CSFs)                           ...    5
  #(Roots)                          ...    5
    ROOT=0 WEIGHT=    0.100000
    ROOT=1 WEIGHT=    0.100000
    ROOT=2 WEIGHT=    0.100000
    ROOT=3 WEIGHT=    0.100000
    ROOT=4 WEIGHT=    0.100000

BLOCK  2 WEIGHT=   0.5000
  Multiplicity                      ...    3
  #(Configurations)                 ...   35
  #(CSFs)                           ...   45
  #(Roots)                          ...   45
    ROOT=0 WEIGHT=    0.011111
    ROOT=1 WEIGHT=    0.011111
    ROOT=2 WEIGHT=    0.011111
    ROOT=3 WEIGHT=    0.011111
    ROOT=4 WEIGHT=    0.011111
    ROOT=5 WEIGHT=    0.011111
    ROOT=6 WEIGHT=    0.011111
    ROOT=7 WEIGHT=    0.011111
    ROOT=8 WEIGHT=    0.011111
    ROOT=9 WEIGHT=    0.011111
    ROOT=10 WEIGHT=    0.011111
    ROOT=11 WEIGHT=    0.011111
    ROOT=12 WEIGHT=    0.011111
    ROOT=13 WEIGHT=    0.011111
    ROOT=14 WEIGHT=    0.011111
    ROOT=15 WEIGHT=    0.011111
    ROOT=16 WEIGHT=    0.011111
    ROOT=17 WEIGHT=    0.011111
    ROOT=18 WEIGHT=    0.011111
    ROOT=19 WEIGHT=    0.011111
    ROOT=20 WEIGHT=    0.011111
    ROOT=21 WEIGHT=    0.011111
    ROOT=22 WEIGHT=    0.011111
    ROOT=23 WEIGHT=    0.011111
    ROOT=24 WEIGHT=    0.011111
    ROOT=25 WEIGHT=    0.011111
    ROOT=26 WEIGHT=    0.011111
    ROOT=27 WEIGHT=    0.011111
    ROOT=28 WEIGHT=    0.011111
    ROOT=29 WEIGHT=    0.011111
    ROOT=30 WEIGHT=    0.011111
    ROOT=31 WEIGHT=    0.011111
    ROOT=32 WEIGHT=    0.011111
    ROOT=33 WEIGHT=    0.011111
    ROOT=34 WEIGHT=    0.011111
    ROOT=35 WEIGHT=    0.011111
    ROOT=36 WEIGHT=    0.011111
    ROOT=37 WEIGHT=    0.011111
    ROOT=38 WEIGHT=    0.011111
    ROOT=39 WEIGHT=    0.011111
    ROOT=40 WEIGHT=    0.011111
    ROOT=41 WEIGHT=    0.011111
    ROOT=42 WEIGHT=    0.011111
    ROOT=43 WEIGHT=    0.011111
    ROOT=44 WEIGHT=    0.011111

  PrintLevel                        ...    1
  N(GuessMat)                       ...       512
  MaxDim(CI)                        ...        10
  MaxIter(CI)                       ...        64
  Energy Tolerance CI               ...  1.00e-08
  Residual Tolerance CI             ...  1.00e-08
  Shift(CI)                         ...  1.00e-04

INTEGRAL-TRANSFORMATION-STEP:
  Algorithm                         ... RI-MO

ORBITAL-IMPROVEMENT-STEP:
  Algorithm                         ... SuperCI(PT)
  Default Parametrization           ... CAYLEY
  Act-Act rotations                 ... depends on algorithm used

  Note: SuperCI(PT) will ignore FreezeIE, FreezeAct and FreezeGrad. In general Default settings are encouraged.
        In conjunction with ShiftUp, ShiftDn or GradScaling the performance of SuperCI(PT) is less optimal.  

  MaxRot                            ... 2.00e-01 
  Max. no of vectors (DIIS)         ... 15
  DThresh (cut-off) metric          ... 1.00e-06
  Switch step at gradient           ...  3.00e-02 
  Switch step at iteration          ...        50   
  Switch step to                    ... SuperCI(PT)    

SCF-SETTINGS:
  Incremental                       ... off
  RIJCOSX approximation             ... on
  UseFinalGrid                      ... on
  RI-JK approximation               ... off
  AO integral handling              ... DIRECT
  Integral Neglect Thresh           ...  1.00e-10
  Primitive cutoff TCut             ...  1.00e-11
  Energy convergence tolerance      ...  1.00e-07
  Orbital gradient convergence      ...  1.00e-03
  Max. number of iterations         ...        75  


FINAL ORBITALS:
  Active   Orbitals                 ... natural 
  Internal Orbitals                 ... canonical 
  External Orbitals                 ... canonical 

------------------
CAS-SCF ITERATIONS
------------------


MACRO-ITERATION   1: 
   --- Inactive Energy E0 = -3407.22316507 Eh
CI-ITERATION   0: 
 -3418.902895505   0.000000000000 (    0.00)
 -3418.897279610   0.000000000000
 -3418.890615086   0.000000000000
 -3418.888529872   0.000000000000
 -3418.876180776   0.000000000000
   CI-PROBLEM SOLVED
   DENSITIES MADE
CI-ITERATION   0: 
 -3418.836635902   0.000000000000 (    0.00)
 -3418.835943099   0.000000000000
 -3418.832206863   0.000000000000
 -3418.831632176   0.000000000000
 -3418.831012143   0.000000000000
 -3418.828473355   0.000000000000
 -3418.826664373   0.000000000000
 -3418.825302796   0.000000000000
 -3418.824287920   0.000000000000
 -3418.823407937   0.000000000000
 -3418.822864971   0.000000000000
 -3418.821726126   0.000000000000
 -3418.821659715   0.000000000000
 -3418.818984380   0.000000000000
 -3418.817788936   0.000000000000
 -3418.814694185   0.000000000000
 -3418.813965750   0.000000000000
 -3418.813659615   0.000000000000
 -3418.811272013   0.000000000000
 -3418.810790654   0.000000000000
 -3418.810452933   0.000000000000
 -3418.808347004   0.000000000000
 -3418.808015417   0.000000000000
 -3418.807167393   0.000000000000
 -3418.804945496   0.000000000000
 -3418.804291494   0.000000000000
 -3418.803027605   0.000000000000
 -3418.802181825   0.000000000000
 -3418.801702096   0.000000000000
 -3418.800834816   0.000000000000
 -3418.784351204   0.000000000000
 -3418.782544659   0.000000000000
 -3418.781419327   0.000000000000
 -3418.780597301   0.000000000000
 -3418.779600163   0.000000000000
 -3418.721292511   0.000000000000
 -3418.719768972   0.000000000000
 -3418.717266086   0.000000000000
 -3418.714715008   0.000000000000
 -3418.711450857   0.000000000000
 -3418.711263948   0.000000000000
 -3418.706556003   0.000000000000
 -3418.705825124   0.000000000000
 -3418.705222310   0.000000000000
 -3418.702254984   0.000000000000
   CI-PROBLEM SOLVED
   DENSITIES MADE

                 <<<<<<<<<<<<<<<<<<INITIAL CI STATE CHECK>>>>>>>>>>>>>>>>>>

BLOCK  1 MULT= 5 NROOTS= 5 
ROOT   0:  E=   -3418.9028955051 Eh
      0.94819 [     4]: 21111
      0.05145 [     1]: 11121
ROOT   1:  E=   -3418.8972796098 Eh  0.153 eV   1232.5 cm**-1
      0.47224 [     3]: 12111
      0.26755 [     2]: 11211
      0.25949 [     0]: 11112
ROOT   2:  E=   -3418.8906150863 Eh  0.334 eV   2695.2 cm**-1
      0.89135 [     1]: 11121
      0.04980 [     4]: 21111
      0.02949 [     3]: 12111
      0.02912 [     2]: 11211
ROOT   3:  E=   -3418.8885298721 Eh  0.391 eV   3152.9 cm**-1
      0.50781 [     2]: 11211
      0.41075 [     3]: 12111
      0.05639 [     1]: 11121
      0.02311 [     0]: 11112
ROOT   4:  E=   -3418.8761807765 Eh  0.727 eV   5863.2 cm**-1
      0.71708 [     0]: 11112
      0.19551 [     2]: 11211
      0.08725 [     3]: 12111

BLOCK  2 MULT= 3 NROOTS=45 
ROOT   0:  E=   -3418.8366359017 Eh
      0.29365 [    33]: 22101
      0.23707 [    27]: 21102
      0.14175 [    30]: 21201
      0.12501 [    29]: 21120
      0.04215 [    23]: 20121
      0.04029 [    13]: 11211
      0.03241 [    18]: 12111
      0.02583 [    21]: 12210
      0.02573 [    10]: 11112
      0.01480 [    26]: 21021
      0.01079 [     4]: 02121
      0.00415 [     2]: 01221
      0.00349 [     7]: 10212
ROOT   1:  E=   -3418.8359430987 Eh  0.019 eV    152.1 cm**-1
      0.50513 [    28]: 21111
      0.17238 [    34]: 22110
      0.08427 [    31]: 21210
      0.04425 [    22]: 20112
      0.04139 [    11]: 11121
      0.03554 [    20]: 12201
      0.02199 [    14]: 11220
      0.02072 [    24]: 20211
      0.01624 [     8]: 10221
      0.01338 [    17]: 12102
      0.01320 [    32]: 22011
      0.00906 [    25]: 21012
      0.00589 [     3]: 02112
      0.00470 [    12]: 11202
      0.00375 [    19]: 12120
ROOT   2:  E=   -3418.8322068632 Eh  0.121 eV    972.1 cm**-1
      0.66163 [    28]: 21111
      0.06044 [    34]: 22110
      0.05848 [    24]: 20211
      0.03800 [    16]: 12021
      0.03230 [    11]: 11121
      0.02933 [    25]: 21012
      0.02406 [    31]: 21210
      0.02177 [    14]: 11220
      0.01917 [    12]: 11202
      0.01604 [     8]: 10221
      0.01483 [     3]: 02112
      0.00588 [    20]: 12201
      0.00586 [     5]: 02211
ROOT   3:  E=   -3418.8316321760 Eh  0.136 eV   1098.2 cm**-1
      0.39039 [    32]: 22011
      0.30041 [    24]: 20211
      0.07739 [    31]: 21210
      0.06785 [    28]: 21111
      0.05744 [    11]: 11121
      0.02261 [     8]: 10221
      0.01999 [    19]: 12120
      0.01343 [     1]: 01212
      0.01075 [    17]: 12102
      0.00988 [    16]: 12021
      0.00926 [    22]: 20112
      0.00765 [     9]: 11022
      0.00334 [     6]: 10122
ROOT   4:  E=   -3418.8310121435 Eh  0.153 eV   1234.3 cm**-1
      0.25884 [    13]: 11211
      0.17934 [    18]: 12111
      0.16591 [    33]: 22101
      0.15468 [    10]: 11112
      0.05396 [    30]: 21201
      0.04364 [    26]: 21021
      0.03578 [    15]: 12012
      0.03188 [    23]: 20121
      0.02218 [    29]: 21120
      0.01929 [     7]: 10212
      0.01183 [     0]: 01122
      0.01164 [     4]: 02121
      0.00492 [     2]: 01221
      0.00277 [    21]: 12210
ROOT   5:  E=   -3418.8284733551 Eh  0.222 eV   1791.5 cm**-1
      0.57831 [    29]: 21120
      0.10634 [    30]: 21201
      0.07305 [    18]: 12111
      0.04490 [    10]: 11112
      0.03412 [     0]: 01122
      0.03363 [    33]: 22101
      0.03338 [    21]: 12210
      0.03176 [    23]: 20121
      0.01877 [    15]: 12012
      0.01789 [     2]: 01221
      0.00850 [     4]: 02121
      0.00660 [    13]: 11211
      0.00465 [    27]: 21102
      0.00300 [    34]: 22110
ROOT   6:  E=   -3418.8266643731 Eh  0.271 eV   2188.5 cm**-1
      0.32092 [    11]: 11121
      0.24347 [    34]: 22110
      0.20219 [    31]: 21210
      0.05684 [    32]: 22011
      0.04335 [    28]: 21111
      0.03725 [    22]: 20112
      0.02682 [     5]: 02211
      0.01421 [    25]: 21012
      0.00937 [    16]: 12021
      0.00696 [     1]: 01212
      0.00695 [    24]: 20211
      0.00540 [    18]: 12111
      0.00483 [    17]: 12102
      0.00427 [     9]: 11022
      0.00400 [     8]: 10221
      0.00290 [    13]: 11211
ROOT   7:  E=   -3418.8253027957 Eh  0.308 eV   2487.3 cm**-1
      0.30369 [    28]: 21111
      0.15997 [    34]: 22110
      0.10607 [    11]: 11121
      0.08584 [    20]: 12201
      0.07459 [    17]: 12102
      0.07309 [    31]: 21210
      0.06710 [    12]: 11202
      0.02322 [    13]: 11211
      0.01960 [    16]: 12021
      0.01168 [    18]: 12111
      0.01114 [    14]: 11220
      0.00982 [    24]: 20211
      0.00830 [    33]: 22101
      0.00739 [    23]: 20121
      0.00604 [    25]: 21012
      0.00587 [    19]: 12120
      0.00440 [     7]: 10212
      0.00421 [    22]: 20112
      0.00266 [     4]: 02121
      0.00261 [    26]: 21021
ROOT   8:  E=   -3418.8242879202 Eh  0.336 eV   2710.1 cm**-1
      0.43377 [    13]: 11211
      0.10624 [    23]: 20121
      0.09733 [    33]: 22101
      0.07432 [    18]: 12111
      0.06822 [     7]: 10212
      0.04151 [    15]: 12012
      0.03842 [     4]: 02121
      0.03256 [    10]: 11112
      0.02245 [    28]: 21111
      0.01312 [    30]: 21201
      0.00939 [    34]: 22110
      0.00860 [    11]: 11121
      0.00842 [    26]: 21021
      0.00814 [    20]: 12201
      0.00575 [    12]: 11202
      0.00571 [    31]: 21210
      0.00561 [    32]: 22011
      0.00547 [     0]: 01122
      0.00402 [     2]: 01221
      0.00360 [    17]: 12102
      0.00256 [    16]: 12021
ROOT   9:  E=   -3418.8234079370 Eh  0.360 eV   2903.2 cm**-1
      0.21578 [    32]: 22011
      0.18011 [     8]: 10221
      0.11901 [    24]: 20211
      0.05884 [    19]: 12120
      0.05627 [    16]: 12021
      0.04691 [    22]: 20112
      0.04594 [     5]: 02211
      0.04520 [    11]: 11121
      0.03581 [    17]: 12102
      0.03419 [     3]: 02112
      0.03140 [    28]: 21111
      0.01971 [    18]: 12111
      0.01887 [     6]: 10122
      0.01574 [    12]: 11202
      0.01559 [    14]: 11220
      0.01395 [    34]: 22110
      0.01330 [     1]: 01212
      0.00808 [    13]: 11211
      0.00691 [    26]: 21021
      0.00686 [    25]: 21012
      0.00254 [    10]: 11112
ROOT  10:  E=   -3418.8228649712 Eh  0.375 eV   3022.4 cm**-1
      0.37444 [    18]: 12111
      0.26477 [    13]: 11211
      0.12622 [    10]: 11112
      0.04050 [    27]: 21102
      0.03030 [    26]: 21021
      0.02892 [     0]: 01122
      0.02223 [    29]: 21120
      0.01932 [    23]: 20121
      0.01609 [     8]: 10221
      0.01119 [    33]: 22101
      0.00924 [    34]: 22110
      0.00913 [    31]: 21210
      0.00827 [    15]: 12012
      0.00771 [    16]: 12021
      0.00663 [     2]: 01221
      0.00433 [    19]: 12120
      0.00421 [    12]: 11202
      0.00383 [    11]: 11121
      0.00282 [    17]: 12102
ROOT  11:  E=   -3418.8217261257 Eh  0.406 eV   3272.3 cm**-1
      0.38182 [    18]: 12111
      0.15204 [    13]: 11211
      0.13462 [    10]: 11112
      0.11958 [    26]: 21021
      0.09166 [    29]: 21120
      0.04836 [     2]: 01221
      0.02576 [    30]: 21201
      0.01291 [    23]: 20121
      0.00571 [     7]: 10212
      0.00562 [    15]: 12012
      0.00484 [    33]: 22101
      0.00445 [    11]: 11121
ROOT  12:  E=   -3418.8216597152 Eh  0.408 eV   3286.9 cm**-1
      0.41057 [    11]: 11121
      0.09325 [    31]: 21210
      0.08448 [    32]: 22011
      0.08343 [    12]: 11202
      0.07073 [     8]: 10221
      0.06630 [    24]: 20211
      0.03467 [    19]: 12120
      0.03370 [    17]: 12102
      0.02139 [    16]: 12021
      0.01562 [    20]: 12201
      0.01431 [    34]: 22110
      0.01218 [     9]: 11022
      0.01152 [    18]: 12111
      0.00943 [    14]: 11220
      0.00903 [    13]: 11211
      0.00843 [    10]: 11112
      0.00474 [     3]: 02112
      0.00447 [     5]: 02211
      0.00272 [    28]: 21111
ROOT  13:  E=   -3418.8189843798 Eh  0.480 eV   3874.1 cm**-1
      0.18472 [    16]: 12021
      0.18424 [    28]: 21111
      0.15772 [    17]: 12102
      0.11905 [    12]: 11202
      0.09390 [    20]: 12201
      0.05040 [    25]: 21012
      0.03915 [     8]: 10221
      0.03573 [    11]: 11121
      0.03235 [    31]: 21210
      0.02416 [    34]: 22110
      0.01882 [    14]: 11220
      0.01598 [    22]: 20112
      0.01460 [    32]: 22011
      0.00893 [     1]: 01212
      0.00665 [     6]: 10122
      0.00503 [    24]: 20211
      0.00434 [     5]: 02211
ROOT  14:  E=   -3418.8177889358 Eh  0.513 eV   4136.4 cm**-1
      0.41300 [    11]: 11121
      0.18726 [    28]: 21111
      0.12281 [    14]: 11220
      0.04033 [     1]: 01212
      0.03679 [     6]: 10122
      0.03637 [    19]: 12120
      0.03394 [     3]: 02112
      0.02951 [     8]: 10221
      0.02721 [    16]: 12021
      0.01991 [    22]: 20112
      0.01685 [    31]: 21210
      0.00987 [    32]: 22011
      0.00884 [    20]: 12201
      0.00501 [    34]: 22110
      0.00431 [     9]: 11022
ROOT  15:  E=   -3418.8146941854 Eh  0.597 eV   4815.7 cm**-1
      0.20834 [     7]: 10212
      0.18462 [    13]: 11211
      0.16055 [    18]: 12111
      0.12954 [    30]: 21201
      0.11154 [    26]: 21021
      0.05976 [    33]: 22101
      0.03873 [    10]: 11112
      0.02238 [    27]: 21102
      0.01770 [    29]: 21120
      0.01723 [    23]: 20121
      0.01484 [    21]: 12210
      0.00516 [     4]: 02121
      0.00391 [    17]: 12102
      0.00355 [     2]: 01221
      0.00346 [    12]: 11202
      0.00250 [    15]: 12012
ROOT  16:  E=   -3418.8139657503 Eh  0.617 eV   4975.5 cm**-1
      0.20139 [    15]: 12012
      0.09172 [    23]: 20121
      0.06949 [    17]: 12102
      0.06466 [    21]: 12210
      0.05885 [    12]: 11202
      0.05803 [    10]: 11112
      0.05497 [    18]: 12111
      0.04480 [     4]: 02121
      0.04467 [    11]: 11121
      0.04313 [    33]: 22101
      0.03799 [    30]: 21201
      0.03277 [     7]: 10212
      0.02898 [     8]: 10221
      0.02297 [    13]: 11211
      0.01829 [    26]: 21021
      0.01775 [     3]: 02112
      0.01487 [     9]: 11022
      0.01467 [    16]: 12021
      0.01242 [    19]: 12120
      0.01214 [    28]: 21111
      0.01125 [    14]: 11220
      0.00735 [     6]: 10122
      0.00592 [    27]: 21102
      0.00526 [    25]: 21012
      0.00486 [    34]: 22110
      0.00412 [    22]: 20112
      0.00370 [    20]: 12201
      0.00307 [     1]: 01212
ROOT  17:  E=   -3418.8136596155 Eh  0.625 eV   5042.7 cm**-1
      0.15927 [    17]: 12102
      0.12554 [    12]: 11202
      0.09737 [    15]: 12012
      0.08020 [     8]: 10221
      0.07671 [    11]: 11121
      0.05179 [     3]: 02112
      0.03938 [    21]: 12210
      0.03801 [     7]: 10212
      0.03723 [    23]: 20121
      0.03330 [    18]: 12111
      0.03242 [     9]: 11022
      0.02778 [     4]: 02121
      0.02761 [    28]: 21111
      0.02755 [    10]: 11112
      0.02587 [    14]: 11220
      0.02134 [    16]: 12021
      0.01450 [    13]: 11211
      0.01048 [    33]: 22101
      0.01030 [    22]: 20112
      0.00994 [     6]: 10122
      0.00971 [    19]: 12120
      0.00940 [    34]: 22110
      0.00706 [    32]: 22011
      0.00646 [    20]: 12201
      0.00403 [    25]: 21012
      0.00382 [    27]: 21102
      0.00363 [     1]: 01212
      0.00297 [    30]: 21201
ROOT  18:  E=   -3418.8112720126 Eh  0.690 eV   5566.7 cm**-1
      0.30637 [    10]: 11112
      0.15745 [     7]: 10212
      0.11339 [    18]: 12111
      0.07319 [     0]: 01122
      0.06712 [     4]: 02121
      0.06483 [    13]: 11211
      0.05434 [    26]: 21021
      0.04575 [     2]: 01221
      0.04283 [    23]: 20121
      0.03471 [    15]: 12012
      0.01753 [    21]: 12210
      0.01342 [    27]: 21102
ROOT  19:  E=   -3418.8107906541 Eh  0.703 eV   5672.4 cm**-1
      0.25257 [    19]: 12120
      0.14034 [     8]: 10221
      0.11236 [    25]: 21012
      0.10254 [    11]: 11121
      0.09584 [     1]: 01212
      0.07913 [     6]: 10122
      0.05455 [    31]: 21210
      0.04057 [    24]: 20211
      0.03959 [     3]: 02112
      0.02379 [    28]: 21111
      0.02165 [    20]: 12201
      0.00879 [    22]: 20112
      0.00789 [    32]: 22011
      0.00522 [    17]: 12102
      0.00325 [    14]: 11220
      0.00287 [    10]: 11112
ROOT  20:  E=   -3418.8104529329 Eh  0.712 eV   5746.5 cm**-1
      0.21622 [    14]: 11220
      0.15849 [    28]: 21111
      0.13218 [    16]: 12021
      0.11745 [     9]: 11022
      0.08014 [     8]: 10221
      0.05537 [    22]: 20112
      0.04383 [    11]: 11121
      0.04332 [    24]: 20211
      0.03555 [    34]: 22110
      0.02487 [     3]: 02112
      0.02341 [     5]: 02211
      0.01836 [    12]: 11202
      0.01759 [     1]: 01212
      0.00930 [    20]: 12201
      0.00708 [    31]: 21210
      0.00360 [    19]: 12120
      0.00318 [    17]: 12102
      0.00299 [    25]: 21012
ROOT  21:  E=   -3418.8083470036 Eh  0.770 eV   6208.7 cm**-1
      0.29482 [     1]: 01212
      0.21045 [    11]: 11121
      0.11740 [     3]: 02112
      0.11506 [    28]: 21111
      0.06407 [    32]: 22011
      0.03216 [    24]: 20211
      0.03072 [    17]: 12102
      0.01839 [    31]: 21210
      0.01396 [    20]: 12201
      0.01374 [     8]: 10221
      0.01082 [    19]: 12120
      0.01050 [    16]: 12021
      0.01036 [    34]: 22110
      0.01012 [    12]: 11202
      0.00999 [     9]: 11022
      0.00944 [     5]: 02211
      0.00833 [    13]: 11211
      0.00402 [    14]: 11220
      0.00309 [    10]: 11112
      0.00306 [     6]: 10122
ROOT  22:  E=   -3418.8080154168 Eh  0.779 eV   6281.5 cm**-1
      0.35385 [    13]: 11211
      0.13177 [    10]: 11112
      0.10752 [    18]: 12111
      0.08962 [    30]: 21201
      0.06935 [    23]: 20121
      0.06583 [    26]: 21021
      0.05015 [    15]: 12012
      0.04668 [    27]: 21102
      0.02528 [    33]: 22101
      0.01318 [     7]: 10212
      0.01259 [    29]: 21120
      0.00959 [     2]: 01221
      0.00361 [     4]: 02121
      0.00311 [     3]: 02112
      0.00256 [    11]: 11121
ROOT  23:  E=   -3418.8071673930 Eh  0.802 eV   6467.6 cm**-1
      0.30083 [    18]: 12111
      0.22435 [    15]: 12012
      0.20787 [    13]: 11211
      0.14091 [    10]: 11112
      0.03225 [    21]: 12210
      0.02646 [     4]: 02121
      0.01868 [    23]: 20121
      0.01852 [     7]: 10212
      0.00694 [    27]: 21102
      0.00500 [    30]: 21201
      0.00497 [     2]: 01221
      0.00356 [     0]: 01122
ROOT  24:  E=   -3418.8049454963 Eh  0.862 eV   6955.2 cm**-1
      0.39882 [    10]: 11112
      0.14617 [     0]: 01122
      0.10135 [    13]: 11211
      0.08933 [    18]: 12111
      0.07391 [    26]: 21021
      0.06011 [    23]: 20121
      0.03741 [     7]: 10212
      0.02506 [    21]: 12210
      0.01980 [    27]: 21102
      0.01153 [     3]: 02112
      0.00891 [    15]: 12012
      0.00492 [     2]: 01221
      0.00354 [    29]: 21120
      0.00341 [    11]: 11121
      0.00273 [    17]: 12102
      0.00262 [     1]: 01212
ROOT  25:  E=   -3418.8042914944 Eh  0.880 eV   7098.8 cm**-1
      0.22205 [     3]: 02112
      0.19496 [    12]: 11202
      0.12619 [    11]: 11121
      0.08114 [    16]: 12021
      0.07466 [    28]: 21111
      0.06303 [     9]: 11022
      0.04761 [    14]: 11220
      0.03854 [    34]: 22110
      0.03838 [    19]: 12120
      0.02468 [    31]: 21210
      0.02380 [    22]: 20112
      0.02129 [     5]: 02211
      0.00777 [    25]: 21012
      0.00737 [    24]: 20211
      0.00719 [     1]: 01212
      0.00389 [    10]: 11112
      0.00381 [     0]: 01122
      0.00365 [     8]: 10221
      0.00283 [    13]: 11211
ROOT  26:  E=   -3418.8030276045 Eh  0.915 eV   7376.2 cm**-1
      0.24407 [    17]: 12102
      0.13239 [     1]: 01212
      0.11252 [     8]: 10221
      0.08739 [     9]: 11022
      0.06956 [    11]: 11121
      0.05591 [    28]: 21111
      0.05319 [     5]: 02211
      0.04894 [     6]: 10122
      0.03860 [    16]: 12021
      0.03044 [    24]: 20211
      0.02536 [    14]: 11220
      0.02221 [    31]: 21210
      0.01993 [    12]: 11202
      0.01947 [    25]: 21012
      0.01131 [    20]: 12201
      0.00824 [    32]: 22011
      0.00767 [    19]: 12120
      0.00321 [    10]: 11112
ROOT  27:  E=   -3418.8021818249 Eh  0.938 eV   7561.8 cm**-1
      0.36598 [     2]: 01221
      0.08995 [    10]: 11112
      0.08566 [    11]: 11121
      0.07539 [    26]: 21021
      0.07291 [    18]: 12111
      0.07159 [     3]: 02112
      0.05269 [     0]: 01122
      0.05252 [     7]: 10212
      0.02814 [    13]: 11211
      0.02710 [     1]: 01212
      0.02098 [     6]: 10122
      0.00988 [    14]: 11220
      0.00864 [     4]: 02121
      0.00586 [     5]: 02211
      0.00514 [    23]: 20121
      0.00496 [    30]: 21201
      0.00474 [    28]: 21111
      0.00425 [    33]: 22101
      0.00334 [    24]: 20211
ROOT  28:  E=   -3418.8017020962 Eh  0.951 eV   7667.1 cm**-1
      0.25411 [    11]: 11121
      0.16699 [     3]: 02112
      0.11574 [     2]: 01221
      0.10504 [     1]: 01212
      0.07106 [     6]: 10122
      0.04591 [     7]: 10212
      0.03709 [    10]: 11112
      0.03498 [    14]: 11220
      0.02278 [    26]: 21021
      0.02214 [    18]: 12111
      0.02025 [     5]: 02211
      0.01801 [    15]: 12012
      0.01790 [    13]: 11211
      0.01214 [    28]: 21111
      0.00965 [    24]: 20211
      0.00637 [     0]: 01122
      0.00548 [     4]: 02121
      0.00527 [    23]: 20121
      0.00496 [    30]: 21201
      0.00443 [    33]: 22101
      0.00381 [    32]: 22011
      0.00365 [    17]: 12102
      0.00295 [     9]: 11022
      0.00268 [    20]: 12201
ROOT  29:  E=   -3418.8008348157 Eh  0.974 eV   7857.4 cm**-1
      0.23560 [     4]: 02121
      0.15421 [    18]: 12111
      0.14464 [     0]: 01122
      0.09353 [    15]: 12012
      0.08452 [    13]: 11211
      0.07708 [    10]: 11112
      0.05938 [    23]: 20121
      0.03644 [     7]: 10212
      0.02813 [    11]: 11121
      0.01466 [    33]: 22101
      0.01383 [    27]: 21102
      0.01170 [     3]: 02112
      0.00748 [     6]: 10122
      0.00693 [    26]: 21021
      0.00619 [    29]: 21120
      0.00561 [     1]: 01212
      0.00428 [    14]: 11220
      0.00418 [    30]: 21201
      0.00384 [     5]: 02211
ROOT  30:  E=   -3418.7843512044 Eh  1.423 eV  11475.2 cm**-1
      0.20024 [    28]: 21111
      0.14109 [    20]: 12201
      0.13132 [    14]: 11220
      0.10342 [    16]: 12021
      0.08176 [    19]: 12120
      0.06035 [     6]: 10122
      0.04973 [    25]: 21012
      0.04082 [     9]: 11022
      0.03853 [    31]: 21210
      0.03586 [    11]: 11121
      0.02846 [    12]: 11202
      0.02282 [    34]: 22110
      0.02251 [     8]: 10221
      0.02081 [    22]: 20112
      0.00514 [    10]: 11112
      0.00393 [     5]: 02211
      0.00304 [    18]: 12111
ROOT  31:  E=   -3418.7825446592 Eh  1.472 eV  11871.7 cm**-1
      0.62037 [    10]: 11112
      0.13818 [    18]: 12111
      0.08417 [    30]: 21201
      0.05479 [    13]: 11211
      0.03379 [    33]: 22101
      0.01478 [    27]: 21102
      0.01410 [     2]: 01221
      0.00885 [     0]: 01122
      0.00741 [     7]: 10212
      0.00421 [     4]: 02121
      0.00380 [    21]: 12210
      0.00308 [    19]: 12120
ROOT  32:  E=   -3418.7814193269 Eh  1.503 eV  12118.6 cm**-1
      0.13461 [     6]: 10122
      0.11121 [    19]: 12120
      0.10659 [    11]: 11121
      0.10198 [    25]: 21012
      0.09631 [     5]: 02211
      0.07988 [     1]: 01212
      0.07973 [    24]: 20211
      0.04756 [    28]: 21111
      0.04610 [    14]: 11220
      0.03510 [     9]: 11022
      0.03140 [    22]: 20112
      0.02699 [    32]: 22011
      0.02351 [    31]: 21210
      0.01950 [     3]: 02112
      0.01739 [    17]: 12102
      0.01645 [    34]: 22110
      0.00767 [     8]: 10221
      0.00494 [    20]: 12201
ROOT  33:  E=   -3418.7805973013 Eh  1.525 eV  12299.1 cm**-1
      0.35243 [    13]: 11211
      0.10466 [    27]: 21102
      0.09662 [    23]: 20121
      0.08416 [     0]: 01122
      0.06915 [     7]: 10212
      0.06794 [    10]: 11112
      0.06322 [    21]: 12210
      0.05340 [     4]: 02121
      0.03532 [    30]: 21201
      0.02158 [    18]: 12111
      0.01762 [     2]: 01221
      0.01385 [    15]: 12012
      0.01089 [    29]: 21120
      0.00440 [    33]: 22101
ROOT  34:  E=   -3418.7796001628 Eh  1.552 eV  12517.9 cm**-1
      0.41948 [    18]: 12111
      0.30694 [    10]: 11112
      0.08251 [    26]: 21021
      0.04790 [     0]: 01122
      0.04103 [    27]: 21102
      0.03687 [    13]: 11211
      0.03425 [     2]: 01221
      0.00784 [     7]: 10212
      0.00778 [    30]: 21201
      0.00354 [    23]: 20121
ROOT  35:  E=   -3418.7212925109 Eh  3.139 eV  25314.9 cm**-1
      0.30276 [     4]: 02121
      0.17730 [     0]: 01122
      0.11957 [    23]: 20121
      0.08408 [    13]: 11211
      0.07362 [     2]: 01221
      0.06039 [    26]: 21021
      0.04375 [    33]: 22101
      0.02929 [    30]: 21201
      0.02927 [    18]: 12111
      0.01776 [     5]: 02211
      0.01381 [    15]: 12012
      0.01064 [    10]: 11112
      0.00592 [    25]: 21012
      0.00467 [    27]: 21102
      0.00418 [    22]: 20112
      0.00360 [    31]: 21210
      0.00305 [    29]: 21120
ROOT  36:  E=   -3418.7197689722 Eh  3.180 eV  25649.3 cm**-1
      0.30334 [     5]: 02211
      0.10961 [    25]: 21012
      0.10440 [    22]: 20112
      0.07402 [    31]: 21210
      0.05701 [     3]: 02112
      0.05046 [    11]: 11121
      0.05005 [    34]: 22110
      0.04528 [    19]: 12120
      0.03593 [    24]: 20211
      0.03587 [    32]: 22011
      0.02074 [    16]: 12021
      0.02069 [    28]: 21111
      0.02054 [     9]: 11022
      0.01358 [     4]: 02121
      0.01058 [    20]: 12201
      0.00731 [     0]: 01122
      0.00671 [    17]: 12102
      0.00601 [    23]: 20121
      0.00591 [     1]: 01212
      0.00519 [    13]: 11211
      0.00316 [    26]: 21021
      0.00281 [     2]: 01221
ROOT  37:  E=   -3418.7172660859 Eh  3.248 eV  26198.6 cm**-1
      0.20214 [     2]: 01221
      0.16294 [    26]: 21021
      0.13176 [    30]: 21201
      0.12279 [    10]: 11112
      0.12257 [     4]: 02121
      0.07458 [    23]: 20121
      0.07033 [    18]: 12111
      0.05582 [    33]: 22101
      0.03854 [    13]: 11211
      0.00609 [    27]: 21102
      0.00523 [    29]: 21120
      0.00272 [     0]: 01122
ROOT  38:  E=   -3418.7147150076 Eh  3.318 eV  26758.5 cm**-1
      0.22023 [    20]: 12201
      0.17306 [     6]: 10122
      0.07273 [     9]: 11022
      0.07219 [    16]: 12021
      0.06559 [    25]: 21012
      0.05219 [    11]: 11121
      0.05169 [     5]: 02211
      0.04975 [    24]: 20211
      0.04165 [    19]: 12120
      0.03855 [    28]: 21111
      0.02835 [     8]: 10221
      0.02833 [     1]: 01212
      0.02745 [     3]: 02112
      0.02441 [    34]: 22110
      0.01843 [    17]: 12102
      0.01438 [    31]: 21210
      0.01095 [    22]: 20112
      0.00607 [    12]: 11202
ROOT  39:  E=   -3418.7114508568 Eh  3.406 eV  27474.9 cm**-1
      0.29287 [    22]: 20112
      0.13397 [    25]: 21012
      0.10761 [    28]: 21111
      0.07368 [     9]: 11022
      0.04506 [    31]: 21210
      0.04248 [    27]: 21102
      0.04176 [    34]: 22110
      0.03879 [    14]: 11220
      0.02960 [    16]: 12021
      0.02639 [     1]: 01212
      0.02447 [     3]: 02112
      0.02079 [     8]: 10221
      0.01470 [     0]: 01122
      0.01236 [    11]: 11121
      0.01184 [     5]: 02211
      0.01176 [    20]: 12201
      0.00932 [    24]: 20211
      0.00895 [    30]: 21201
      0.00800 [    33]: 22101
      0.00800 [    13]: 11211
      0.00772 [    29]: 21120
      0.00496 [     6]: 10122
      0.00413 [    21]: 12210
      0.00401 [    23]: 20121
      0.00358 [    26]: 21021
      0.00318 [    18]: 12111
      0.00304 [    12]: 11202
ROOT  40:  E=   -3418.7112639485 Eh  3.412 eV  27516.0 cm**-1
      0.34860 [    27]: 21102
      0.11784 [     0]: 01122
      0.07147 [    30]: 21201
      0.06914 [    29]: 21120
      0.06657 [    33]: 22101
      0.06240 [    13]: 11211
      0.04632 [    21]: 12210
      0.04196 [    22]: 20112
      0.03214 [    18]: 12111
      0.02678 [    23]: 20121
      0.02666 [    26]: 21021
      0.01258 [    28]: 21111
      0.01233 [    25]: 21012
      0.00838 [     9]: 11022
      0.00731 [    10]: 11112
      0.00594 [     7]: 10212
      0.00575 [    31]: 21210
      0.00544 [     2]: 01221
      0.00537 [    34]: 22110
      0.00454 [    14]: 11220
      0.00425 [    15]: 12012
      0.00338 [     3]: 02112
      0.00297 [    16]: 12021
      0.00254 [     8]: 10221
ROOT  41:  E=   -3418.7065560030 Eh  3.540 eV  28549.2 cm**-1
      0.18877 [     6]: 10122
      0.15216 [     9]: 11022
      0.14933 [    19]: 12120
      0.14048 [    11]: 11121
      0.07373 [    25]: 21012
      0.06029 [    16]: 12021
      0.04682 [    20]: 12201
      0.03427 [     5]: 02211
      0.03208 [    31]: 21210
      0.02914 [    17]: 12102
      0.01849 [    21]: 12210
      0.01249 [    24]: 20211
      0.01037 [    14]: 11220
      0.00974 [     8]: 10221
      0.00938 [     1]: 01212
      0.00925 [    28]: 21111
      0.00574 [    32]: 22011
      0.00481 [     3]: 02112
      0.00426 [     7]: 10212
      0.00298 [    15]: 12012
ROOT  42:  E=   -3418.7058251239 Eh  3.560 eV  28709.6 cm**-1
      0.19783 [     5]: 02211
      0.17705 [    22]: 20112
      0.08412 [    21]: 12210
      0.06797 [    12]: 11202
      0.05469 [    25]: 21012
      0.05201 [    14]: 11220
      0.04524 [     9]: 11022
      0.04322 [    24]: 20211
      0.03846 [    11]: 11121
      0.03802 [     1]: 01212
      0.02757 [     6]: 10122
      0.02507 [    20]: 12201
      0.01973 [    32]: 22011
      0.01764 [    28]: 21111
      0.01742 [     7]: 10212
      0.01647 [     8]: 10221
      0.01280 [     3]: 02112
      0.01255 [    15]: 12012
      0.01142 [    17]: 12102
      0.00987 [    34]: 22110
      0.00955 [    31]: 21210
      0.00767 [    13]: 11211
      0.00542 [    19]: 12120
      0.00337 [    16]: 12021
ROOT  43:  E=   -3418.7052223101 Eh  3.576 eV  28841.9 cm**-1
      0.51533 [    21]: 12210
      0.13537 [     7]: 10212
      0.09855 [    15]: 12012
      0.05015 [    13]: 11211
      0.02752 [     9]: 11022
      0.02317 [    22]: 20112
      0.02220 [     6]: 10122
      0.01481 [     5]: 02211
      0.01423 [    12]: 11202
      0.01406 [    27]: 21102
      0.01259 [    14]: 11220
      0.01113 [     0]: 01122
      0.00922 [    19]: 12120
      0.00899 [    29]: 21120
      0.00554 [    17]: 12102
      0.00543 [    23]: 20121
      0.00394 [    16]: 12021
      0.00391 [    28]: 21111
      0.00325 [     1]: 01212
      0.00306 [    24]: 20211
      0.00263 [     3]: 02112
ROOT  44:  E=   -3418.7022549836 Eh  3.657 eV  29493.2 cm**-1
      0.20548 [    20]: 12201
      0.15725 [     9]: 11022
      0.11791 [    12]: 11202
      0.11255 [    25]: 21012
      0.08789 [    14]: 11220
      0.06062 [     6]: 10122
      0.04153 [    19]: 12120
      0.03803 [    17]: 12102
      0.03299 [    28]: 21111
      0.03036 [     5]: 02211
      0.02512 [    11]: 11121
      0.02210 [    16]: 12021
      0.02210 [     8]: 10221
      0.01433 [    32]: 22011
      0.01356 [     1]: 01212
      0.00782 [    34]: 22110
      0.00509 [    22]: 20112
      0.00272 [     3]: 02112

                 <<<<<<<<<<<<<<<<<<INITIAL CI STATE CHECK>>>>>>>>>>>>>>>>>>

   E(CAS)= -3418.840417501 Eh DE=    0.000000e+00
   --- Energy gap subspaces: Ext-Act = 0.146   Act-Int = 0.080
   N(occ)=  1.20000 1.20000 1.20000 1.20000 1.20000
   ||g|| =     2.780529e+00 Max(G)=   -5.172884e-01 Rot=592,1
   --- Orbital Update [SuperCI(PT)]
   --- Canonicalize Internal Space
   --- Canonicalize External Space
   --- SX_PT (Skipped TA=0 IT=0): ||X|| =      0.596513159 Max(X)(165,160) =     -0.137471163 
   --- SFit(Active Orbitals)

MACRO-ITERATION   2: 
   --- Inactive Energy E0 = -3404.35019073 Eh
CI-ITERATION   0: 
 -3419.380464630   0.000000000000 (    0.00)
 -3419.377078524   0.000000000000
 -3419.376264874   0.000000000000
 -3419.370844686   0.000000000000
 -3419.370518984   0.000000000000
   CI-PROBLEM SOLVED
   DENSITIES MADE
CI-ITERATION   0: 
 -3419.296400380   0.000000000000 (    0.00)
 -3419.296395848   0.000000000000
 -3419.295572960   0.000000000000
 -3419.295454009   0.000000000000
 -3419.294461744   0.000000000000
 -3419.294400244   0.000000000000
 -3419.292657897   0.000000000000
 -3419.292344355   0.000000000000
 -3419.291075852   0.000000000000
 -3419.290021593   0.000000000000
 -3419.289742834   0.000000000000
 -3419.285776503   0.000000000000
 -3419.285077847   0.000000000000
 -3419.283547116   0.000000000000
 -3419.281805319   0.000000000000
 -3419.281681175   0.000000000000
 -3419.281035425   0.000000000000
 -3419.280038321   0.000000000000
 -3419.280023428   0.000000000000
 -3419.279190096   0.000000000000
 -3419.275837171   0.000000000000
 -3419.273552724   0.000000000000
 -3419.272572620   0.000000000000
 -3419.271052117   0.000000000000
 -3419.269983835   0.000000000000
 -3419.269660768   0.000000000000
 -3419.267686293   0.000000000000
 -3419.267589417   0.000000000000
 -3419.265060458   0.000000000000
 -3419.265009575   0.000000000000
 -3419.239983637   0.000000000000
 -3419.239948972   0.000000000000
 -3419.238565310   0.000000000000
 -3419.238349674   0.000000000000
 -3419.236404300   0.000000000000
 -3419.156259966   0.000000000000
 -3419.155418819   0.000000000000
 -3419.152261130   0.000000000000
 -3419.150917715   0.000000000000
 -3419.150433664   0.000000000000
 -3419.150121464   0.000000000000
 -3419.148259928   0.000000000000
 -3419.144994099   0.000000000000
 -3419.141254997   0.000000000000
 -3419.132118271   0.000000000000
   CI-PROBLEM SOLVED
   DENSITIES MADE
   E(CAS)= -3419.311294946 Eh DE=   -4.708774e-01
   --- Energy gap subspaces: Ext-Act = 0.352   Act-Int = -0.134
   N(occ)=  1.20000 1.20000 1.20000 1.20000 1.20000
   ||g|| =     1.135014e+00 Max(G)=    1.344592e-01 Rot=592,21
   --- Orbital Update [SuperCI(PT)]
   --- Canonicalize Internal Space
   --- Canonicalize External Space
   --- SX_PT (Skipped TA=0 IT=0): ||X|| =      0.244770187 Max(X)(170,162) =     -0.062925092 
   --- SFit(Active Orbitals)

MACRO-ITERATION   3: 
   --- Inactive Energy E0 = -3404.90400507 Eh
CI-ITERATION   0: 
 -3419.438067460   0.000000000000 (    0.00)
 -3419.435655798   0.000000000000
 -3419.433652181   0.000000000000
 -3419.433242479   0.000000000000
 -3419.433065247   0.000000000000
   CI-PROBLEM SOLVED
   DENSITIES MADE
CI-ITERATION   0: 
 -3419.347545811   0.000000000000 (    0.00)
 -3419.347427850   0.000000000000
 -3419.345984502   0.000000000000
 -3419.345482756   0.000000000000
 -3419.345041975   0.000000000000
 -3419.343943917   0.000000000000
 -3419.343752130   0.000000000000
 -3419.343633369   0.000000000000
 -3419.343284932   0.000000000000
 -3419.342379516   0.000000000000
 -3419.342308500   0.000000000000
 -3419.335917308   0.000000000000
 -3419.334708865   0.000000000000
 -3419.334343437   0.000000000000
 -3419.331925158   0.000000000000
 -3419.331418617   0.000000000000
 -3419.330821496   0.000000000000
 -3419.330619951   0.000000000000
 -3419.329558816   0.000000000000
 -3419.328914772   0.000000000000
 -3419.328313994   0.000000000000
 -3419.321865143   0.000000000000
 -3419.320995848   0.000000000000
 -3419.320631916   0.000000000000
 -3419.320333562   0.000000000000
 -3419.320134878   0.000000000000
 -3419.320007637   0.000000000000
 -3419.318611534   0.000000000000
 -3419.318077115   0.000000000000
 -3419.317937988   0.000000000000
 -3419.287469332   0.000000000000
 -3419.286878692   0.000000000000
 -3419.286472727   0.000000000000
 -3419.285601507   0.000000000000
 -3419.285219637   0.000000000000
 -3419.191105429   0.000000000000
 -3419.190612042   0.000000000000
 -3419.190110888   0.000000000000
 -3419.188717360   0.000000000000
 -3419.187775698   0.000000000000
 -3419.187492546   0.000000000000
 -3419.186915395   0.000000000000
 -3419.185993705   0.000000000000
 -3419.185123296   0.000000000000
 -3419.182207348   0.000000000000
   CI-PROBLEM SOLVED
   DENSITIES MADE
   E(CAS)= -3419.365075193 Eh DE=   -5.378025e-02
   --- Energy gap subspaces: Ext-Act = 0.123   Act-Int = 0.103
   N(occ)=  1.20000 1.20000 1.20000 1.20000 1.20000
   ||g|| =     8.275510e-01 Max(G)=   -1.993340e-01 Rot=592,21
   --- Orbital Update [SuperCI(PT)]
   --- Canonicalize Internal Space
   --- Canonicalize External Space
   --- SX_PT (Skipped TA=0 IT=0): ||X|| =      0.234837311 Max(X)(165,160) =     -0.091783524 
   --- SFit(Active Orbitals)

MACRO-ITERATION   4: 
   --- Inactive Energy E0 = -3403.75592221 Eh
CI-ITERATION   0: 
 -3419.473965658   0.000000000000 (    0.00)
 -3419.473127046   0.000000000000
 -3419.470591468   0.000000000000
 -3419.467079002   0.000000000000
 -3419.466488679   0.000000000000
   CI-PROBLEM SOLVED
   DENSITIES MADE
CI-ITERATION   0: 
 -3419.380329348   0.000000000000 (    0.00)
 -3419.380304974   0.000000000000
 -3419.378832779   0.000000000000
 -3419.378481106   0.000000000000
 -3419.378193971   0.000000000000
 -3419.377228319   0.000000000000
 -3419.377209441   0.000000000000
 -3419.376550914   0.000000000000
 -3419.376421557   0.000000000000
 -3419.375034087   0.000000000000
 -3419.374998893   0.000000000000
 -3419.368339560   0.000000000000
 -3419.367560643   0.000000000000
 -3419.367111670   0.000000000000
 -3419.364154655   0.000000000000
 -3419.363659747   0.000000000000
 -3419.363485514   0.000000000000
 -3419.362942149   0.000000000000
 -3419.361938128   0.000000000000
 -3419.361871627   0.000000000000
 -3419.361340652   0.000000000000
 -3419.353545275   0.000000000000
 -3419.353271059   0.000000000000
 -3419.352761814   0.000000000000
 -3419.352307109   0.000000000000
 -3419.351770633   0.000000000000
 -3419.351224821   0.000000000000
 -3419.350631272   0.000000000000
 -3419.349717811   0.000000000000
 -3419.349709153   0.000000000000
 -3419.318049583   0.000000000000
 -3419.317992118   0.000000000000
 -3419.316749093   0.000000000000
 -3419.316703398   0.000000000000
 -3419.315588588   0.000000000000
 -3419.221644394   0.000000000000
 -3419.221425401   0.000000000000
 -3419.218227281   0.000000000000
 -3419.217895434   0.000000000000
 -3419.217604520   0.000000000000
 -3419.215817867   0.000000000000
 -3419.213952389   0.000000000000
 -3419.211344118   0.000000000000
 -3419.208775921   0.000000000000
 -3419.206430922   0.000000000000
   CI-PROBLEM SOLVED
   DENSITIES MADE
   E(CAS)= -3419.398448848 Eh DE=   -3.337366e-02
   --- Energy gap subspaces: Ext-Act = 0.253   Act-Int = -0.031
   N(occ)=  1.20000 1.20000 1.20000 1.20000 1.20000
   ||g|| =     2.444004e-01 Max(G)=    1.343274e-02 Rot=177,75
   --- Orbital Update [SuperCI(PT)]
   --- Canonicalize Internal Space
   --- Canonicalize External Space
   --- SX_PT (Skipped TA=0 IT=0): ||X|| =      0.066694209 Max(X)(165,160) =      0.020045464 
   --- SFit(Active Orbitals)

MACRO-ITERATION   5: 
   --- Inactive Energy E0 = -3403.79815006 Eh
CI-ITERATION   0: 
 -3419.477114669   0.000000000000 (    0.00)
 -3419.476563092   0.000000000000
 -3419.474188474   0.000000000000
 -3419.470699690   0.000000000000
 -3419.470179151   0.000000000000
   CI-PROBLEM SOLVED
   DENSITIES MADE
CI-ITERATION   0: 
 -3419.382223712   0.000000000000 (    0.00)
 -3419.382198177   0.000000000000
 -3419.380889835   0.000000000000
 -3419.380558960   0.000000000000
 -3419.380316949   0.000000000000
 -3419.379399231   0.000000000000
 -3419.379353303   0.000000000000
 -3419.378755980   0.000000000000
 -3419.378623373   0.000000000000
 -3419.377410548   0.000000000000
 -3419.377385883   0.000000000000
 -3419.370115639   0.000000000000
 -3419.369476378   0.000000000000
 -3419.369016751   0.000000000000
 -3419.366057613   0.000000000000
 -3419.365611494   0.000000000000
 -3419.365489518   0.000000000000
 -3419.364949277   0.000000000000
 -3419.364137580   0.000000000000
 -3419.363968493   0.000000000000
 -3419.363543186   0.000000000000
 -3419.355401453   0.000000000000
 -3419.355114530   0.000000000000
 -3419.354667872   0.000000000000
 -3419.354258107   0.000000000000
 -3419.353702625   0.000000000000
 -3419.353303907   0.000000000000
 -3419.352668232   0.000000000000
 -3419.351820994   0.000000000000
 -3419.351803734   0.000000000000
 -3419.319444245   0.000000000000
 -3419.319393929   0.000000000000
 -3419.318253745   0.000000000000
 -3419.318184227   0.000000000000
 -3419.317152332   0.000000000000
 -3419.221302411   0.000000000000
 -3419.221183157   0.000000000000
 -3419.218145471   0.000000000000
 -3419.217832706   0.000000000000
 -3419.217671675   0.000000000000
 -3419.215958839   0.000000000000
 -3419.214226850   0.000000000000
 -3419.211635783   0.000000000000
 -3419.209095021   0.000000000000
 -3419.207141291   0.000000000000
   CI-PROBLEM SOLVED
   DENSITIES MADE
   E(CAS)= -3419.400972785 Eh DE=   -2.523937e-03
   --- Energy gap subspaces: Ext-Act = 0.229   Act-Int = -0.009
   N(occ)=  1.20000 1.20000 1.20000 1.20000 1.20000
   ||g|| =     1.576815e-01 Max(G)=   -1.298277e-02 Rot=165,160
   --- Orbital Update [SuperCI(PT)]
   --- Canonicalize Internal Space
   --- Canonicalize External Space
   --- SX_PT (Skipped TA=0 IT=0): ||X|| =      0.051629414 Max(X)(165,160) =     -0.018934268 
   --- SFit(Active Orbitals)

MACRO-ITERATION   6: 
   --- Inactive Energy E0 = -3403.56392711 Eh
CI-ITERATION   0: 
 -3419.479272697   0.000000000000 (    0.00)
 -3419.478749917   0.000000000000
 -3419.476409023   0.000000000000
 -3419.472663769   0.000000000000
 -3419.472193754   0.000000000000
   CI-PROBLEM SOLVED
   DENSITIES MADE
CI-ITERATION   0: 
 -3419.383236824   0.000000000000 (    0.00)
 -3419.383207149   0.000000000000
 -3419.381974508   0.000000000000
 -3419.381585659   0.000000000000
 -3419.381474277   0.000000000000
 -3419.380437804   0.000000000000
 -3419.380390053   0.000000000000
 -3419.379797620   0.000000000000
 -3419.379638960   0.000000000000
 -3419.378563025   0.000000000000
 -3419.378538951   0.000000000000
 -3419.370993726   0.000000000000
 -3419.370366801   0.000000000000
 -3419.369893533   0.000000000000
 -3419.366913968   0.000000000000
 -3419.366490692   0.000000000000
 -3419.366400425   0.000000000000
 -3419.365833716   0.000000000000
 -3419.365110179   0.000000000000
 -3419.364875386   0.000000000000
 -3419.364463223   0.000000000000
 -3419.356263059   0.000000000000
 -3419.355933064   0.000000000000
 -3419.355518304   0.000000000000
 -3419.355109634   0.000000000000
 -3419.354487118   0.000000000000
 -3419.354167955   0.000000000000
 -3419.353459887   0.000000000000
 -3419.352649235   0.000000000000
 -3419.352627701   0.000000000000
 -3419.319835739   0.000000000000
 -3419.319809341   0.000000000000
 -3419.318671792   0.000000000000
 -3419.318613608   0.000000000000
 -3419.317588358   0.000000000000
 -3419.220503292   0.000000000000
 -3419.220445402   0.000000000000
 -3419.217442320   0.000000000000
 -3419.217148090   0.000000000000
 -3419.217083520   0.000000000000
 -3419.215349792   0.000000000000
 -3419.213687908   0.000000000000
 -3419.210821469   0.000000000000
 -3419.208311858   0.000000000000
 -3419.206522033   0.000000000000
   CI-PROBLEM SOLVED
   DENSITIES MADE
   E(CAS)= -3419.402287104 Eh DE=   -1.314319e-03
   --- Energy gap subspaces: Ext-Act = 0.244   Act-Int = -0.024
   N(occ)=  1.20000 1.20000 1.20000 1.20000 1.20000
   ||g|| =     7.979677e-02 Max(G)=   -2.024557e-02 Rot=592,21
   --- Orbital Update [SuperCI(PT)]
   --- Canonicalize Internal Space
   --- Canonicalize External Space
   --- SX_PT (Skipped TA=0 IT=0): ||X|| =      0.018559523 Max(X)(165,160) =      0.006435141 
   --- SFit(Active Orbitals)

MACRO-ITERATION   7: 
   --- Inactive Energy E0 = -3403.51717885 Eh
CI-ITERATION   0: 
 -3419.479600463   0.000000000000 (    0.00)
 -3419.479012179   0.000000000000
 -3419.476760778   0.000000000000
 -3419.472952611   0.000000000000
 -3419.472488927   0.000000000000
   CI-PROBLEM SOLVED
   DENSITIES MADE
CI-ITERATION   0: 
 -3419.383480611   0.000000000000 (    0.00)
 -3419.383448451   0.000000000000
 -3419.382230188   0.000000000000
 -3419.381817589   0.000000000000
 -3419.381764388   0.000000000000
 -3419.380683555   0.000000000000
 -3419.380643613   0.000000000000
 -3419.380064727   0.000000000000
 -3419.379894310   0.000000000000
 -3419.378887514   0.000000000000
 -3419.378865065   0.000000000000
 -3419.371238374   0.000000000000
 -3419.370611116   0.000000000000
 -3419.370110135   0.000000000000
 -3419.367150189   0.000000000000
 -3419.366743531   0.000000000000
 -3419.366677283   0.000000000000
 -3419.366092790   0.000000000000
 -3419.365421453   0.000000000000
 -3419.365165970   0.000000000000
 -3419.364757937   0.000000000000
 -3419.356540533   0.000000000000
 -3419.356201658   0.000000000000
 -3419.355788794   0.000000000000
 -3419.355390390   0.000000000000
 -3419.354756539   0.000000000000
 -3419.354471781   0.000000000000
 -3419.353743941   0.000000000000
 -3419.352960145   0.000000000000
 -3419.352936245   0.000000000000
 -3419.320081090   0.000000000000
 -3419.320045757   0.000000000000
 -3419.318934203   0.000000000000
 -3419.318874408   0.000000000000
 -3419.317872153   0.000000000000
 -3419.220614201   0.000000000000
 -3419.220580872   0.000000000000
 -3419.217609313   0.000000000000
 -3419.217342518   0.000000000000
 -3419.217304903   0.000000000000
 -3419.215648404   0.000000000000
 -3419.214038860   0.000000000000
 -3419.211021357   0.000000000000
 -3419.208627638   0.000000000000
 -3419.206807219   0.000000000000
   CI-PROBLEM SOLVED
   DENSITIES MADE
   E(CAS)= -3419.402569737 Eh DE=   -2.826325e-04
   --- Energy gap subspaces: Ext-Act = 0.251   Act-Int = -0.031
   N(occ)=  1.20000 1.20000 1.20000 1.20000 1.20000
   ||g|| =     2.033987e-02 Max(G)=   -1.504278e-03 Rot=167,159
   --- Orbital Update [SuperCI(PT)]
   --- Canonicalize Internal Space
   --- Canonicalize External Space
   --- SX_PT (Skipped TA=0 IT=0): ||X|| =      0.005546137 Max(X)(167,159) =     -0.001748812 
   --- SFit(Active Orbitals)

MACRO-ITERATION   8: 
   --- Inactive Energy E0 = -3403.51613423 Eh
CI-ITERATION   0: 
 -3419.479596932   0.000000000000 (    0.00)
 -3419.478966244   0.000000000000
 -3419.476750465   0.000000000000
 -3419.472959517   0.000000000000
 -3419.472489471   0.000000000000
   CI-PROBLEM SOLVED
   DENSITIES MADE
CI-ITERATION   0: 
 -3419.383519829   0.000000000000 (    0.00)
 -3419.383485894   0.000000000000
 -3419.382271864   0.000000000000
 -3419.381849028   0.000000000000
 -3419.381812676   0.000000000000
 -3419.380713063   0.000000000000
 -3419.380672767   0.000000000000
 -3419.380100809   0.000000000000
 -3419.379923242   0.000000000000
 -3419.378933082   0.000000000000
 -3419.378911449   0.000000000000
 -3419.371284689   0.000000000000
 -3419.370650211   0.000000000000
 -3419.370145200   0.000000000000
 -3419.367190280   0.000000000000
 -3419.366785732   0.000000000000
 -3419.366728347   0.000000000000
 -3419.366137782   0.000000000000
 -3419.365468424   0.000000000000
 -3419.365209388   0.000000000000
 -3419.364797722   0.000000000000
 -3419.356600086   0.000000000000
 -3419.356258210   0.000000000000
 -3419.355847816   0.000000000000
 -3419.355445452   0.000000000000
 -3419.354807964   0.000000000000
 -3419.354530302   0.000000000000
 -3419.353791724   0.000000000000
 -3419.353020379   0.000000000000
 -3419.352995346   0.000000000000
 -3419.320157491   0.000000000000
 -3419.320118941   0.000000000000
 -3419.319003866   0.000000000000
 -3419.318945611   0.000000000000
 -3419.317952177   0.000000000000
 -3419.220698007   0.000000000000
 -3419.220669802   0.000000000000
[...]
      f+1     :     0.000459
      f-1     :     0.000404
      f+2     :     0.001045
      f-2     :     0.000489
      f+3     :     0.000634
      f-3     :     0.000646
 16 Fes       :     6.241234  s :     6.241234
      pz      :     4.168598  p :    12.583016
      px      :     4.198277
      py      :     4.216142
      dz2     :     1.429957  d :     7.369644
      dxz     :     1.432650
      dyz     :     1.488999
      dx2y2   :     1.522293
      dxy     :     1.495745
      f0      :     0.000045  f :     0.000394
      f+1     :     0.000053
      f-1     :     0.000055
      f+2     :     0.000037
      f-2     :     0.000080
      f+3     :     0.000080
      f-3     :     0.000044

SPIN
  0 Aus       :     0.000892  s :     0.000892
      pz      :     0.001078  p :     0.002599
      px      :     0.001146
      py      :     0.000375
      dz2     :     0.001199  d :     0.006432
      dxz     :     0.000720
      dyz     :     0.001833
      dx2y2   :     0.001176
      dxy     :     0.001504
      f0      :     0.000012  f :     0.000100
      f+1     :     0.000005
      f-1     :     0.000014
      f+2     :     0.000013
      f-2     :     0.000027
      f+3     :     0.000020
      f-3     :     0.000010
  1 Aus       :     0.001912  s :     0.001912
      pz      :     0.000783  p :     0.002471
      px      :     0.000875
      py      :     0.000814
      dz2     :     0.000724  d :     0.004523
      dxz     :     0.001528
      dyz     :     0.001244
      dx2y2   :     0.000172
      dxy     :     0.000855
      f0      :     0.000005  f :     0.000048
      f+1     :     0.000009
      f-1     :     0.000005
      f+2     :     0.000006
      f-2     :     0.000017
      f+3     :     0.000002
      f-3     :     0.000004
  2 Aus       :     0.001400  s :     0.001400
      pz      :     0.000872  p :     0.002088
      px      :     0.000662
      py      :     0.000554
      dz2     :     0.000403  d :     0.002251
      dxz     :     0.000352
      dyz     :     0.000994
      dx2y2   :     0.000329
      dxy     :     0.000174
      f0      :     0.000001  f :     0.000010
      f+1     :     0.000001
      f-1     :     0.000004
      f+2     :     0.000002
      f-2     :     0.000001
      f+3     :     0.000001
      f-3     :     0.000001
  3 Aus       :     0.001506  s :     0.001506
      pz      :     0.000323  p :     0.002007
      px      :     0.000419
      py      :     0.001265
      dz2     :     0.000114  d :     0.000378
      dxz     :     0.000050
      dyz     :     0.000118
      dx2y2   :     0.000074
      dxy     :     0.000022
      f0      :     0.000000  f :     0.000003
      f+1     :     0.000000
      f-1     :     0.000000
      f+2     :     0.000001
      f-2     :     0.000000
      f+3     :     0.000000
      f-3     :     0.000000
  4 Aus       :     0.001373  s :     0.001373
      pz      :     0.000444  p :     0.001642
      px      :     0.000703
      py      :     0.000495
      dz2     :     0.000811  d :     0.004295
      dxz     :     0.000749
      dyz     :     0.000049
      dx2y2   :     0.002111
      dxy     :     0.000575
      f0      :     0.000005  f :     0.000064
      f+1     :     0.000016
      f-1     :     0.000001
      f+2     :     0.000008
      f-2     :     0.000001
      f+3     :     0.000027
      f-3     :     0.000007
  5 Aus       :     0.001505  s :     0.001505
      pz      :     0.000304  p :     0.001957
      px      :     0.001048
      py      :     0.000605
      dz2     :     0.000197  d :     0.000459
      dxz     :     0.000054
      dyz     :     0.000044
      dx2y2   :     0.000083
      dxy     :     0.000081
      f0      :     0.000001  f :     0.000003
      f+1     :     0.000000
      f-1     :     0.000000
      f+2     :     0.000000
      f-2     :     0.000000
      f+3     :     0.000000
      f-3     :     0.000000
  6 Aus       :     0.001084  s :     0.001084
      pz      :     0.000834  p :     0.001914
      px      :     0.000546
      py      :     0.000533
      dz2     :     0.000902  d :     0.004227
      dxz     :     0.000156
      dyz     :     0.000513
      dx2y2   :     0.001605
      dxy     :     0.001051
      f0      :     0.000004  f :     0.000072
      f+1     :     0.000004
      f-1     :     0.000019
      f+2     :     0.000004
      f-2     :     0.000003
      f+3     :     0.000026
      f-3     :     0.000012
  7 Aus       :     0.001374  s :     0.001374
      pz      :     0.000787  p :     0.002498
      px      :     0.000917
      py      :     0.000794
      dz2     :     0.001276  d :     0.005220
      dxz     :     0.000838
      dyz     :     0.000760
      dx2y2   :     0.000513
      dxy     :     0.001833
      f0      :     0.000010  f :     0.000074
      f+1     :     0.000004
      f-1     :     0.000007
      f+2     :     0.000003
      f-2     :     0.000023
      f+3     :     0.000016
      f-3     :     0.000011
  8 Aus       :     0.000632  s :     0.000632
      pz      :     0.000437  p :     0.001733
      px      :     0.000693
      py      :     0.000603
      dz2     :     0.000370  d :     0.004344
      dxz     :     0.000650
      dyz     :     0.001533
      dx2y2   :     0.000621
      dxy     :     0.001171
      f0      :     0.000011  f :     0.000084
      f+1     :     0.000004
      f-1     :     0.000010
      f+2     :     0.000009
      f-2     :     0.000032
      f+3     :     0.000012
      f-3     :     0.000004
  9 Aus       :     0.001532  s :     0.001532
      pz      :     0.000485  p :     0.001028
      px      :     0.000145
      py      :     0.000398
      dz2     :     0.002034  d :     0.004500
      dxz     :     0.001012
      dyz     :     0.001094
      dx2y2   :     0.000181
      dxy     :     0.000180
      f0      :     0.000017  f :     0.000062
      f+1     :     0.000017
      f-1     :     0.000018
      f+2     :     0.000002
      f-2     :     0.000007
      f+3     :     0.000001
      f-3     :     0.000001
 10 Aus       :     0.001912  s :     0.001912
      pz      :     0.000341  p :     0.002471
      px      :     0.001147
      py      :     0.000983
      dz2     :     0.000954  d :     0.004556
      dxz     :     0.000866
      dyz     :     0.000090
      dx2y2   :     0.002012
      dxy     :     0.000633
      f0      :     0.000003  f :     0.000049
      f+1     :     0.000014
      f-1     :     0.000001
      f+2     :     0.000005
      f-2     :     0.000000
      f+3     :     0.000021
      f-3     :     0.000005
 11 Aus       :     0.001081  s :     0.001081
      pz      :     0.000339  p :     0.001910
      px      :     0.000924
      py      :     0.000647
      dz2     :     0.000465  d :     0.004236
      dxz     :     0.000868
      dyz     :     0.000857
      dx2y2   :     0.000525
      dxy     :     0.001520
      f0      :     0.000012  f :     0.000073
      f+1     :     0.000003
      f-1     :     0.000003
      f+2     :     0.000003
      f-2     :     0.000030
      f+3     :     0.000014
      f-3     :     0.000006
 12 Aus       :     0.001375  s :     0.001375
      pz      :     0.000319  p :     0.001637
      px      :     0.000662
      py      :     0.000656
      dz2     :     0.000871  d :     0.004338
      dxz     :     0.001602
      dyz     :     0.000949
      dx2y2   :     0.000366
      dxy     :     0.000550
      f0      :     0.000004  f :     0.000065
      f+1     :     0.000024
      f-1     :     0.000011
      f+2     :     0.000005
      f-2     :     0.000017
      f+3     :     0.000001
      f-3     :     0.000002
 13 Aus       :     0.001506  s :     0.001506
      pz      :     0.000619  p :     0.001958
      px      :     0.000482
      py      :     0.000857
      dz2     :     0.000109  d :     0.000464
      dxz     :     0.000209
      dyz     :     0.000051
      dx2y2   :     0.000053
      dxy     :     0.000041
      f0      :     0.000000  f :     0.000003
      f+1     :     0.000000
      f-1     :     0.000000
      f+2     :     0.000000
      f-2     :     0.000001
      f+3     :     0.000001
      f-3     :     0.000000
 14 Aus       :     0.001376  s :     0.001376
      pz      :     0.000717  p :     0.002501
      px      :     0.001015
      py      :     0.000769
      dz2     :     0.001024  d :     0.005210
      dxz     :     0.000242
      dyz     :     0.000792
      dx2y2   :     0.002212
      dxy     :     0.000939
      f0      :     0.000004  f :     0.000073
      f+1     :     0.000003
      f-1     :     0.000020
      f+2     :     0.000005
      f-2     :     0.000002
      f+3     :     0.000022
      f-3     :     0.000017
 15 Aus       :     0.001512  s :     0.001512
      pz      :     0.000567  p :     0.002015
      px      :     0.000662
      py      :     0.000786
      dz2     :     0.000048  d :     0.000378
      dxz     :     0.000094
      dyz     :     0.000107
      dx2y2   :     0.000100
      dxy     :     0.000030
      f0      :     0.000000  f :     0.000003
      f+1     :     0.000000
      f-1     :     0.000000
      f+2     :     0.000000
      f-2     :     0.000000
      f+3     :     0.000000
      f-3     :     0.000001
 16 Fes       :     0.000514  s :     0.000514
      pz      :     0.000688  p :     0.001139
      px      :     0.000293
      py      :     0.000159
      dz2     :     0.581101  d :     2.887353
      dxz     :     0.580802
      dyz     :     0.576704
      dx2y2   :     0.573764
      dxy     :     0.574983
      f0      :     0.000000  f :     0.000001
      f+1     :     0.000000
      f-1     :     0.000000
      f+2     :     0.000000
      f-2     :     0.000000
      f+3     :     0.000000
      f-3     :     0.000000


                      *****************************
                      * MAYER POPULATION ANALYSIS *
                      *****************************

  NA   - Mulliken gross atomic population
  ZA   - Total nuclear charge
  QA   - Mulliken gross atomic charge
  VA   - Mayer's total valence
  BVA  - Mayer's bonded valence
  FA   - Mayer's free valence

  ATOM       NA         ZA         QA         VA         BVA        FA
  0 Au    19.1482    19.0000    -0.1482     1.8398     1.8317     0.0081
  1 Au    19.3131    19.0000    -0.3131     1.8610     1.8534     0.0076
  2 Au    19.6989    19.0000    -0.6989     2.2600     2.2559     0.0041
  3 Au    18.4498    19.0000     0.5502     1.0120     1.0090     0.0030
  4 Au    18.6679    19.0000     0.3321     1.2514     1.2459     0.0055
  5 Au    18.7577    19.0000     0.2423     1.3591     1.3559     0.0033
  6 Au    18.6413    19.0000     0.3587     1.3562     1.3507     0.0055
  7 Au    19.0626    19.0000    -0.0626     1.7466     1.7388     0.0078
  8 Au    18.5717    19.0000     0.4283     1.3098     1.3051     0.0047
  9 Au    18.8257    19.0000     0.1743     1.3783     1.3728     0.0056
 10 Au    19.3117    19.0000    -0.3117     1.8606     1.8530     0.0076
 11 Au    18.6405    19.0000     0.3595     1.3546     1.3491     0.0055
 12 Au    18.6678    19.0000     0.3322     1.2487     1.2432     0.0056
 13 Au    18.7606    19.0000     0.2394     1.3621     1.3588     0.0033
 14 Au    19.0618    19.0000    -0.0618     1.7453     1.7375     0.0078
 15 Au    18.4504    19.0000     0.5496     1.0132     1.0102     0.0030
 16 Fe    27.9704    26.0000    -1.9704     9.2325     4.6241     4.6084

  Mayer bond orders larger than 0.100000
B(  0-Au,  1-Au) :   0.1287 B(  0-Au,  5-Au) :   0.2881 B(  0-Au,  6-Au) :   0.1810 
B(  0-Au, 10-Au) :   0.1272 B(  0-Au, 11-Au) :   0.1795 B(  0-Au, 13-Au) :   0.2883 
B(  0-Au, 16-Fe) :   0.4662 B(  1-Au,  2-Au) :   0.1590 B(  1-Au,  3-Au) :   0.1811 
B(  1-Au,  4-Au) :   0.2021 B(  1-Au,  5-Au) :   0.2658 B(  1-Au,  6-Au) :   0.2524 
B(  1-Au,  7-Au) :   0.1445 B(  1-Au, 16-Fe) :   0.3898 B(  2-Au,  3-Au) :   0.3148 
B(  2-Au,  5-Au) :   0.2360 B(  2-Au,  7-Au) :   0.2772 B(  2-Au, 10-Au) :   0.1579 
B(  2-Au, 13-Au) :   0.2373 B(  2-Au, 14-Au) :   0.2772 B(  2-Au, 15-Au) :   0.3140 
B(  2-Au, 16-Fe) :   0.1597 B(  3-Au,  5-Au) :   0.1256 B(  3-Au,  7-Au) :   0.2017 
B(  4-Au,  7-Au) :   0.1568 B(  4-Au,  8-Au) :   0.1407 B(  4-Au,  9-Au) :   0.1253 
B(  4-Au, 16-Fe) :   0.3317 B(  5-Au, 13-Au) :   0.2247 B(  6-Au,  9-Au) :   0.1734 
B(  6-Au, 11-Au) :   0.1520 B(  6-Au, 16-Fe) :   0.3394 B(  7-Au,  8-Au) :   0.1849 
B(  7-Au, 14-Au) :   0.1508 B(  7-Au, 16-Fe) :   0.4693 B(  8-Au,  9-Au) :   0.1502 
B(  8-Au, 12-Au) :   0.1404 B(  8-Au, 14-Au) :   0.1845 B(  8-Au, 16-Fe) :   0.3305 
B(  9-Au, 11-Au) :   0.1734 B(  9-Au, 12-Au) :   0.1240 B(  9-Au, 16-Fe) :   0.3737 
B( 10-Au, 11-Au) :   0.2536 B( 10-Au, 12-Au) :   0.2012 B( 10-Au, 13-Au) :   0.2662 
B( 10-Au, 14-Au) :   0.1442 B( 10-Au, 15-Au) :   0.1821 B( 10-Au, 16-Fe) :   0.3907 
B( 11-Au, 16-Fe) :   0.3398 B( 12-Au, 14-Au) :   0.1567 B( 12-Au, 16-Fe) :   0.3331 
B( 13-Au, 15-Au) :   0.1254 B( 14-Au, 15-Au) :   0.2019 B( 14-Au, 16-Fe) :   0.4685 



-------------------------------------------------------------
 Forming the transition density       ... done in 0.024580 sec
-------------------------------------------------------------



==========================================
CASSCF UV, CD spectra and dipole moments
==========================================
-------------------
ABSORPTION SPECTRUM
-------------------

Center of mass           = ( 12.7801, 14.3343, 14.3261)
Nuclear contribution to the dipole moment =    -8.686649,    6.448723,  -25.164419 au

Calculating the Dipole integrals                  ... done
Transforming integrals                            ... done
Calculating the Linear Momentum integrals         ... done
Transforming integrals                            ... done
Calculating the Angular Momentum integrals        ... done
Transforming integrals                            ... done

------------------------------------------------------------------------------------------
                                ABSORPTION SPECTRUM
------------------------------------------------------------------------------------------
  States           Energy   Wavelength   fosc          T2        TX         TY        TZ  
                   (cm-1)     (nm)                   (D**2)      (D)        (D)       (D) 
------------------------------------------------------------------------------------------
  0( 0)-> 1( 0) 5     141.3   70759.2   0.000000186   0.00279  -0.04648   0.01506   0.02012
  0( 0)-> 2( 0) 5     615.7   16240.8   0.000001041   0.00359   0.05356  -0.01487  -0.02235
  0( 0)-> 3( 0) 5    1453.7   6879.1   0.000001569   0.00229   0.04244  -0.01187  -0.01870
  0( 0)-> 4( 0) 5    1563.2   6397.0   0.000000674   0.00092  -0.00845  -0.02891   0.00283
------------------------------------------------------------------------------------------



------------------------------------------------------------------------------
                             CD SPECTRUM
------------------------------------------------------------------------------
      States        Energy   Wavelength   R*T        RX        RY        RZ   
                    (cm-1)      (nm)   (1e40*sgs)   (au)      (au)      (au)  
------------------------------------------------------------------------------
  0( 0)-> 1( 0) 5     141.3   70759.2    -0.19107  -0.22902  -0.78866   0.00990
  0( 0)-> 2( 0) 5     615.7   16240.8     0.25788   0.18936  -0.00740   0.39657
  0( 0)-> 3( 0) 5    1453.7   6879.1    -0.10119  -0.24275  -0.44227  -0.24107
  0( 0)-> 4( 0) 5    1563.2   6397.0     0.07918  -0.42978   0.12880   0.18339
------------------------------------------------------------------------------

------------------------------------------------------------------------------
                                 DIPOLE MOMENTS
------------------------------------------------------------------------------
  Root  Block           TX        TY        TZ           |T|
                      (Debye)   (Debye)   (Debye)      (Debye)
------------------------------------------------------------------------------
    0    0           -0.07881  -0.48092   0.16376      0.51411

--------------
CASSCF TIMINGS
--------------

Total time                       ...     2209.9 sec
Sum of individual times          ...     2201.6 sec ( 99.6%)

Calculation of AO operators
   F(Core) operator              ...     1104.5 sec ( 50.0%)
   G(Act) operator               ...      999.7 sec ( 45.2%)
   J(AO) operators               ...        0.0 sec (  0.0%)
Calculation of MO transformed quantities
   J(MO) operators               ...       92.1 sec (  4.2%)
   (pq|rs) integrals             ...        0.0 sec (  0.0%)
   AO->MO one electron integrals ...        0.7 sec (  0.0%)
Configuration interaction steps
   CI-setup phase                ...        0.0 sec (  0.0%)
   CI-solution phase             ...        0.3 sec (  0.0%)
   Generation of densities       ...        0.0 sec (  0.0%)
Orbital improvement steps
   Orbital gradient              ...        0.1 sec (  0.0%)
   O(1) converger                ...        4.1 sec (  0.2%)
Properties                       ...        0.0 sec (  0.0%)
   SOC integral calculation      ...        0.0 sec (  0.0%)
   SSC RMEs (incl. integrals)    ...        0.0 sec (  0.0%)
   SOC RMEs                      ...        0.0 sec (  0.0%)

Maximum memory used throughout the entire CASSCF-calculation: 447.0 MB

-------------------------   --------------------
FINAL SINGLE POINT ENERGY     -3419.402613767585
-------------------------   --------------------


                            ***************************************
                            *     ORCA property calculations      *
                            ***************************************

                                    ---------------------
                                    Active property flags
                                    ---------------------
   (+) Dipole Moment


------------------------------------------------------------------------------
                       ORCA ELECTRIC PROPERTIES CALCULATION
------------------------------------------------------------------------------

Dipole Moment Calculation                       ... on
Quadrupole Moment Calculation                   ... off
Polarizability Calculation                      ... off
GBWName                                         ... casscf.gbw
Electron density                                ... casscf.scfp
The origin for moment calculation is the CENTER OF MASS  = (12.780058, 14.334324 14.326094)

-------------
DIPOLE MOMENT
-------------
                                X             Y             Z
Electronic contribution:      8.65049      -6.64409      25.22377
Nuclear contribution   :     -8.68665       6.44872     -25.16442
                        -----------------------------------------
Total Dipole Moment    :     -0.03616      -0.19537       0.05935
                        -----------------------------------------
Magnitude (a.u.)       :      0.20737
Magnitude (Debye)      :      0.52708



--------------------
Rotational spectrum 
--------------------
 
Rotational constants in cm-1:     0.000949     0.000833     0.000742 
Rotational constants in MHz :    28.443922    24.982853    22.258270 

 Dipole components along the rotational axes: 
x,y,z [a.u.] :     0.084909     0.002154     0.189172 
x,y,z [Debye]:     0.215821     0.005474     0.480838 

 

Timings for individual modules:

Sum of individual times         ...     2231.489 sec (=  37.191 min)
GTO integral calculation        ...       12.891 sec (=   0.215 min)   0.6 %
SCF iterations                  ...        5.996 sec (=   0.100 min)   0.3 %
CASSCF iterations               ...     2212.602 sec (=  36.877 min)  99.2 %
                             ****ORCA TERMINATED NORMALLY****
TOTAL RUN TIME: 0 days 0 hours 37 minutes 12 seconds 137 msec
