
                                 *****************
                                 * O   R   C   A *
                                 *****************

                                            #,                                       
                                            ###                                      
                                            ####                                     
                                            #####                                    
                                            ######                                   
                                           ########,                                 
                                     ,,################,,,,,                         
                               ,,#################################,,                 
                          ,,##########################################,,             
                       ,#########################################, ''#####,          
                    ,#############################################,,   '####,        
                  ,##################################################,,,,####,       
                ,###########''''           ''''###############################       
              ,#####''   ,,,,##########,,,,          '''####'''          '####       
            ,##' ,,,,###########################,,,                        '##       
           ' ,,###''''                  '''############,,,                           
         ,,##''                                '''############,,,,        ,,,,,,###''
      ,#''                                            '''#######################'''  
     '                                                          ''''####''''         
             ,#######,   #######,   ,#######,      ##                                
            ,#'     '#,  ##    ##  ,#'     '#,    #''#        ######   ,####,        
            ##       ##  ##   ,#'  ##            #'  '#       #        #'  '#        
            ##       ##  #######   ##           ,######,      #####,   #    #        
            '#,     ,#'  ##    ##  '#,     ,#' ,#      #,         ##   #,  ,#        
             '#######'   ##     ##  '#######'  #'      '#     #####' # '####'        



                  #######################################################
                  #                        -***-                        #
                  #          Department of theory and spectroscopy      #
                  #    Directorship and core code : Frank Neese         #
                  #        Max Planck Institute fuer Kohlenforschung    #
                  #                Kaiser Wilhelm Platz 1               #
                  #                 D-45470 Muelheim/Ruhr               #
                  #                      Germany                        #
                  #                                                     #
                  #                  All rights reserved                #
                  #                        -***-                        #
                  #######################################################


                         Program Version 5.0.3 -  RELEASE  -


 With contributions from (in alphabetic order):
   Daniel Aravena         : Magnetic Suceptibility
   Michael Atanasov       : Ab Initio Ligand Field Theory (pilot matlab implementation)
   Alexander A. Auer      : GIAO ZORA, VPT2 properties, NMR spectrum
   Ute Becker             : Parallelization
   Giovanni Bistoni       : ED, misc. LED, open-shell LED, HFLD
   Martin Brehm           : Molecular dynamics
   Dmytro Bykov           : SCF Hessian
   Vijay G. Chilkuri      : MRCI spin determinant printing, contributions to CSF-ICE
   Dipayan Datta          : RHF DLPNO-CCSD density
   Achintya Kumar Dutta   : EOM-CC, STEOM-CC
   Dmitry Ganyushin       : Spin-Orbit,Spin-Spin,Magnetic field MRCI
   Miquel Garcia          : C-PCM and meta-GGA Hessian, CC/C-PCM, Gaussian charge scheme
   Yang Guo               : DLPNO-NEVPT2, F12-NEVPT2, CIM, IAO-localization
   Andreas Hansen         : Spin unrestricted coupled pair/coupled cluster methods
   Benjamin Helmich-Paris : MC-RPA, TRAH-SCF, COSX integrals
   Lee Huntington         : MR-EOM, pCC
   Robert Izsak           : Overlap fitted RIJCOSX, COSX-SCS-MP3, EOM
   Marcus Kettner         : VPT2
   Christian Kollmar      : KDIIS, OOCD, Brueckner-CCSD(T), CCSD density, CASPT2, CASPT2-K
   Simone Kossmann        : Meta GGA functionals, TD-DFT gradient, OOMP2, MP2 Hessian
   Martin Krupicka        : Initial AUTO-CI
   Lucas Lang             : DCDCAS
   Marvin Lechner         : AUTO-CI (C++ implementation), FIC-MRCC
   Dagmar Lenk            : GEPOL surface, SMD
   Dimitrios Liakos       : Extrapolation schemes; Compound Job, initial MDCI parallelization
   Dimitrios Manganas     : Further ROCIS development; embedding schemes
   Dimitrios Pantazis     : SARC Basis sets
   Anastasios Papadopoulos: AUTO-CI, single reference methods and gradients
   Taras Petrenko         : DFT Hessian,TD-DFT gradient, ASA, ECA, R-Raman, ABS, FL, XAS/XES, NRVS
   Peter Pinski           : DLPNO-MP2, DLPNO-MP2 Gradient
   Christoph Reimann      : Effective Core Potentials
   Marius Retegan         : Local ZFS, SOC
   Christoph Riplinger    : Optimizer, TS searches, QM/MM, DLPNO-CCSD(T), (RO)-DLPNO pert. Triples
   Tobias Risthaus        : Range-separated hybrids, TD-DFT gradient, RPA, STAB
   Michael Roemelt        : Original ROCIS implementation
   Masaaki Saitow         : Open-shell DLPNO-CCSD energy and density
   Barbara Sandhoefer     : DKH picture change effects
   Avijit Sen             : IP-ROCIS
   Kantharuban Sivalingam : CASSCF convergence, NEVPT2, FIC-MRCI
   Bernardo de Souza      : ESD, SOC TD-DFT
   Georgi Stoychev        : AutoAux, RI-MP2 NMR, DLPNO-MP2 response
   Willem Van den Heuvel  : Paramagnetic NMR
   Boris Wezisla          : Elementary symmetry handling
   Frank Wennmohs         : Technical directorship


 We gratefully acknowledge several colleagues who have allowed us to
 interface, adapt or use parts of their codes:
   Stefan Grimme, W. Hujo, H. Kruse, P. Pracht,  : VdW corrections, initial TS optimization,
                  C. Bannwarth, S. Ehlert          DFT functionals, gCP, sTDA/sTD-DF
   Ed Valeev, F. Pavosevic, A. Kumar             : LibInt (2-el integral package), F12 methods
   Garnet Chan, S. Sharma, J. Yang, R. Olivares  : DMRG
   Ulf Ekstrom                                   : XCFun DFT Library
   Mihaly Kallay                                 : mrcc  (arbitrary order and MRCC methods)
   Jiri Pittner, Ondrej Demel                    : Mk-CCSD
   Frank Weinhold                                : gennbo (NPA and NBO analysis)
   Christopher J. Cramer and Donald G. Truhlar   : smd solvation model
   Lars Goerigk                                  : TD-DFT with DH, B97 family of functionals
   V. Asgeirsson, H. Jonsson                     : NEB implementation
   FAccTs GmbH                                   : IRC, NEB, NEB-TS, DLPNO-Multilevel, CI-OPT
                                                   MM, QMMM, 2- and 3-layer-ONIOM, Crystal-QMMM,
                                                   LR-CPCM, SF, NACMEs, symmetry and pop. for TD-DFT,
                                                   nearIR, NL-DFT gradient (VV10), updates on ESD,
                                                   ML-optimized integration grids
   S Lehtola, MJT Oliveira, MAL Marques          : LibXC Library
   Liviu Ungur et al                             : ANISO software


 Your calculation uses the libint2 library for the computation of 2-el integrals
 For citations please refer to: http://libint.valeyev.net

 Your ORCA version has been built with support for libXC version: 5.1.0
 For citations please refer to: https://tddft.org/programs/libxc/

 This ORCA versions uses:
   CBLAS   interface :  Fast vector & matrix operations
   LAPACKE interface :  Fast linear algebra routines
   SCALAPACK package :  Parallel linear algebra routines
   Shared memory     :  Shared parallel matrices
   BLAS/LAPACK       :  OpenBLAS 0.3.15  USE64BITINT DYNAMIC_ARCH NO_AFFINITY Haswell SINGLE_THREADED
        Core in use  :  Haswell
   Copyright (c) 2011-2014, The OpenBLAS Project




***************************************
The coordinates will be read from file: pbe.xyz
***************************************


================================================================================

cite the ECPs for Au [Def2-ECP] as follows:
Ce-Yb(ecp-28): M. Dolg, H. Stoll, H.Preuss, J. Chem. Phys., 1989, 90, 1730-1734.
Y-Cd(ecp-28), Hf-Hg(ecp-46): D. Andrae,U. Haeussermann, M. Dolg, H. Stoll, H. Preuss, Theor. Chim. Acta, 1990, 77, 123-141.
In-Sb(ecp-28), Tl-Bi(ecp-46): B. Metz, H. Stoll, M. Dolg, J. Chem. Phys., 2000, 113, 2563-2569.
Te-Xe(ecp-28), Po-Rn(ecp-46): K. A. Peterson, D. Figgen, E. Goll, H. Stoll, M. Dolg, J. Chem. Phys., 2003, 119, 11113-11123.
Rb(ecp-28), Cs(ecp-46): T. Leininger, A. Nicklass, W. Kuechle, H. Stoll, M. Dolg, A. Bergner, Chem. Phys. Lett., 1996, 255, 274-280.
Sr(ecp-28), Ba(ecp-46): M. Kaupp, P. V. Schleyer, H. Stoll and H. Preuss, J. Chem. Phys., 1991, 94, 1360-1366.
La(ecp-46): M. Dolg, H. Stoll, A. Savin, H. Preuss, Theor. Chim. Acta, 1989, 75, 173-194.
Lu(ecp-28): X. Cao, M. Dolg, J. Chem. Phys., 2001, 115, 7348-7355.

ECP parameters for Au [Def2-ECP] have been obtained from:
TURBOMOLE (7.0.2)

----- Orbital basis set information -----
Your calculation utilizes the basis: def2-TZVP
   F. Weigend and R. Ahlrichs, Phys. Chem. Chem. Phys. 7, 3297 (2005).

----- AuxJ basis set information -----
Your calculation utilizes the auxiliary basis: def2/J
   F. Weigend, Phys. Chem. Chem. Phys. 8, 1057 (2006).

----- AuxC basis set information -----
Your calculation utilizes the auxiliary basis: def2-TZVP/C
  H-La, Hf-Rn : A. Hellweg, C. Hattig, S. Hofener and W. Klopper, Theor. Chem. Acc. 117, 587 (2007).
        Ce-Lu : J. Chmela and M. E. Harding, Mol. Phys. (2018).

================================================================================
                                        WARNINGS
                       Please study these warnings very carefully!
================================================================================


INFO   : the flag for use of the SHARK integral package has been found!

================================================================================
                                       INPUT FILE
================================================================================
NAME = casscf.inp
|  1> !CASSCF def2-TZVP def2-TZVP/C
|  2> !MOREAD RIJCOSX
|  3> %maxcore 6000
|  4> %moinp "pbe.qro"
|  5> %pal nprocs 2 end 
|  6> 
|  7> %casscf
|  8>  mult 5,3
|  9>  bweight 1,1
| 10>  nroots 5,45
| 11>  nel 6
| 12>  norb 5
| 13> end
| 14> 
| 15> 
| 16> *xyzfile 0 5 pbe.xyz
| 17> 
| 18> 
| 19>                          ****END OF INPUT****
================================================================================

                       ****************************
                       * Single Point Calculation *
                       ****************************

---------------------------------
CARTESIAN COORDINATES (ANGSTROEM)
---------------------------------
  Au     9.028935   10.595957    5.983178
  Au    11.495132    7.997151    6.959634
  Au     6.151757   10.627535    5.861381
  Au    10.162649    8.596231    4.507448
  Au     7.354983    8.523824    4.546806
  Au     7.438273   10.577203    8.312559
  Au     6.129728    8.104077    7.088306
  Au     7.594631    5.866290    7.825779
  Au     7.600523    8.120461    9.525949
  Au    10.121894    7.020827    9.249551
  Au    10.200756    5.232472    7.166417
  Au    10.069224    9.760165    8.561309
  Au     8.518820    6.111357    5.079949
  Au    11.394727    6.154484    4.847112
  Cr     8.810124    8.070580    6.910861

----------------------------
CARTESIAN COORDINATES (A.U.)
----------------------------
  NO LB      ZA    FRAG     MASS         X           Y           Z
   0 Au   19.0000*   0   196.966   17.062214   20.023456   11.306567
   1 Au   19.0000*   0   196.966   21.722651   15.112425   13.151802
   2 Au   19.0000*   0   196.966   11.625137   20.083130   11.076404
   3 Au   19.0000*   0   196.966   19.204624   16.244522    8.517843
   4 Au   19.0000*   0   196.966   13.898904   16.107693    8.592218
   5 Au   19.0000*   0   196.966   14.056298   19.988016   15.708459
   6 Au   19.0000*   0   196.966   11.583507   15.314485   13.394958
   7 Au   19.0000*   0   196.966   14.351772   11.085682   14.788579
   8 Au   19.0000*   0   196.966   14.362907   15.345448   18.001435
   9 Au   19.0000*   0   196.966   19.127608   13.267440   17.479118
  10 Au   19.0000*   0   196.966   19.276635    9.887940   13.542566
  11 Au   19.0000*   0   196.966   19.028075   18.444039   16.178529
  12 Au   19.0000*   0   196.966   16.098237   11.548791    9.599712
  13 Au   19.0000*   0   196.966   21.532914   11.630289    9.159715
  14 Cr   24.0000    0    52.000   16.648721   15.251185   13.059635
* core charge reduced due to ECP

--------------------------------
INTERNAL COORDINATES (ANGSTROEM)
--------------------------------
 Au     0   0   0     0.000000000000     0.00000000     0.00000000
 Au     1   0   0     3.713406075298     0.00000000     0.00000000
 Au     1   2   0     2.879927597130   133.02314027     0.00000000
 Au     1   2   3     2.731664249748    49.76673606   274.20084699
 Au     3   1   2     2.757073922555    64.90002825   308.15783709
 Au     3   1   2     2.768741498346    59.87727968    70.44065905
 Au     3   1   2     2.806006473238    88.82481219     7.21103903
 Au     7   3   1     2.774435461966   146.87038576   346.09449839
 Au     6   3   1     2.744853398921   115.79130051   260.33192635
 Au     9   6   3     2.764580328256   111.45201084   102.63988972
 Au    10   9   6     2.746611545936   111.16158096   262.24195884
 Au     6   3   1     2.766103782001   121.79872416   340.46896860
 Au     5   3   1     2.731072224969   140.07698575    78.24875612
 Au     4   1   2     2.755996610801   140.13355036    22.03725841
 Cr    12   6   3     2.676566923036    71.55296985   316.65012730

---------------------------
INTERNAL COORDINATES (A.U.)
---------------------------
 Au     0   0   0     0.000000000000     0.00000000     0.00000000
 Au     1   0   0     7.017320506353     0.00000000     0.00000000
 Au     1   2   0     5.442274444098   133.02314027     0.00000000
 Au     1   2   3     5.162097321847    49.76673606   274.20084699
 Au     3   1   2     5.210114644604    64.90002825   308.15783709
 Au     3   1   2     5.232163167496    59.87727968    70.44065905
 Au     3   1   2     5.302583764430    88.82481219     7.21103903
 Au     7   3   1     5.242923199355   146.87038576   346.09449839
 Au     6   3   1     5.187021201724   115.79130051   260.33192635
 Au     9   6   3     5.224299695630   111.45201084   102.63988972
 Au    10   9   6     5.190343618085   111.16158096   262.24195884
 Au     6   3   1     5.227178605986   121.79872416   340.46896860
 Au     5   3   1     5.160978557150   140.07698575    78.24875612
 Au     4   1   2     5.208078820428   140.13355036    22.03725841
 Cr    12   6   3     5.057978463650    71.55296985   316.65012730

---------------------
BASIS SET INFORMATION
---------------------
There are 2 groups of distinct atoms

 Group   1 Type Au  : 8s7p6d1f contracted to 6s4p3d1f pattern {311111/4111/411/1}
 Group   2 Type Cr  : 17s11p7d1f contracted to 6s4p4d1f pattern {842111/6311/4111/1}

Atom   0Au   basis set group =>   1
Atom   1Au   basis set group =>   1
Atom   2Au   basis set group =>   1
Atom   3Au   basis set group =>   1
Atom   4Au   basis set group =>   1
Atom   5Au   basis set group =>   1
Atom   6Au   basis set group =>   1
Atom   7Au   basis set group =>   1
Atom   8Au   basis set group =>   1
Atom   9Au   basis set group =>   1
Atom  10Au   basis set group =>   1
Atom  11Au   basis set group =>   1
Atom  12Au   basis set group =>   1
Atom  13Au   basis set group =>   1
Atom  14Cr   basis set group =>   2
---------------------------------
AUXILIARY/J BASIS SET INFORMATION
---------------------------------
There are 2 groups of distinct atoms

 Group   1 Type Au  : 11s5p5d3f3g contracted to 8s5p5d2f3g pattern {41111111/11111/11111/21/111}
 Group   2 Type Cr  : 19s5p5d3f3g contracted to 8s5p5d2f3g pattern {121111111/11111/11111/21/111}

Atom   0Au   basis set group =>   1
Atom   1Au   basis set group =>   1
Atom   2Au   basis set group =>   1
Atom   3Au   basis set group =>   1
Atom   4Au   basis set group =>   1
Atom   5Au   basis set group =>   1
Atom   6Au   basis set group =>   1
Atom   7Au   basis set group =>   1
Atom   8Au   basis set group =>   1
Atom   9Au   basis set group =>   1
Atom  10Au   basis set group =>   1
Atom  11Au   basis set group =>   1
Atom  12Au   basis set group =>   1
Atom  13Au   basis set group =>   1
Atom  14Cr   basis set group =>   2
---------------------------------
AUXILIARY/C BASIS SET INFORMATION
---------------------------------
There are 2 groups of distinct atoms

 Group   1 Type Au  : 8s8p7d5f3g2h contracted to 8s8p7d5f3g2h pattern {11111111/11111111/1111111/11111/111/11}
 Group   2 Type Cr  : 11s9p8d6f5g2h contracted to 9s8p8d6f5g2h pattern {311111111/21111111/11111111/111111/11111/11}

Atom   0Au   basis set group =>   1
Atom   1Au   basis set group =>   1
Atom   2Au   basis set group =>   1
Atom   3Au   basis set group =>   1
Atom   4Au   basis set group =>   1
Atom   5Au   basis set group =>   1
Atom   6Au   basis set group =>   1
Atom   7Au   basis set group =>   1
Atom   8Au   basis set group =>   1
Atom   9Au   basis set group =>   1
Atom  10Au   basis set group =>   1
Atom  11Au   basis set group =>   1
Atom  12Au   basis set group =>   1
Atom  13Au   basis set group =>   1
Atom  14Cr   basis set group =>   2
-------------------------
ECP PARAMETER INFORMATION
-------------------------

 Group 1, Type Au ECP Def2-ECP (replacing 60 core electrons, lmax=3)

Atom   0Au   ECP group =>   1
Atom   1Au   ECP group =>   1
Atom   2Au   ECP group =>   1
Atom   3Au   ECP group =>   1
Atom   4Au   ECP group =>   1
Atom   5Au   ECP group =>   1
Atom   6Au   ECP group =>   1
Atom   7Au   ECP group =>   1
Atom   8Au   ECP group =>   1
Atom   9Au   ECP group =>   1
Atom  10Au   ECP group =>   1
Atom  11Au   ECP group =>   1
Atom  12Au   ECP group =>   1
Atom  13Au   ECP group =>   1



           ************************************************************
           *        Program running with 2 parallel MPI-processes     *
           *              working on a common directory               *
           ************************************************************
------------------------------------------------------------------------------
                           ORCA GTO INTEGRAL CALCULATION
                           -- RI-GTO INTEGRALS CHOSEN --
------------------------------------------------------------------------------
------------------------------------------------------------------------------
                   ___                                                        
                  /   \      - P O W E R E D   B Y -                         
                 /     \                                                     
                 |  |  |   _    _      __       _____    __    __             
                 |  |  |  | |  | |    /  \     |  _  \  |  |  /  |          
                  \  \/   | |  | |   /    \    | | | |  |  | /  /          
                 / \  \   | |__| |  /  /\  \   | |_| |  |  |/  /          
                |  |  |   |  __  | /  /__\  \  |    /   |      \           
                |  |  |   | |  | | |   __   |  |    \   |  |\   \          
                \     /   | |  | | |  |  |  |  | |\  \  |  | \   \       
                 \___/    |_|  |_| |__|  |__|  |_| \__\ |__|  \__/        
                                                                              
                      - O R C A' S   B I G   F R I E N D -                    
                                      &                                       
                       - I N T E G R A L  F E E D E R -                       
                                                                              
 v1 FN, 2020, v2 2021                                                         
------------------------------------------------------------------------------


Reading SHARK input file casscf.SHARKINP.tmp ... ok
----------------------
SHARK INTEGRAL PACKAGE
----------------------

Number of atoms                             ...     15
Number of basis functions                   ...    605
Number of shells                            ...    211
Maximum angular momentum                    ...      3
Integral batch strategy                     ... SHARK/LIBINT Hybrid
RI-J (if used) integral strategy            ... SPLIT-RIJ (Revised 2003 algorithm where possible)
Printlevel                                  ...      1
Contraction scheme used                     ... SEGMENTED contraction
Coulomb Range Separation                    ... NOT USED
Exchange Range Separation                   ... NOT USED
Finite Nucleus Model                        ... NOT USED
Auxiliary Coulomb fitting basis             ... AVAILABLE
   # of basis functions in Aux-J            ...   1335
   # of shells in Aux-J                     ...    345
   Maximum angular momentum in Aux-J        ...      4
Auxiliary J/K fitting basis                 ... NOT available
Auxiliary Correlation fitting basis         ... AVAILABLE
   # of basis functions in Aux-C            ...   2296
   # of shells in Aux-C                     ...    500
   Maximum angular momentum in Aux-C        ...      5
Auxiliary 'external' fitting basis          ... NOT available
Integral threshold                          ...     1.000000e-10
Primitive cut-off                           ...     1.000000e-11
Primitive pair pre-selection threshold      ...     1.000000e-11

Calculating pre-screening integrals         ... done (  0.2 sec) Dimension = 211
Organizing shell pair data                  ... done (  0.3 sec)
Shell pair information
Total number of shell pairs                 ...     22366
Shell pairs after pre-screening             ...     17932
Total number of primitive shell pairs       ...     59609
Primitive shell pairs kept                  ...     34759
          la=0 lb=0:   2819 shell pairs
          la=1 lb=0:   4090 shell pairs
          la=1 lb=1:   1545 shell pairs
          la=2 lb=0:   3556 shell pairs
          la=2 lb=1:   2506 shell pairs
          la=2 lb=2:   1025 shell pairs
          la=3 lb=0:    946 shell pairs
          la=3 lb=1:    720 shell pairs
          la=3 lb=2:    622 shell pairs
          la=3 lb=3:    103 shell pairs

Calculating one electron integrals          ... done (  0.0 sec)
Calculating ECP integrals                   ... done (  7.5 sec)
Calculating RI/J V-Matrix + Cholesky decomp.... done (  0.1 sec)
Calculating RI/C V-Matrix + Cholesky decomp.... done (  0.2 sec)
Calculating Nuclear repulsion               ... done (  0.0 sec) ENN=   5642.824306750295 Eh

SHARK setup successfully completed in   8.7 seconds

Maximum memory used throughout the entire GTOINT-calculation: 89.8 MB


           ************************************************************
           *        Program running with 2 parallel MPI-processes     *
           *              working on a common directory               *
           ************************************************************
-------------------------------------------------------------------------------
                                 ORCA SCF
-------------------------------------------------------------------------------

------------
SCF SETTINGS
------------
Hamiltonian:
 Ab initio Hamiltonian  Method          .... Hartree-Fock(GTOs)
 RI-approximation to the Coulomb term is turned on
   Number of AuxJ basis functions       .... 1335
   RIJ-COSX (HFX calculated with COS-X)).... on


General Settings:
 Integral files         IntName         .... casscf
 Hartree-Fock type      HFTyp           .... CASSCF
 Total Charge           Charge          ....    0
 Multiplicity           Mult            ....    5
 Number of Electrons    NEL             ....  290
 Basis Dimension        Dim             ....  605
 Nuclear Repulsion      ENuc            ....   5642.8243067503 Eh


Diagonalization of the overlap matrix:
Smallest eigenvalue                        ... 9.220e-05
Time for diagonalization                   ...    0.039 sec
Threshold for overlap eigenvalues          ... 1.000e-08
Number of eigenvalues below threshold      ... 0
Time for construction of square roots      ...    0.021 sec
Total time needed                          ...    0.061 sec

---------------------
INITIAL GUESS: MOREAD
---------------------
Guess MOs are being read from file: pbe.qro
Input Geometry matches current geometry (good)
Input basis set matches current basis set (good)
MOs were renormalized
Gram-Schmidt orthogonalization of all MOs with pivot on actives
                      ------------------
                      INITIAL GUESS DONE (   1.1 sec)
                      ------------------
--------------------
COSX GRID GENERATION
--------------------

GRIDX 1
-------
General Integration Accuracy     IntAcc      ... 3.816
Radial Grid Type                 RadialGrid  ... OptM3 with GC (2021)
Angular Grid (max. ang.)         AngularGrid ... 1 (Lebedev-50)
Angular grid pruning method      GridPruning ... 4 (adaptive)
Weight generation scheme         WeightScheme... Becke
Basis function cutoff            BFCut       ... 1.0000e-10
Integration weight cutoff        WCut        ... 1.0000e-14
Angular grids for H and He will be reduced by one unit
Partially contracted basis set               ... on
Rotationally invariant grid construction     ... off

Total number of grid points                  ...    17336
Total number of batches                      ...      279
Average number of points per batch           ...       62
Average number of grid points per atom       ...     1156
UseSFitting                                  ... on

GRIDX 2
-------
General Integration Accuracy     IntAcc      ... 4.020
Radial Grid Type                 RadialGrid  ... OptM3 with GC (2021)
Angular Grid (max. ang.)         AngularGrid ... 2 (Lebedev-110)
Angular grid pruning method      GridPruning ... 4 (adaptive)
Weight generation scheme         WeightScheme... Becke
Basis function cutoff            BFCut       ... 1.0000e-10
Integration weight cutoff        WCut        ... 1.0000e-14
Angular grids for H and He will be reduced by one unit
Partially contracted basis set               ... on
Rotationally invariant grid construction     ... off

Total number of grid points                  ...    52531
Total number of batches                      ...      829
Average number of points per batch           ...       63
Average number of grid points per atom       ...     3502
UseSFitting                                  ... on

GRIDX 3
-------
General Integration Accuracy     IntAcc      ... 4.338
Radial Grid Type                 RadialGrid  ... OptM3 with GC (2021)
Angular Grid (max. ang.)         AngularGrid ... 3 (Lebedev-194)
Angular grid pruning method      GridPruning ... 4 (adaptive)
Weight generation scheme         WeightScheme... Becke
Basis function cutoff            BFCut       ... 1.0000e-10
Integration weight cutoff        WCut        ... 1.0000e-14
Angular grids for H and He will be reduced by one unit
Partially contracted basis set               ... on
Rotationally invariant grid construction     ... off

Total number of grid points                  ...    95629
Total number of batches                      ...     1502
Average number of points per batch           ...       63
Average number of grid points per atom       ...     6375
UseSFitting                                  ... on

Time for X-Grid setup             =    1.875 sec



 ... the calculation is a CASSCF calculation -I'm leaving here GOOD LUCK!!!



           ************************************************************
           *        Program running with 2 parallel MPI-processes     *
           *              working on a common directory               *
           ************************************************************
-------------------------------------------------------------------------------
                              ORCA-CASSCF
-------------------------------------------------------------------------------

Setting up the integral package       ... done
Setting up the integral package (RI)  ... done
Building the CAS space                ... done (5 configurations for Mult=5)
Building the CAS space                ... done (35 configurations for Mult=3)

SYSTEM-SPECIFIC SETTINGS:
Number of active electrons          ...    6
Number of active orbitals           ...    5
Total number of electrons           ...  290
Total number of orbitals            ...  605
Total number aux. functions         ... 2296

Determined orbital ranges:
   Internal       0 -  141 ( 142 orbitals)
   Active       142 -  146 (   5 orbitals)
   External     147 -  604 ( 458 orbitals)
Number of rotation parameters      ...  68036

CI-STEP:
CI strategy                         ... General CI
Number of multiplicity blocks       ...    2
BLOCK  1 WEIGHT=   0.5000
  Multiplicity                      ...    5
  #(Configurations)                 ...    5
  #(CSFs)                           ...    5
  #(Roots)                          ...    5
    ROOT=0 WEIGHT=    0.100000
    ROOT=1 WEIGHT=    0.100000
    ROOT=2 WEIGHT=    0.100000
    ROOT=3 WEIGHT=    0.100000
    ROOT=4 WEIGHT=    0.100000

BLOCK  2 WEIGHT=   0.5000
  Multiplicity                      ...    3
  #(Configurations)                 ...   35
  #(CSFs)                           ...   45
  #(Roots)                          ...   45
    ROOT=0 WEIGHT=    0.011111
    ROOT=1 WEIGHT=    0.011111
    ROOT=2 WEIGHT=    0.011111
    ROOT=3 WEIGHT=    0.011111
    ROOT=4 WEIGHT=    0.011111
    ROOT=5 WEIGHT=    0.011111
    ROOT=6 WEIGHT=    0.011111
    ROOT=7 WEIGHT=    0.011111
    ROOT=8 WEIGHT=    0.011111
    ROOT=9 WEIGHT=    0.011111
    ROOT=10 WEIGHT=    0.011111
    ROOT=11 WEIGHT=    0.011111
    ROOT=12 WEIGHT=    0.011111
    ROOT=13 WEIGHT=    0.011111
    ROOT=14 WEIGHT=    0.011111
    ROOT=15 WEIGHT=    0.011111
    ROOT=16 WEIGHT=    0.011111
    ROOT=17 WEIGHT=    0.011111
    ROOT=18 WEIGHT=    0.011111
    ROOT=19 WEIGHT=    0.011111
    ROOT=20 WEIGHT=    0.011111
    ROOT=21 WEIGHT=    0.011111
    ROOT=22 WEIGHT=    0.011111
    ROOT=23 WEIGHT=    0.011111
    ROOT=24 WEIGHT=    0.011111
    ROOT=25 WEIGHT=    0.011111
    ROOT=26 WEIGHT=    0.011111
    ROOT=27 WEIGHT=    0.011111
    ROOT=28 WEIGHT=    0.011111
    ROOT=29 WEIGHT=    0.011111
    ROOT=30 WEIGHT=    0.011111
    ROOT=31 WEIGHT=    0.011111
    ROOT=32 WEIGHT=    0.011111
    ROOT=33 WEIGHT=    0.011111
    ROOT=34 WEIGHT=    0.011111
    ROOT=35 WEIGHT=    0.011111
    ROOT=36 WEIGHT=    0.011111
    ROOT=37 WEIGHT=    0.011111
    ROOT=38 WEIGHT=    0.011111
    ROOT=39 WEIGHT=    0.011111
    ROOT=40 WEIGHT=    0.011111
    ROOT=41 WEIGHT=    0.011111
    ROOT=42 WEIGHT=    0.011111
    ROOT=43 WEIGHT=    0.011111
    ROOT=44 WEIGHT=    0.011111

  PrintLevel                        ...    1
  N(GuessMat)                       ...       512
  MaxDim(CI)                        ...        10
  MaxIter(CI)                       ...        64
  Energy Tolerance CI               ...  1.00e-08
  Residual Tolerance CI             ...  1.00e-08
  Shift(CI)                         ...  1.00e-04

INTEGRAL-TRANSFORMATION-STEP:
  Algorithm                         ... RI-MO

ORBITAL-IMPROVEMENT-STEP:
  Algorithm                         ... SuperCI(PT)
  Default Parametrization           ... CAYLEY
  Act-Act rotations                 ... depends on algorithm used

  Note: SuperCI(PT) will ignore FreezeIE, FreezeAct and FreezeGrad. In general Default settings are encouraged.
        In conjunction with ShiftUp, ShiftDn or GradScaling the performance of SuperCI(PT) is less optimal.  

  MaxRot                            ... 2.00e-01 
  Max. no of vectors (DIIS)         ... 15
  DThresh (cut-off) metric          ... 1.00e-06
  Switch step at gradient           ...  3.00e-02 
  Switch step at iteration          ...        50   
  Switch step to                    ... SuperCI(PT)    

SCF-SETTINGS:
  Incremental                       ... off
  RIJCOSX approximation             ... on
  UseFinalGrid                      ... on
  RI-JK approximation               ... off
  AO integral handling              ... DIRECT
  Integral Neglect Thresh           ...  1.00e-10
  Primitive cutoff TCut             ...  1.00e-11
  Energy convergence tolerance      ...  1.00e-07
  Orbital gradient convergence      ...  1.00e-03
  Max. number of iterations         ...        75  


FINAL ORBITALS:
  Active   Orbitals                 ... natural 
  Internal Orbitals                 ... canonical 
  External Orbitals                 ... canonical 

------------------
CAS-SCF ITERATIONS
------------------


MACRO-ITERATION   1: 
   --- Inactive Energy E0 = -2923.77413901 Eh
CI-ITERATION   0: 
 -2930.119435910   0.000000000000 (    0.00)
 -2930.118027768   0.000000000000
 -2929.933971942   0.000000000000
 -2929.874071320   0.000000000000
 -2929.851297809   0.000000000000
   CI-PROBLEM SOLVED
   DENSITIES MADE
CI-ITERATION   0: 
 -2930.118144867   0.000000000000 (    0.00)
 -2930.095573125   0.000000000000
 -2930.075690143   0.000000000000
 -2930.067397090   0.000000000000
 -2930.063878831   0.000000000000
 -2930.060017098   0.000000000000
 -2930.059534014   0.000000000000
 -2930.058431411   0.000000000000
 -2930.054983304   0.000000000000
 -2930.054387240   0.000000000000
 -2930.051114171   0.000000000000
 -2930.046736702   0.000000000000
 -2930.025107864   0.000000000000
 -2930.021264981   0.000000000000
 -2930.017255448   0.000000000000
 -2930.009728464   0.000000000000
 -2930.007498537   0.000000000000
 -2929.995204362   0.000000000000
 -2929.992666748   0.000000000000
 -2929.990086814   0.000000000000
 -2929.985316083   0.000000000000
 -2929.946355444   0.000000000000
 -2929.920419121   0.000000000000
 -2929.908425564   0.000000000000
 -2929.900155171   0.000000000000
 -2929.886105270   0.000000000000
 -2929.883821734   0.000000000000
 -2929.869192168   0.000000000000
 -2929.864072771   0.000000000000
 -2929.856896520   0.000000000000
 -2929.851127815   0.000000000000
 -2929.839268600   0.000000000000
 -2929.835689403   0.000000000000
 -2929.828513111   0.000000000000
 -2929.820786800   0.000000000000
 -2929.808646827   0.000000000000
 -2929.793689567   0.000000000000
 -2929.786573390   0.000000000000
 -2929.694608605   0.000000000000
 -2929.519063490   0.000000000000
 -2929.479610242   0.000000000000
 -2929.441155701   0.000000000000
 -2929.402007892   0.000000000000
 -2929.367744198   0.000000000000
 -2929.288547976   0.000000000000
   CI-PROBLEM SOLVED
   DENSITIES MADE

                 <<<<<<<<<<<<<<<<<<INITIAL CI STATE CHECK>>>>>>>>>>>>>>>>>>

BLOCK  1 MULT= 5 NROOTS= 5 
ROOT   0:  E=   -2930.1194359096 Eh
      0.77949 [     3]: 12111
      0.15199 [     0]: 11112
      0.06799 [     4]: 21111
ROOT   1:  E=   -2930.1180277676 Eh  0.038 eV    309.1 cm**-1
      0.93198 [     4]: 21111
      0.05788 [     3]: 12111
      0.01010 [     0]: 11112
ROOT   2:  E=   -2929.9339719425 Eh  5.047 eV  40704.6 cm**-1
      0.83469 [     0]: 11112
      0.16263 [     3]: 12111
      0.00264 [     2]: 11211
ROOT   3:  E=   -2929.8740713197 Eh  6.677 eV  53851.3 cm**-1
      0.99986 [     1]: 11121
ROOT   4:  E=   -2929.8512978086 Eh  7.296 eV  58849.5 cm**-1
      0.99666 [     2]: 11211
      0.00321 [     0]: 11112

BLOCK  2 MULT= 3 NROOTS=45 
ROOT   0:  E=   -2930.1181448669 Eh
      0.65408 [    34]: 22110
      0.22157 [    28]: 21111
      0.11575 [    22]: 20112
      0.00518 [    32]: 22011
ROOT   1:  E=   -2930.0955731255 Eh  0.614 eV   4953.9 cm**-1
      0.81718 [    18]: 12111
      0.15701 [    10]: 11112
      0.02400 [    33]: 22101
ROOT   2:  E=   -2930.0756901430 Eh  1.155 eV   9317.7 cm**-1
      0.45845 [    32]: 22011
      0.22516 [    25]: 21012
      0.20357 [    28]: 21111
      0.07188 [    34]: 22110
      0.02238 [    31]: 21210
      0.00908 [    24]: 20211
ROOT   3:  E=   -2930.0673970896 Eh  1.381 eV  11137.8 cm**-1
      0.55778 [    33]: 22101
      0.24598 [    27]: 21102
      0.08303 [    29]: 21120
      0.04037 [    15]: 12012
      0.02108 [    18]: 12111
      0.02036 [    23]: 20121
      0.01300 [    30]: 21201
      0.01096 [    26]: 21021
      0.00646 [    10]: 11112
ROOT   4:  E=   -2930.0638788306 Eh  1.477 eV  11910.0 cm**-1
      0.62951 [    15]: 12012
      0.17727 [    18]: 12111
      0.04178 [    33]: 22101
      0.04100 [    21]: 12210
      0.03095 [    26]: 21021
      0.03072 [    10]: 11112
      0.02076 [    13]: 11211
      0.01792 [    27]: 21102
      0.00426 [    30]: 21201
      0.00271 [     7]: 10212
ROOT   5:  E=   -2930.0600170982 Eh  1.582 eV  12757.6 cm**-1
      0.61089 [    28]: 21111
      0.11243 [    34]: 22110
      0.09213 [    25]: 21012
      0.05204 [    31]: 21210
      0.04635 [    32]: 22011
      0.03388 [    17]: 12102
      0.02121 [    26]: 21021
      0.00722 [    24]: 20211
      0.00661 [    18]: 12111
      0.00501 [    30]: 21201
ROOT   6:  E=   -2930.0595340138 Eh  1.595 eV  12863.6 cm**-1
      0.57018 [    26]: 21021
      0.13956 [    30]: 21201
      0.07256 [    18]: 12111
      0.02922 [    16]: 12021
      0.02815 [    33]: 22101
      0.02712 [    15]: 12012
      0.02196 [    17]: 12102
      0.02045 [    10]: 11112
      0.01930 [    29]: 21120
      0.01732 [    28]: 21111
      0.01171 [    20]: 12201
      0.00729 [    19]: 12120
      0.00685 [     9]: 11022
      0.00569 [    21]: 12210
      0.00524 [    34]: 22110
      0.00303 [    23]: 20121
      0.00294 [    11]: 11121
      0.00289 [    25]: 21012
      0.00276 [    13]: 11211
      0.00268 [    12]: 11202
ROOT   7:  E=   -2930.0584314110 Eh  1.625 eV  13105.6 cm**-1
      0.34958 [    16]: 12021
      0.17858 [    17]: 12102
      0.10853 [    20]: 12201
      0.08649 [    28]: 21111
      0.07589 [    19]: 12120
      0.06708 [     9]: 11022
      0.04638 [    26]: 21021
      0.02991 [    11]: 11121
      0.02159 [    12]: 11202
      0.01144 [    30]: 21201
      0.00718 [    18]: 12111
      0.00356 [    31]: 21210
      0.00285 [     6]: 10122
ROOT   8:  E=   -2930.0549833041 Eh  1.719 eV  13862.4 cm**-1
      0.69977 [    18]: 12111
      0.09991 [    10]: 11112
      0.05559 [    28]: 21111
      0.05321 [    26]: 21021
      0.03268 [    30]: 21201
      0.01407 [    21]: 12210
      0.01135 [    16]: 12021
      0.00841 [    17]: 12102
      0.00567 [    32]: 22011
      0.00391 [    20]: 12201
      0.00379 [    34]: 22110
ROOT   9:  E=   -2930.0543872397 Eh  1.735 eV  13993.2 cm**-1
      0.52049 [    28]: 21111
      0.13275 [    16]: 12021
      0.09771 [    17]: 12102
      0.06814 [    18]: 12111
      0.05028 [    20]: 12201
      0.04297 [    32]: 22011
      0.02649 [     9]: 11022
      0.01714 [    34]: 22110
      0.00905 [    10]: 11112
      0.00877 [    12]: 11202
      0.00778 [    26]: 21021
      0.00624 [    25]: 21012
      0.00410 [    30]: 21201
ROOT  10:  E=   -2930.0511141714 Eh  1.824 eV  14711.5 cm**-1
      0.46173 [    17]: 12102
      0.22620 [    28]: 21111
      0.09787 [    16]: 12021
      0.05592 [    19]: 12120
      0.03819 [    25]: 21012
      0.02545 [     9]: 11022
      0.02317 [    11]: 11121
      0.02042 [    32]: 22011
      0.01974 [    34]: 22110
      0.01856 [    20]: 12201
      0.00408 [    31]: 21210
      0.00390 [     3]: 02112
ROOT  11:  E=   -2930.0467367024 Eh  1.943 eV  15672.3 cm**-1
      0.65948 [    18]: 12111
      0.19774 [    15]: 12012
      0.10796 [    10]: 11112
      0.01536 [    21]: 12210
      0.00615 [    30]: 21201
      0.00455 [    13]: 11211
      0.00385 [    27]: 21102
ROOT  12:  E=   -2930.0251078639 Eh  2.532 eV  20419.3 cm**-1
      0.60504 [    28]: 21111
      0.14631 [    22]: 20112
      0.07243 [    32]: 22011
      0.04367 [    25]: 21012
      0.04366 [    34]: 22110
      0.04279 [    20]: 12201
      0.01462 [    16]: 12021
      0.00945 [    12]: 11202
      0.00644 [    19]: 12120
      0.00547 [    31]: 21210
      0.00404 [     9]: 11022
ROOT  13:  E=   -2930.0212649813 Eh  2.636 eV  21262.7 cm**-1
      0.55123 [    30]: 21201
      0.26620 [    29]: 21120
      0.06038 [    23]: 20121
      0.05523 [    26]: 21021
      0.04327 [    33]: 22101
      0.00738 [    27]: 21102
      0.00471 [    18]: 12111
      0.00300 [    10]: 11112
ROOT  14:  E=   -2930.0172554480 Eh  2.745 eV  22142.7 cm**-1
      0.48730 [    20]: 12201
      0.14722 [    19]: 12120
      0.07681 [    12]: 11202
      0.07669 [    16]: 12021
      0.06328 [    11]: 11121
      0.03807 [    28]: 21111
      0.02947 [    17]: 12102
      0.01730 [     9]: 11022
      0.01521 [    32]: 22011
      0.01174 [    34]: 22110
      0.00822 [     3]: 02112
      0.00717 [    22]: 20112
      0.00629 [    25]: 21012
      0.00552 [     6]: 10122
      0.00302 [    31]: 21210
ROOT  15:  E=   -2930.0097284637 Eh  2.950 eV  23794.7 cm**-1
      0.36064 [    27]: 21102
      0.27101 [    33]: 22101
      0.12341 [    30]: 21201
      0.10771 [    26]: 21021
      0.07800 [    29]: 21120
      0.01590 [    21]: 12210
      0.01314 [    18]: 12111
      0.01269 [    23]: 20121
      0.00550 [    13]: 11211
      0.00282 [    25]: 21012
ROOT  16:  E=   -2930.0074985366 Eh  3.011 eV  24284.1 cm**-1
      0.39173 [    25]: 21012
      0.31364 [    32]: 22011
      0.11145 [    28]: 21111
      0.05533 [    31]: 21210
      0.02972 [    22]: 20112
      0.02376 [    19]: 12120
      0.02353 [    17]: 12102
      0.01123 [    34]: 22110
      0.01057 [    24]: 20211
      0.00996 [    11]: 11121
      0.00594 [    20]: 12201
      0.00269 [    27]: 21102
ROOT  17:  E=   -2929.9952043616 Eh  3.345 eV  26982.3 cm**-1
      0.53220 [    21]: 12210
      0.18033 [    13]: 11211
      0.08279 [    15]: 12012
      0.05855 [    29]: 21120
      0.02400 [    31]: 21210
      0.02199 [    26]: 21021
      0.01747 [    27]: 21102
      0.01735 [    30]: 21201
      0.01169 [    23]: 20121
      0.01028 [     7]: 10212
      0.00927 [    25]: 21012
      0.00885 [    18]: 12111
      0.00681 [    33]: 22101
      0.00455 [    24]: 20211
      0.00389 [    10]: 11112
      0.00358 [    19]: 12120
ROOT  18:  E=   -2929.9926667481 Eh  3.414 eV  27539.3 cm**-1
      0.59380 [    31]: 21210
      0.17285 [    25]: 21012
      0.11576 [    24]: 20211
      0.02802 [    21]: 12210
      0.02373 [    19]: 12120
      0.01058 [    16]: 12021
      0.00980 [    28]: 21111
      0.00958 [    17]: 12102
      0.00885 [    13]: 11211
      0.00825 [    11]: 11121
      0.00444 [    15]: 12012
      0.00383 [    20]: 12201
ROOT  19:  E=   -2929.9900868142 Eh  3.485 eV  28105.5 cm**-1
      0.35715 [    19]: 12120
      0.12913 [    20]: 12201
      0.12870 [    11]: 11121
      0.11905 [    17]: 12102
      0.09923 [    16]: 12021
      0.07094 [    31]: 21210
      0.02122 [    28]: 21111
      0.01921 [     9]: 11022
      0.01370 [    24]: 20211
      0.01184 [    32]: 22011
      0.00996 [    12]: 11202
      0.00716 [     6]: 10122
      0.00307 [    22]: 20112
ROOT  20:  E=   -2929.9853160832 Eh  3.614 eV  29152.5 cm**-1
      0.33062 [    27]: 21102
      0.30519 [    29]: 21120
      0.08507 [    30]: 21201
      0.08272 [    21]: 12210
      0.06819 [    26]: 21021
      0.06676 [    23]: 20121
      0.02124 [    13]: 11211
      0.01721 [    33]: 22101
      0.01069 [    18]: 12111
      0.00514 [    15]: 12012
ROOT  21:  E=   -2929.9463554438 Eh  4.675 eV  37703.4 cm**-1
      0.97715 [     3]: 02112
      0.00696 [    17]: 12102
      0.00314 [     5]: 02211
      0.00277 [    28]: 21111
ROOT  22:  E=   -2929.9204191206 Eh  5.380 eV  43395.8 cm**-1
      0.86169 [    10]: 11112
      0.12811 [    18]: 12111
      0.00371 [    13]: 11211
ROOT  23:  E=   -2929.9084255642 Eh  5.707 eV  46028.1 cm**-1
      0.82323 [    10]: 11112
      0.14913 [    18]: 12111
      0.00981 [     4]: 02121
      0.00680 [    27]: 21102
      0.00354 [    13]: 11211
      0.00348 [     0]: 01122
ROOT  24:  E=   -2929.9001551711 Eh  5.932 eV  47843.2 cm**-1
      0.72033 [     9]: 11022
      0.14863 [    16]: 12021
      0.06025 [    12]: 11202
      0.05223 [    11]: 11121
      0.00866 [    20]: 12201
      0.00479 [    19]: 12120
ROOT  25:  E=   -2929.8861052697 Eh  6.314 eV  50926.8 cm**-1
      0.57657 [     4]: 02121
      0.20215 [    10]: 11112
      0.16539 [     0]: 01122
      0.04239 [    18]: 12111
      0.00470 [    13]: 11211
ROOT  26:  E=   -2929.8838217341 Eh  6.376 eV  51428.0 cm**-1
      0.64085 [    10]: 11112
      0.18323 [     4]: 02121
      0.10644 [    18]: 12111
      0.04852 [     0]: 01122
      0.01561 [    13]: 11211
ROOT  27:  E=   -2929.8691921682 Eh  6.774 eV  54638.8 cm**-1
      0.62452 [    22]: 20112
      0.23762 [    28]: 21111
      0.05532 [    11]: 11121
      0.03829 [    34]: 22110
      0.01644 [     6]: 10122
      0.00875 [    19]: 12120
      0.00835 [     5]: 02211
      0.00346 [    24]: 20211
ROOT  28:  E=   -2929.8640727713 Eh  6.914 eV  55762.4 cm**-1
      0.66271 [     5]: 02211
      0.17738 [     1]: 01212
      0.10847 [    11]: 11121
      0.02259 [    22]: 20112
      0.00881 [    28]: 21111
      0.00300 [     6]: 10122
      0.00277 [     3]: 02112
      0.00265 [    20]: 12201
ROOT  29:  E=   -2929.8568965199 Eh  7.109 eV  57337.4 cm**-1
      0.65058 [    11]: 11121
      0.11620 [     6]: 10122
      0.08544 [     5]: 02211
      0.06548 [    19]: 12120
      0.03869 [    22]: 20112
      0.01995 [     1]: 01212
      0.01319 [    28]: 21111
      0.00287 [    34]: 22110
ROOT  30:  E=   -2929.8511278147 Eh  7.266 eV  58603.5 cm**-1
      0.72539 [    11]: 11121
      0.14977 [     6]: 10122
      0.08643 [    19]: 12120
      0.02178 [     5]: 02211
      0.00539 [    12]: 11202
      0.00318 [     1]: 01212
      0.00262 [    20]: 12201
ROOT  31:  E=   -2929.8392686000 Eh  7.589 eV  61206.3 cm**-1
      0.70109 [    12]: 11202
      0.13085 [    11]: 11121
      0.09850 [    20]: 12201
      0.02055 [     9]: 11022
      0.00904 [     5]: 02211
      0.00872 [    19]: 12120
      0.00843 [    14]: 11220
      0.00843 [     6]: 10122
      0.00317 [     8]: 10221
      0.00256 [    17]: 12102
ROOT  32:  E=   -2929.8356894028 Eh  7.686 eV  61991.8 cm**-1
      0.83033 [    13]: 11211
      0.09487 [     7]: 10212
      0.05204 [    21]: 12210
      0.01151 [    23]: 20121
      0.00293 [    10]: 11112
ROOT  33:  E=   -2929.8285131111 Eh  7.881 eV  63566.8 cm**-1
      0.74366 [    13]: 11211
      0.15874 [     7]: 10212
      0.08804 [    21]: 12210
      0.00325 [    23]: 20121
ROOT  34:  E=   -2929.8207867997 Eh  8.092 eV  65262.6 cm**-1
      0.62032 [    11]: 11121
      0.07741 [     6]: 10122
      0.07073 [     9]: 11022
      0.06881 [    12]: 11202
      0.06233 [    14]: 11220
      0.05684 [    19]: 12120
      0.01511 [    16]: 12021
      0.01330 [     8]: 10221
      0.01243 [    20]: 12201
ROOT  35:  E=   -2929.8086468274 Eh  8.422 eV  67927.0 cm**-1
      0.80498 [    23]: 20121
      0.17317 [    29]: 21120
      0.01173 [    13]: 11211
      0.00340 [     7]: 10212
      0.00334 [    21]: 12210
ROOT  36:  E=   -2929.7936895670 Eh  8.829 eV  71209.7 cm**-1
      0.80376 [    13]: 11211
      0.10664 [     7]: 10212
      0.06512 [    21]: 12210
      0.01688 [    10]: 11112
      0.00329 [    18]: 12111
ROOT  37:  E=   -2929.7865733896 Eh  9.023 eV  72771.5 cm**-1
      0.82838 [    24]: 20211
      0.16245 [    31]: 21210
      0.00359 [    22]: 20112
ROOT  38:  E=   -2929.6946086050 Eh 11.525 eV  92955.5 cm**-1
      0.70995 [    14]: 11220
      0.20032 [     8]: 10221
      0.03277 [    11]: 11121
      0.02493 [    12]: 11202
      0.01443 [     9]: 11022
      0.00520 [    20]: 12201
      0.00464 [    16]: 12021
      0.00381 [     6]: 10122
      0.00266 [    19]: 12120
ROOT  39:  E=   -2929.5190634900 Eh 16.302 eV 131483.2 cm**-1
      0.76630 [     0]: 01122
      0.21921 [     4]: 02121
      0.01313 [     2]: 01221
ROOT  40:  E=   -2929.4796102420 Eh 17.375 eV 140142.2 cm**-1
      0.79273 [     1]: 01212
      0.20284 [     5]: 02211
ROOT  41:  E=   -2929.4411557013 Eh 18.422 eV 148581.9 cm**-1
      0.59005 [     6]: 10122
      0.33885 [    11]: 11121
      0.05379 [    19]: 12120
      0.01164 [     8]: 10221
      0.00297 [    14]: 11220
ROOT  42:  E=   -2929.4020078923 Eh 19.487 eV 157173.9 cm**-1
      0.61850 [     7]: 10212
      0.32760 [    13]: 11211
      0.04843 [    21]: 12210
ROOT  43:  E=   -2929.3677441981 Eh 20.419 eV 164693.9 cm**-1
      0.98358 [     2]: 01221
      0.01255 [     0]: 01122
ROOT  44:  E=   -2929.2885479761 Eh 22.574 eV 182075.5 cm**-1
      0.76930 [     8]: 10221
      0.21394 [    14]: 11220
      0.01091 [     6]: 10122
      0.00472 [    11]: 11121

                 <<<<<<<<<<<<<<<<<<INITIAL CI STATE CHECK>>>>>>>>>>>>>>>>>>

   E(CAS)= -2929.930152638 Eh DE=    0.000000e+00
   --- Energy gap subspaces: Ext-Act = 0.131   Act-Int = 0.121
   N(occ)=  1.20000 1.20000 1.20000 1.20000 1.20000
   ||g|| =     2.857276e+00 Max(G)=    4.251516e-01 Rot=534,1
   --- Orbital Update [SuperCI(PT)]
   --- Canonicalize Internal Space
   --- Canonicalize External Space
   --- SX_PT (Skipped TA=0 IT=0): ||X|| =      0.871266148 Max(X)(146,141) =     -0.324846268 
   --- SFit(Active Orbitals)

MACRO-ITERATION   2: 
   --- Inactive Energy E0 = -2921.70447284 Eh
CI-ITERATION   0: 
 -2930.216226056   0.000000000000 (    0.00)
 -2930.205710636   0.000000000000
 -2930.196488497   0.000000000000
 -2929.898462890   0.000000000000
 -2929.861815114   0.000000000000
   CI-PROBLEM SOLVED
   DENSITIES MADE
CI-ITERATION   0: 
 -2930.324000861   0.000000000000 (    0.00)
 -2930.309603834   0.000000000000
 -2930.301128727   0.000000000000
 -2930.287051158   0.000000000000
 -2930.285070482   0.000000000000
 -2930.270545612   0.000000000000
 -2930.220997149   0.000000000000
 -2930.208285384   0.000000000000
 -2930.203677229   0.000000000000
 -2930.200689502   0.000000000000
 -2930.196414752   0.000000000000
 -2930.191533200   0.000000000000
 -2930.188476136   0.000000000000
 -2930.183037483   0.000000000000
 -2930.179864892   0.000000000000
 -2930.176602737   0.000000000000
 -2930.173777181   0.000000000000
 -2930.166501949   0.000000000000
 -2930.161429160   0.000000000000
 -2930.158924623   0.000000000000
 -2930.152971921   0.000000000000
 -2930.150444093   0.000000000000
 -2930.145600737   0.000000000000
 -2930.097946961   0.000000000000
 -2929.884737129   0.000000000000
 -2929.863673039   0.000000000000
 -2929.859214983   0.000000000000
 -2929.848816983   0.000000000000
 -2929.847238910   0.000000000000
 -2929.845840637   0.000000000000
 -2929.832438018   0.000000000000
 -2929.825702546   0.000000000000
 -2929.823630382   0.000000000000
 -2929.809975642   0.000000000000
 -2929.808814011   0.000000000000
 -2929.806211703   0.000000000000
 -2929.795798945   0.000000000000
 -2929.785795510   0.000000000000
 -2929.770438783   0.000000000000
 -2929.760650185   0.000000000000
 -2929.749325689   0.000000000000
 -2929.725676409   0.000000000000
 -2929.283316337   0.000000000000
 -2929.227270106   0.000000000000
 -2929.212583183   0.000000000000
   CI-PROBLEM SOLVED
   DENSITIES MADE
   E(CAS)= -2930.030111707 Eh DE=   -9.995907e-02
   --- Energy gap subspaces: Ext-Act = -0.052   Act-Int = -0.336
   N(occ)=  1.20000 1.20000 1.20000 1.20000 1.20000
   ||g|| =     2.865975e+00 Max(G)=    4.773595e-01 Rot=534,19
   --- Orbital Update [SuperCI(PT)]
   --- Canonicalize Internal Space
   --- Canonicalize External Space
   --- SX_PT (Skipped TA=0 IT=0): ||X|| =     39.771551003 Max(X)(148,142) =    -39.464851355 
   --- SFit(Active Orbitals)

MACRO-ITERATION   3: 
   --- Inactive Energy E0 = -2922.37830160 Eh
CI-ITERATION   0: 
 -2930.339718225   0.000000000000 (    0.00)
 -2930.338536903   0.000000000000
 -2930.330108433   0.000000000000
 -2930.121230390   0.000000000000
 -2930.101481613   0.000000000000
   CI-PROBLEM SOLVED
   DENSITIES MADE
CI-ITERATION   0: 
 -2930.385790132   0.000000000000 (    0.00)
 -2930.368369366   0.000000000000
 -2930.349779088   0.000000000000
 -2930.342700082   0.000000000000
 -2930.341330531   0.000000000000
 -2930.336319794   0.000000000000
 -2930.330477443   0.000000000000
 -2930.327992782   0.000000000000
 -2930.323380532   0.000000000000
 -2930.313813778   0.000000000000
 -2930.311796938   0.000000000000
 -2930.307743136   0.000000000000
 -2930.301044161   0.000000000000
 -2930.298589843   0.000000000000
 -2930.294402796   0.000000000000
 -2930.287471789   0.000000000000
 -2930.287094066   0.000000000000
 -2930.282508156   0.000000000000
 -2930.273365978   0.000000000000
 -2930.272705901   0.000000000000
 -2930.258176137   0.000000000000
 -2930.235894939   0.000000000000
 -2930.235002372   0.000000000000
 -2930.200648510   0.000000000000
 -2930.109273693   0.000000000000
 -2930.080061746   0.000000000000
 -2930.068558059   0.000000000000
 -2930.066318619   0.000000000000
 -2930.062967082   0.000000000000
 -2930.060816493   0.000000000000
 -2930.052007016   0.000000000000
 -2930.043583820   0.000000000000
 -2930.042747063   0.000000000000
 -2930.041844490   0.000000000000
 -2930.039573496   0.000000000000
 -2930.030337330   0.000000000000
 -2930.027599504   0.000000000000
 -2930.013465868   0.000000000000
 -2930.006713755   0.000000000000
 -2929.996127187   0.000000000000
 -2929.993512203   0.000000000000
 -2929.975871737   0.000000000000
 -2929.584921221   0.000000000000
 -2929.544592412   0.000000000000
 -2929.541431054   0.000000000000
   CI-PROBLEM SOLVED
   DENSITIES MADE
   E(CAS)= -2930.196982246 Eh DE=   -1.668705e-01
   --- Energy gap subspaces: Ext-Act = 0.034   Act-Int = -0.181
   N(occ)=  1.20000 1.20000 1.20000 1.20000 1.20000
   ||g|| =     1.805477e+00 Max(G)=    3.240464e-01 Rot=147,142
   --- Orbital Update [SuperCI(PT)]
   --- Canonicalize Internal Space
   --- Canonicalize External Space
   --- SX_PT (Skipped TA=0 IT=0): ||X|| =      1.604040563 Max(X)(147,142) =     -1.111416742 
   --- SFit(Active Orbitals)

MACRO-ITERATION   4: 
   --- Inactive Energy E0 = -2923.60462871 Eh
CI-ITERATION   0: 
 -2930.487036629   0.000000000000 (    0.00)
 -2930.470074455   0.000000000000
 -2930.424018677   0.000000000000
 -2930.404807486   0.000000000000
 -2930.386369315   0.000000000000
   CI-PROBLEM SOLVED
   DENSITIES MADE
CI-ITERATION   0: 
 -2930.463556603   0.000000000000 (    0.00)
 -2930.461711871   0.000000000000
 -2930.453994766   0.000000000000
 -2930.437833544   0.000000000000
 -2930.433738619   0.000000000000
 -2930.432128548   0.000000000000
 -2930.423405788   0.000000000000
 -2930.421693288   0.000000000000
 -2930.418872881   0.000000000000
 -2930.416058437   0.000000000000
 -2930.415531906   0.000000000000
 -2930.414500232   0.000000000000
 -2930.411731494   0.000000000000
 -2930.408977745   0.000000000000
 -2930.403962819   0.000000000000
 -2930.396718184   0.000000000000
 -2930.393416026   0.000000000000
 -2930.391372218   0.000000000000
 -2930.387511912   0.000000000000
 -2930.386438084   0.000000000000
 -2930.381793711   0.000000000000
 -2930.378956661   0.000000000000
 -2930.373164175   0.000000000000
 -2930.372049041   0.000000000000
 -2930.369382476   0.000000000000
 -2930.358513405   0.000000000000
 -2930.354654330   0.000000000000
 -2930.350105929   0.000000000000
 -2930.345884709   0.000000000000
 -2930.341983593   0.000000000000
 -2930.341164358   0.000000000000
 -2930.325294066   0.000000000000
 -2930.320635422   0.000000000000
 -2930.313713120   0.000000000000
 -2930.300344059   0.000000000000
 -2930.257111072   0.000000000000
 -2930.246728258   0.000000000000
 -2930.210259411   0.000000000000
 -2930.207457053   0.000000000000
 -2930.193922939   0.000000000000
 -2930.150574820   0.000000000000
 -2930.104055465   0.000000000000
 -2930.091360957   0.000000000000
 -2930.059988441   0.000000000000
 -2929.998468671   0.000000000000
   CI-PROBLEM SOLVED
   DENSITIES MADE
   E(CAS)= -2930.385238668 Eh DE=   -1.882564e-01
   --- Energy gap subspaces: Ext-Act = 0.230   Act-Int = 0.118
   N(occ)=  1.20000 1.20000 1.20000 1.20000 1.20000
   ||g|| =     8.038477e-01 Max(G)=   -1.223909e-01 Rot=513,142
   --- Orbital Update [SuperCI(PT)]
   --- Canonicalize Internal Space
   --- Canonicalize External Space
   --- SX_PT (Skipped TA=0 IT=0): ||X|| =      0.315721271 Max(X)(146,141) =     -0.111180722 
   --- SFit(Active Orbitals)

MACRO-ITERATION   5: 
   --- Inactive Energy E0 = -2922.98343948 Eh
CI-ITERATION   0: 
 -2930.514448607   0.000000000000 (    0.00)
 -2930.504223090   0.000000000000
 -2930.474663081   0.000000000000
 -2930.469388571   0.000000000000
 -2930.460124987   0.000000000000
   CI-PROBLEM SOLVED
   DENSITIES MADE
CI-ITERATION   0: 
 -2930.503786087   0.000000000000 (    0.00)
 -2930.500799877   0.000000000000
 -2930.495943556   0.000000000000
 -2930.488462480   0.000000000000
 -2930.482721169   0.000000000000
 -2930.478461562   0.000000000000
 -2930.474599293   0.000000000000
 -2930.471012593   0.000000000000
 -2930.466388185   0.000000000000
 -2930.461923314   0.000000000000
 -2930.458725017   0.000000000000
 -2930.451598060   0.000000000000
 -2930.449746933   0.000000000000
 -2930.447423460   0.000000000000
 -2930.440410963   0.000000000000
 -2930.439032378   0.000000000000
 -2930.433530681   0.000000000000
 -2930.431475173   0.000000000000
 -2930.426493077   0.000000000000
 -2930.423152527   0.000000000000
 -2930.418160515   0.000000000000
 -2930.411011724   0.000000000000
 -2930.410254020   0.000000000000
 -2930.406447119   0.000000000000
 -2930.404301276   0.000000000000
 -2930.402303141   0.000000000000
 -2930.401037920   0.000000000000
 -2930.398928968   0.000000000000
 -2930.394737777   0.000000000000
 -2930.378240693   0.000000000000
 -2930.373059108   0.000000000000
 -2930.364286673   0.000000000000
 -2930.361841278   0.000000000000
 -2930.354480667   0.000000000000
 -2930.348284699   0.000000000000
 -2930.322816113   0.000000000000
 -2930.251555466   0.000000000000
 -2930.208676820   0.000000000000
 -2930.171717104   0.000000000000
 -2930.171541548   0.000000000000
 -2930.163024039   0.000000000000
 -2930.136874968   0.000000000000
 -2930.134686878   0.000000000000
 -2930.119706798   0.000000000000
 -2930.081872964   0.000000000000
   CI-PROBLEM SOLVED
   DENSITIES MADE
   E(CAS)= -2930.429124107 Eh DE=   -4.388544e-02
   --- Energy gap subspaces: Ext-Act = 0.232   Act-Int = 0.085
   N(occ)=  1.20000 1.20000 1.20000 1.20000 1.20000
   ||g|| =     4.835594e-01 Max(G)=   -9.070059e-02 Rot=513,142
   --- Orbital Update [SuperCI(PT)]
   --- Canonicalize Internal Space
   --- Canonicalize External Space
   --- SX_PT (Skipped TA=0 IT=0): ||X|| =      0.202321907 Max(X)(156,142) =     -0.064959537 
   --- SFit(Active Orbitals)

MACRO-ITERATION   6: 
   --- Inactive Energy E0 = -2922.99137728 Eh
CI-ITERATION   0: 
 -2930.539701658   0.000000000000 (    0.00)
 -2930.534367661   0.000000000000
 -2930.487054603   0.000000000000
 -2930.484610710   0.000000000000
 -2930.471947458   0.000000000000
   CI-PROBLEM SOLVED
   DENSITIES MADE
CI-ITERATION   0: 
 -2930.534577937   0.000000000000 (    0.00)
 -2930.514299210   0.000000000000
 -2930.508079893   0.000000000000
 -2930.500060711   0.000000000000
 -2930.494766218   0.000000000000
 -2930.490595970   0.000000000000
 -2930.486771013   0.000000000000
 -2930.482810022   0.000000000000
 -2930.480758391   0.000000000000
 -2930.480435481   0.000000000000
 -2930.477752011   0.000000000000
 -2930.476360389   0.000000000000
 -2930.471659615   0.000000000000
 -2930.469586119   0.000000000000
 -2930.465561870   0.000000000000
 -2930.460601296   0.000000000000
 -2930.454055596   0.000000000000
 -2930.452519708   0.000000000000
 -2930.444469424   0.000000000000
 -2930.441357057   0.000000000000
 -2930.440160775   0.000000000000
 -2930.429623298   0.000000000000
 -2930.427968986   0.000000000000
 -2930.426079280   0.000000000000
 -2930.422494046   0.000000000000
 -2930.420205918   0.000000000000
 -2930.418052814   0.000000000000
 -2930.415108701   0.000000000000
 -2930.413008331   0.000000000000
 -2930.401071674   0.000000000000
 -2930.391300028   0.000000000000
 -2930.386348442   0.000000000000
 -2930.382629729   0.000000000000
 -2930.373807115   0.000000000000
 -2930.368134241   0.000000000000
 -2930.330468334   0.000000000000
 -2930.235519278   0.000000000000
 -2930.209300309   0.000000000000
 -2930.193142011   0.000000000000
 -2930.181615093   0.000000000000
 -2930.178573912   0.000000000000
 -2930.162686109   0.000000000000
 -2930.136702969   0.000000000000
 -2930.093969194   0.000000000000
 -2930.064021943   0.000000000000
   CI-PROBLEM SOLVED
   DENSITIES MADE
   E(CAS)= -2930.446091214 Eh DE=   -1.696711e-02
   --- Energy gap subspaces: Ext-Act = 0.240   Act-Int = 0.100
   N(occ)=  1.20000 1.20000 1.20000 1.20000 1.20000
   ||g|| =     4.199304e-01 Max(G)=   -7.563356e-02 Rot=513,142
   --- Orbital Update [SuperCI(PT)]
   --- Canonicalize Internal Space
   --- Canonicalize External Space
   --- SX_PT (Skipped TA=0 IT=0): ||X|| =      0.162498258 Max(X)(146,141) =     -0.035355698 
   --- SFit(Active Orbitals)

MACRO-ITERATION   7: 
   --- Inactive Energy E0 = -2922.56981540 Eh
CI-ITERATION   0: 
 -2930.563107684   0.000000000000 (    0.00)
 -2930.548796283   0.000000000000
 -2930.514810688   0.000000000000
 -2930.503759220   0.000000000000
 -2930.498297865   0.000000000000
   CI-PROBLEM SOLVED
   DENSITIES MADE
CI-ITERATION   0: 
 -2930.560232278   0.000000000000 (    0.00)
 -2930.532711814   0.000000000000
 -2930.528284233   0.000000000000
 -2930.519792121   0.000000000000
 -2930.517098518   0.000000000000
 -2930.515263391   0.000000000000
 -2930.511895318   0.000000000000
 -2930.505044944   0.000000000000
 -2930.504235270   0.000000000000
 -2930.501224759   0.000000000000
 -2930.498274227   0.000000000000
 -2930.496489446   0.000000000000
 -2930.490294264   0.000000000000
 -2930.488371117   0.000000000000
 -2930.482294483   0.000000000000
 -2930.480421532   0.000000000000
 -2930.473253203   0.000000000000
 -2930.471580479   0.000000000000
 -2930.463134654   0.000000000000
 -2930.453409150   0.000000000000
 -2930.450914406   0.000000000000
 -2930.444862611   0.000000000000
 -2930.440848760   0.000000000000
 -2930.436677652   0.000000000000
 -2930.436208097   0.000000000000
 -2930.434762649   0.000000000000
 -2930.428465833   0.000000000000
 -2930.425651514   0.000000000000
 -2930.424099358   0.000000000000
 -2930.419038141   0.000000000000
 -2930.406151396   0.000000000000
 -2930.396629219   0.000000000000
 -2930.391654157   0.000000000000
 -2930.377224386   0.000000000000
 -2930.366134388   0.000000000000
 -2930.348299556   0.000000000000
 -2930.256900304   0.000000000000
 -2930.217055972   0.000000000000
 -2930.198221100   0.000000000000
 -2930.185738738   0.000000000000
 -2930.163833583   0.000000000000
 -2930.157445629   0.000000000000
 -2930.139293828   0.000000000000
 -2930.099017937   0.000000000000
 -2930.082757161   0.000000000000
   CI-PROBLEM SOLVED
   DENSITIES MADE
   E(CAS)= -2930.464223747 Eh DE=   -1.813253e-02
   --- Energy gap subspaces: Ext-Act = 0.236   Act-Int = 0.080
   N(occ)=  1.20000 1.20000 1.20000 1.20000 1.20000
   ||g|| =     2.511639e-01 Max(G)=   -5.367751e-02 Rot=513,142
   --- Orbital Update [SuperCI(PT)]
   --- Canonicalize Internal Space
   --- Canonicalize External Space
   --- SX_PT (Skipped TA=0 IT=0): ||X|| =      0.103284785 Max(X)(155,142) =      0.025272018 
   --- SFit(Active Orbitals)

MACRO-ITERATION   8: 
   --- Inactive Energy E0 = -2922.52423879 Eh
CI-ITERATION   0: 
 -2930.570807540   0.000000000000 (    0.00)
 -2930.553235357   0.000000000000
 -2930.520511962   0.000000000000
 -2930.509890363   0.000000000000
 -2930.501752824   0.000000000000
   CI-PROBLEM SOLVED
   DENSITIES MADE
CI-ITERATION   0: 
 -2930.568299764   0.000000000000 (    0.00)
 -2930.538027184   0.000000000000
 -2930.533835047   0.000000000000
 -2930.525080441   0.000000000000
 -2930.522285907   0.000000000000
 -2930.521113740   0.000000000000
 -2930.517462370   0.000000000000
 -2930.511205622   0.000000000000
 -2930.510281245   0.000000000000
 -2930.507465028   0.000000000000
 -2930.505056533   0.000000000000
 -2930.500225549   0.000000000000
 -2930.496189452   0.000000000000
 -2930.494320091   0.000000000000
 -2930.487648596   0.000000000000
 -2930.485197168   0.000000000000
 -2930.478983082   0.000000000000
 -2930.473750839   0.000000000000
 -2930.467546167   0.000000000000
 -2930.457353097   0.000000000000
 -2930.455416451   0.000000000000
 -2930.447207449   0.000000000000
 -2930.444328795   0.000000000000
 -2930.439937150   0.000000000000
 -2930.438046812   0.000000000000
 -2930.436155004   0.000000000000
 -2930.427405822   0.000000000000
 -2930.426044711   0.000000000000
 -2930.425679982   0.000000000000
 -2930.422338132   0.000000000000
 -2930.407203519   0.000000000000
 -2930.401515973   0.000000000000
 -2930.393777121   0.000000000000
 -2930.377899828   0.000000000000
 -2930.367382738   0.000000000000
 -2930.352403109   0.000000000000
 -2930.273099200   0.000000000000
 -2930.235120993   0.000000000000
 -2930.218629405   0.000000000000
 -2930.198568346   0.000000000000
 -2930.177332381   0.000000000000
 -2930.169976042   0.000000000000
 -2930.141061171   0.000000000000
 -2930.102653903   0.000000000000
 -2930.089697550   0.000000000000
   CI-PROBLEM SOLVED
   DENSITIES MADE
   E(CAS)= -2930.469733232 Eh DE=   -5.509485e-03
   --- Energy gap subspaces: Ext-Act = 0.229   Act-Int = 0.081
   N(occ)=  1.20000 1.20000 1.20000 1.20000 1.20000
   ||g|| =     1.845017e-01 Max(G)=   -4.148460e-02 Rot=513,142
   --- Orbital Update [SuperCI(PT)]
   --- Canonicalize Internal Space
   --- Canonicalize External Space
   --- SX_PT (Skipped TA=0 IT=0): ||X|| =      0.082627887 Max(X)(154,142) =      0.028136452 
   --- SFit(Active Orbitals)

MACRO-ITERATION   9: 
   --- Inactive Energy E0 = -2922.44001936 Eh
CI-ITERATION   0: 
 -2930.578483243   0.000000000000 (    0.00)
 -2930.557348125   0.000000000000
 -2930.525618084   0.000000000000
 -2930.516005799   0.000000000000
 -2930.504161741   0.000000000000
   CI-PROBLEM SOLVED
   DENSITIES MADE
CI-ITERATION   0: 
 -2930.576408128   0.000000000000 (    0.00)
 -2930.542735834   0.000000000000
 -2930.538972712   0.000000000000
 -2930.530703532   0.000000000000
 -2930.527517665   0.000000000000
 -2930.525994411   0.000000000000
 -2930.522009729   0.000000000000
 -2930.517069178   0.000000000000
 -2930.516067446   0.000000000000
 -2930.513506762   0.000000000000
 -2930.511034421   0.000000000000
 -2930.503960849   0.000000000000
 -2930.500722085   0.000000000000
 -2930.500158469   0.000000000000
 -2930.492474083   0.000000000000
 -2930.488766394   0.000000000000
 -2930.483975600   0.000000000000
 -2930.474761645   0.000000000000
 -2930.470975794   0.000000000000
 -2930.460867802   0.000000000000
 -2930.459264485   0.000000000000
 -2930.448784031   0.000000000000
 -2930.445859983   0.000000000000
 -2930.441421116   0.000000000000
 -2930.438595239   0.000000000000
 -2930.436430651   0.000000000000
 -2930.428003696   0.000000000000
 -2930.426411557   0.000000000000
 -2930.424164231   0.000000000000
 -2930.418361402   0.000000000000
 -2930.404711712   0.000000000000
 -2930.404241803   0.000000000000
 -2930.393981103   0.000000000000
 -2930.377487142   0.000000000000
 -2930.367753849   0.000000000000
 -2930.355107352   0.000000000000
 -2930.289953578   0.000000000000
 -2930.254170813   0.000000000000
 -2930.239416569   0.000000000000
 -2930.212676593   0.000000000000
 -2930.191049048   0.000000000000
 -2930.182897170   0.000000000000
 -2930.139998907   0.000000000000
 -2930.103783245   0.000000000000
 -2930.093664641   0.000000000000
   CI-PROBLEM SOLVED
   DENSITIES MADE
   E(CAS)= -2930.474571393 Eh DE=   -4.838161e-03
   --- Energy gap subspaces: Ext-Act = 0.221   Act-Int = 0.081
   N(occ)=  1.20000 1.20000 1.20000 1.20000 1.20000
   ||g|| =     1.299997e-01 Max(G)=   -3.089597e-02 Rot=513,142
   --- Orbital Update [SuperCI(PT)]
   --- Canonicalize Internal Space
   --- Canonicalize External Space
   --- SX_PT (Skipped TA=0 IT=0): ||X|| =      0.062915412 Max(X)(153,142) =     -0.021828472 
   --- SFit(Active Orbitals)

MACRO-ITERATION  10: 
   --- Inactive Energy E0 = -2922.38322974 Eh
CI-ITERATION   0: 
 -2930.583048206   0.000000000000 (    0.00)
 -2930.560295665   0.000000000000
 -2930.528339945   0.000000000000
 -2930.519625615   0.000000000000
 -2930.505587087   0.000000000000
   CI-PROBLEM SOLVED
   DENSITIES MADE
CI-ITERATION   0: 
 -2930.581320168   0.000000000000 (    0.00)
 -2930.545949507   0.000000000000
 -2930.542486596   0.000000000000
 -2930.534856295   0.000000000000
 -2930.530997496   0.000000000000
 -2930.529210716   0.000000000000
 -2930.524744373   0.000000000000
 -2930.520855778   0.000000000000
 -2930.519113969   0.000000000000
 -2930.517197653   0.000000000000
 -2930.514096330   0.000000000000
 -2930.506972874   0.000000000000
 -2930.503984351   0.000000000000
 -2930.501911060   0.000000000000
 -2930.495171154   0.000000000000
 -2930.490601538   0.000000000000
 -2930.486650132   0.000000000000
 -2930.475072494   0.000000000000
 -2930.472467390   0.000000000000
 -2930.463069976   0.000000000000
 -2930.461552909   0.000000000000
 -2930.449190110   0.000000000000
 -2930.446093658   0.000000000000
 -2930.442144900   0.000000000000
 -2930.439049893   0.000000000000
 -2930.436799785   0.000000000000
 -2930.428648092   0.000000000000
 -2930.426881787   0.000000000000
 -2930.421416666   0.000000000000
 -2930.411068138   0.000000000000
 -2930.404009296   0.000000000000
 -2930.399433434   0.000000000000
 -2930.391067245   0.000000000000
 -2930.377632890   0.000000000000
 -2930.369026753   0.000000000000
 -2930.356486904   0.000000000000
 -2930.303961374   0.000000000000
 -2930.270196830   0.000000000000
 -2930.256035995   0.000000000000
 -2930.226757491   0.000000000000
 -2930.204255624   0.000000000000
 -2930.195859600   0.000000000000
 -2930.137876939   0.000000000000
 -2930.103686873   0.000000000000
 -2930.095030028   0.000000000000
   CI-PROBLEM SOLVED
   DENSITIES MADE
   E(CAS)= -2930.477588464 Eh DE=   -3.017070e-03
   --- Energy gap subspaces: Ext-Act = 0.212   Act-Int = 0.084
   N(occ)=  1.20000 1.20000 1.20000 1.20000 1.20000
   ||g|| =     9.237743e-02 Max(G)=   -2.101226e-02 Rot=513,142
   --- Orbital Update [SuperCI(PT)]
   --- Canonicalize Internal Space
   --- Canonicalize External Space
   --- SX_PT (Skipped TA=0 IT=0): ||X|| =      0.047682027 Max(X)(153,142) =     -0.016225567 
   --- SFit(Active Orbitals)

MACRO-ITERATION  11: 
   --- Inactive Energy E0 = -2922.34233567 Eh
CI-ITERATION   0: 
 -2930.586536521   0.000000000000 (    0.00)
 -2930.562610797   0.000000000000
 -2930.530251007   0.000000000000
 -2930.522597362   0.000000000000
 -2930.506408426   0.000000000000
   CI-PROBLEM SOLVED
   DENSITIES MADE
CI-ITERATION   0: 
 -2930.585244465   0.000000000000 (    0.00)
 -2930.547631482   0.000000000000
 -2930.544968755   0.000000000000
 -2930.538353273   0.000000000000
 -2930.534015861   0.000000000000
 -2930.531717488   0.000000000000
 -2930.526871699   0.000000000000
 -2930.524108126   0.000000000000
 -2930.521343974   0.000000000000
 -2930.519663144   0.000000000000
 -2930.516118497   0.000000000000
 -2930.509837610   0.000000000000
 -2930.507348325   0.000000000000
 -2930.501543730   0.000000000000
 -2930.497009933   0.000000000000
 -2930.491419546   0.000000000000
 -2930.488451223   0.000000000000
 -2930.474726181   0.000000000000
 -2930.472962618   0.000000000000
 -2930.464693028   0.000000000000
 -2930.463018283   0.000000000000
 -2930.449088598   0.000000000000
 -2930.445548919   0.000000000000
 -2930.441911409   0.000000000000
 -2930.439180198   0.000000000000
 -2930.437183757   0.000000000000
 -2930.428706580   0.000000000000
 -2930.427009503   0.000000000000
 -2930.419235751   0.000000000000
 -2930.401243294   0.000000000000
 -2930.398069394   0.000000000000
 -2930.394101375   0.000000000000
 -2930.379344023   0.000000000000
 -2930.377548506   0.000000000000
 -2930.371212508   0.000000000000
 -2930.357561656   0.000000000000
 -2930.320763002   0.000000000000
 -2930.289844320   0.000000000000
 -2930.275929843   0.000000000000
 -2930.245663302   0.000000000000
 -2930.221081518   0.000000000000
 -2930.212981218   0.000000000000
 -2930.135502584   0.000000000000
 -2930.104219376   0.000000000000
 -2930.096668743   0.000000000000
   CI-PROBLEM SOLVED
   DENSITIES MADE
   E(CAS)= -2930.480069818 Eh DE=   -2.481354e-03
   --- Energy gap subspaces: Ext-Act = 0.200   Act-Int = 0.086
   N(occ)=  1.20000 1.20000 1.20000 1.20000 1.20000
   ||g|| =     5.514036e-02 Max(G)=    1.068621e-02 Rot=147,145
   --- Orbital Update [SuperCI(PT)]
   --- Canonicalize Internal Space
   --- Canonicalize External Space
   --- SX_PT (Skipped TA=0 IT=0): ||X|| =      0.027785203 Max(X)(143,141) =     -0.011329176 
   --- SFit(Active Orbitals)

MACRO-ITERATION  12: 
   --- Inactive Energy E0 = -2922.34377651 Eh
CI-ITERATION   0: 
 -2930.587355113   0.000000000000 (    0.00)
 -2930.563894979   0.000000000000
 -2930.530255608   0.000000000000
 -2930.523087673   0.000000000000
 -2930.507040714   0.000000000000
   CI-PROBLEM SOLVED
   DENSITIES MADE
CI-ITERATION   0: 
 -2930.586158088   0.000000000000 (    0.00)
 -2930.548063798   0.000000000000
 -2930.546169164   0.000000000000
 -2930.540048103   0.000000000000
 -2930.535087817   0.000000000000
 -2930.532461031   0.000000000000
 -2930.527558121   0.000000000000
 -2930.524923917   0.000000000000
 -2930.521899627   0.000000000000
 -2930.519883971   0.000000000000
 -2930.516363183   0.000000000000
 -2930.510630078   0.000000000000
 -2930.508364898   0.000000000000
 -2930.500562348   0.000000000000
 -2930.497165182   0.000000000000
 -2930.491413401   0.000000000000
 -2930.488701677   0.000000000000
 -2930.474621770   0.000000000000
 -2930.472772923   0.000000000000
 -2930.464939114   0.000000000000
 -2930.463548051   0.000000000000
 -2930.448704408   0.000000000000
 -2930.445045489   0.000000000000
 -2930.442561889   0.000000000000
 -2930.440381960   0.000000000000
 -2930.438598543   0.000000000000
 -2930.429433081   0.000000000000
 -2930.427826367   0.000000000000
 -2930.419095145   0.000000000000
 -2930.398990471   0.000000000000
 -2930.393056401   0.000000000000
 -2930.387173270   0.000000000000
 -2930.379888488   0.000000000000
 -2930.374523607   0.000000000000
 -2930.370018007   0.000000000000
 -2930.357629574   0.000000000000
 -2930.326964670   0.000000000000
 -2930.297589927   0.000000000000
 -2930.283574749   0.000000000000
 -2930.256829011   0.000000000000
 -2930.230699748   0.000000000000
 -2930.223018989   0.000000000000
 -2930.132132805   0.000000000000
 -2930.102284401   0.000000000000
 -2930.095011378   0.000000000000
   CI-PROBLEM SOLVED
   DENSITIES MADE
   E(CAS)= -2930.480856393 Eh DE=   -7.865755e-04
   --- Energy gap subspaces: Ext-Act = 0.194   Act-Int = 0.088
   N(occ)=  1.20000 1.20000 1.20000 1.20000 1.20000
   ||g|| =     3.062682e-02 Max(G)=    7.737750e-03 Rot=147,145
   --- Orbital Update [SuperCI(PT)]
   --- Canonicalize Internal Space
   --- Canonicalize External Space
   --- SX_PT (Skipped TA=0 IT=0): ||X|| =      0.017165103 Max(X)(143,141) =     -0.008522325 
   --- SFit(Active Orbitals)

MACRO-ITERATION  13: 
   --- Inactive Energy E0 = -2922.34783623 Eh
CI-ITERATION   0: 
 -2930.587742430   0.000000000000 (    0.00)
 -2930.564350955   0.000000000000
 -2930.530165761   0.000000000000
 -2930.523071705   0.000000000000
 -2930.507447628   0.000000000000
   CI-PROBLEM SOLVED
   DENSITIES MADE
CI-ITERATION   0: 
 -2930.586536942   0.000000000000 (    0.00)
 -2930.547918414   0.000000000000
 -2930.546344412   0.000000000000
 -2930.540508397   0.000000000000
 -2930.535383508   0.000000000000
 -2930.532566842   0.000000000000
 -2930.527810603   0.000000000000
 -2930.525128956   0.000000000000
 -2930.522061162   0.000000000000
 -2930.519951729   0.000000000000
 -2930.516456816   0.000000000000
 -2930.510965345   0.000000000000
 -2930.508682458   0.000000000000
 -2930.500027579   0.000000000000
 -2930.497274234   0.000000000000
 -2930.491324592   0.000000000000
 -2930.488866777   0.000000000000
 -2930.474648216   0.000000000000
 -2930.472657191   0.000000000000
 -2930.464974410   0.000000000000
 -2930.463847623   0.000000000000
 -2930.448702200   0.000000000000
 -2930.444943612   0.000000000000
 -2930.442983327   0.000000000000
 -2930.440858374   0.000000000000
 -2930.439258764   0.000000000000
 -2930.429807696   0.000000000000
 -2930.428346311   0.000000000000
 -2930.419294272   0.000000000000
 -2930.399201575   0.000000000000
 -2930.391276139   0.000000000000
 -2930.385467645   0.000000000000
 -2930.380655963   0.000000000000
 -2930.375861503   0.000000000000
 -2930.368026769   0.000000000000
 -2930.357524555   0.000000000000
 -2930.327755820   0.000000000000
 -2930.299033234   0.000000000000
 -2930.284930768   0.000000000000
 -2930.259903006   0.000000000000
 -2930.233282909   0.000000000000
 -2930.225810574   0.000000000000
 -2930.130661600   0.000000000000
 -2930.101260233   0.000000000000
 -2930.094142094   0.000000000000
   CI-PROBLEM SOLVED
   DENSITIES MADE
   E(CAS)= -2930.481088127 Eh DE=   -2.317339e-04
   --- Energy gap subspaces: Ext-Act = 0.193   Act-Int = 0.088
   N(occ)=  1.20000 1.20000 1.20000 1.20000 1.20000
   ||g|| =     2.870990e-02 Max(G)=    6.558436e-03 Rot=147,145
   --- Orbital Update [SuperCI(PT)]
   --- Canonicalize Internal Space
   --- Canonicalize External Space
   --- SX_PT (Skipped TA=0 IT=0): ||X|| =      0.014669062 Max(X)(143,141) =     -0.007284087 
   --- SFit(Active Orbitals)

MACRO-ITERATION  14: 
   --- Inactive Energy E0 = -2922.35555956 Eh
CI-ITERATION   0: 
 -2930.587539464   0.000000000000 (    0.00)
 -2930.564363800   0.000000000000
 -2930.530507654   0.000000000000
 -2930.523494698   0.000000000000
 -2930.507952849   0.000000000000
   CI-PROBLEM SOLVED
   DENSITIES MADE
CI-ITERATION   0: 
 -2930.586275923   0.000000000000 (    0.00)
 -2930.547880885   0.000000000000
 -2930.546656597   0.000000000000
 -2930.541159021   0.000000000000
 -2930.535964415   0.000000000000
 -2930.532769807   0.000000000000
 -2930.528227050   0.000000000000
 -2930.524927465   0.000000000000
 -2930.522057154   0.000000000000
 -2930.519840906   0.000000000000
 -2930.516303539   0.000000000000
 -2930.510851612   0.000000000000
 -2930.508721546   0.000000000000
 -2930.499593503   0.000000000000
 -2930.497268885   0.000000000000
 -2930.491248361   0.000000000000
 -2930.489142931   0.000000000000
 -2930.474805720   0.000000000000
 -2930.472578286   0.000000000000
 -2930.465319517   0.000000000000
 -2930.464246506   0.000000000000
 -2930.448450468   0.000000000000
 -2930.444548685   0.000000000000
 -2930.443070481   0.000000000000
 -2930.440978499   0.000000000000
 -2930.439547343   0.000000000000
 -2930.429983322   0.000000000000
 -2930.428673981   0.000000000000
 -2930.419390218   0.000000000000
 -2930.399392521   0.000000000000
 -2930.392046783   0.000000000000
 -2930.386302639   0.000000000000
 -2930.381233151   0.000000000000
 -2930.376715824   0.000000000000
 -2930.368677715   0.000000000000
 -2930.357955656   0.000000000000
[...]
      pz      :     2.123737  p :     6.504641
      px      :     2.179489
      py      :     2.201415
      dz2     :     2.003465  d :     9.967602
      dxz     :     1.989371
      dyz     :     1.981475
      dx2y2   :     2.004130
      dxy     :     1.989161
      f0      :     0.000567  f :     0.004498
      f+1     :     0.000648
      f-1     :     0.000623
      f+2     :     0.000578
      f-2     :     0.000692
      f+3     :     0.000605
      f-3     :     0.000783
 12 Aus       :     2.415791  s :     2.415791
      pz      :     2.143846  p :     6.512387
      px      :     2.197421
      py      :     2.171120
      dz2     :     2.011139  d :     9.980519
      dxz     :     1.996246
      dyz     :     1.973104
      dx2y2   :     2.007003
      dxy     :     1.993026
      f0      :     0.000581  f :     0.004398
      f+1     :     0.000772
      f-1     :     0.000616
      f+2     :     0.000515
      f-2     :     0.000555
      f+3     :     0.000865
      f-3     :     0.000494
 13 Aus       :     2.568401  s :     2.568401
      pz      :     2.092870  p :     6.306061
      px      :     2.097173
      py      :     2.116018
      dz2     :     2.001874  d :     9.996621
      dxz     :     2.001107
      dyz     :     1.992246
      dx2y2   :     2.001152
      dxy     :     2.000243
      f0      :     0.000423  f :     0.003690
      f+1     :     0.000572
      f-1     :     0.000693
      f+2     :     0.000508
      f-2     :     0.000415
      f+3     :     0.000674
      f-3     :     0.000404
 14 Crs       :     6.241373  s :     6.241373
      pz      :     4.194277  p :    12.571342
      px      :     4.196505
      py      :     4.180560
      dz2     :     1.270661  d :     6.481240
      dxz     :     1.606166
      dyz     :     0.974937
      dx2y2   :     1.067676
      dxy     :     1.561800
      f0      :     0.000205  f :     0.001990
      f+1     :     0.000366
      f-1     :     0.000264
      f+2     :     0.000340
      f-2     :     0.000218
      f+3     :     0.000378
      f-3     :     0.000220

SPIN
  0 Aus       :     0.024801  s :     0.024801
      pz      :     0.012193  p :     0.022201
      px      :     0.007786
      py      :     0.002223
      dz2     :     0.002853  d :     0.013295
      dxz     :     0.001830
      dyz     :     0.004177
      dx2y2   :     0.000999
      dxy     :     0.003436
      f0      :     0.000041  f :     0.000309
      f+1     :     0.000008
      f-1     :     0.000049
      f+2     :     0.000073
      f-2     :     0.000040
      f+3     :     0.000060
      f-3     :     0.000038
  1 Aus       :     0.026474  s :     0.026474
      pz      :     0.008687  p :     0.016934
      px      :     0.001472
      py      :     0.006775
      dz2     :     0.002350  d :     0.014253
      dxz     :     0.003337
      dyz     :     0.004486
      dx2y2   :     0.000986
      dxy     :     0.003093
      f0      :     0.000023  f :     0.000302
      f+1     :     0.000069
      f-1     :     0.000012
      f+2     :     0.000052
      f-2     :     0.000036
      f+3     :     0.000042
      f-3     :     0.000068
  2 Aus       :     0.006559  s :     0.006559
      pz      :     0.002946  p :     0.012432
      px      :     0.004440
      py      :     0.005046
      dz2     :     0.000395  d :     0.006542
      dxz     :     0.000705
      dyz     :     0.000633
      dx2y2   :     0.004584
      dxy     :     0.000226
      f0      :     0.000007  f :     0.000037
      f+1     :     0.000003
      f-1     :     0.000005
      f+2     :     0.000001
      f-2     :     0.000000
      f+3     :     0.000004
      f-3     :     0.000016
  3 Aus       :     0.016931  s :     0.016931
      pz      :     0.016813  p :     0.043121
      px      :     0.010077
      py      :     0.016231
      dz2     :     0.007283  d :     0.020568
      dxz     :     0.002958
      dyz     :     0.002620
      dx2y2   :     0.000626
      dxy     :     0.007081
      f0      :     0.000027  f :     0.000256
      f+1     :     0.000106
      f-1     :     0.000035
      f+2     :     0.000018
      f-2     :     0.000055
      f+3     :     0.000010
      f-3     :     0.000005
  4 Aus       :     0.016652  s :     0.016652
      pz      :     0.013141  p :     0.043367
      px      :     0.009562
      py      :     0.020664
      dz2     :     0.005581  d :     0.020616
      dxz     :     0.003071
      dyz     :     0.002905
      dx2y2   :     0.001875
      dxy     :     0.007185
      f0      :     0.000035  f :     0.000254
      f+1     :     0.000102
      f-1     :     0.000014
      f+2     :     0.000026
      f-2     :     0.000048
      f+3     :     0.000022
      f-3     :     0.000006
  5 Aus       :     0.008033  s :     0.008033
      pz      :     0.006986  p :     0.009952
      px      :     0.001202
      py      :     0.001764
      dz2     :     0.001747  d :     0.011360
      dxz     :     0.002969
      dyz     :     0.003122
      dx2y2   :     0.000840
      dxy     :     0.002681
      f0      :     0.000021  f :     0.000092
      f+1     :     0.000020
      f-1     :     0.000001
      f+2     :     0.000010
      f-2     :     0.000010
      f+3     :     0.000024
      f-3     :     0.000006
  6 Aus       :     0.026498  s :     0.026498
      pz      :     0.008098  p :     0.016973
      px      :     0.001515
      py      :     0.007360
      dz2     :     0.003233  d :     0.014342
      dxz     :     0.003288
      dyz     :     0.003305
      dx2y2   :     0.001232
      dxy     :     0.003285
      f0      :     0.000021  f :     0.000302
      f+1     :     0.000085
      f-1     :     0.000006
      f+2     :     0.000055
      f-2     :     0.000021
      f+3     :     0.000039
      f-3     :     0.000076
  7 Aus       :     0.017554  s :     0.017554
      pz      :     0.020997  p :     0.038110
      px      :     0.014980
      py      :     0.002133
      dz2     :     0.003693  d :     0.015373
      dxz     :     0.000556
      dyz     :     0.006186
      dx2y2   :     0.001974
      dxy     :     0.002963
      f0      :     0.000064  f :     0.000327
      f+1     :     0.000027
      f-1     :     0.000040
      f+2     :     0.000043
      f-2     :     0.000055
      f+3     :     0.000065
      f-3     :     0.000033
  8 Aus       :     0.022606  s :     0.022606
      pz      :     0.015709  p :     0.042587
      px      :     0.013446
      py      :     0.013432
      dz2     :     0.005674  d :     0.017325
      dxz     :     0.003452
      dyz     :     0.003815
      dx2y2   :     0.001259
      dxy     :     0.003124
      f0      :     0.000039  f :     0.000168
      f+1     :     0.000078
      f-1     :     0.000012
      f+2     :     0.000014
      f-2     :     0.000015
      f+3     :     0.000004
      f-3     :     0.000007
  9 Aus       :     0.022386  s :     0.022386
      pz      :     0.014448  p :     0.042552
      px      :     0.012762
      py      :     0.015343
      dz2     :     0.002316  d :     0.017306
      dxz     :     0.002420
      dyz     :     0.005510
      dx2y2   :     0.003106
      dxy     :     0.003954
      f0      :     0.000012  f :     0.000169
      f+1     :     0.000048
      f-1     :     0.000039
      f+2     :     0.000005
      f-2     :     0.000039
      f+3     :     0.000013
      f-3     :     0.000013
 10 Aus       :     0.008009  s :     0.008009
      pz      :     0.006755  p :     0.010058
      px      :     0.001057
      py      :     0.002246
      dz2     :     0.003975  d :     0.011542
      dxz     :     0.004428
      dyz     :     0.000579
      dx2y2   :     0.001312
      dxy     :     0.001248
      f0      :     0.000005  f :     0.000095
      f+1     :     0.000008
      f-1     :     0.000022
      f+2     :     0.000007
      f-2     :     0.000019
      f+3     :     0.000029
      f-3     :     0.000005
 11 Aus       :     0.017734  s :     0.017734
      pz      :     0.020129  p :     0.037724
      px      :     0.013849
      py      :     0.003746
      dz2     :     0.004733  d :     0.015279
      dxz     :     0.001082
      dyz     :     0.006225
      dx2y2   :     0.000879
      dxy     :     0.002360
      f0      :     0.000042  f :     0.000329
      f+1     :     0.000037
      f-1     :     0.000068
      f+2     :     0.000046
      f-2     :     0.000093
      f+3     :     0.000026
      f-3     :     0.000017
 12 Aus       :     0.025545  s :     0.025545
      pz      :     0.010824  p :     0.022041
      px      :     0.007642
      py      :     0.003574
      dz2     :     0.002996  d :     0.013133
      dxz     :     0.002603
      dyz     :     0.003593
      dx2y2   :     0.001348
      dxy     :     0.002594
      f0      :     0.000039  f :     0.000313
      f+1     :     0.000029
      f-1     :     0.000091
      f+2     :     0.000062
      f-2     :     0.000056
      f+3     :     0.000025
      f-3     :     0.000011
 13 Aus       :     0.006545  s :     0.006545
      pz      :     0.004545  p :     0.012592
      px      :     0.004685
      py      :     0.003361
      dz2     :     0.000175  d :     0.006607
      dxz     :     0.000410
      dyz     :     0.002238
      dx2y2   :     0.003350
      dxy     :     0.000434
      f0      :     0.000008  f :     0.000036
      f+1     :     0.000005
      f-1     :     0.000004
      f+2     :     0.000006
      f-2     :     0.000000
      f+3     :     0.000004
      f-3     :     0.000010
 14 Crs       :     0.004062  s :     0.004062
      pz      :     0.000129  p :     0.000850
      px      :     0.000375
      py      :     0.000346
      dz2     :     0.460070  d :     2.177583
      dxz     :     0.562306
      dyz     :     0.322755
      dx2y2   :     0.247302
      dxy     :     0.585151
      f0      :     0.000001  f :     0.000006
      f+1     :     0.000001
      f-1     :     0.000000
      f+2     :     0.000000
      f-2     :     0.000001
      f+3     :     0.000000
      f-3     :     0.000002


                      *****************************
                      * MAYER POPULATION ANALYSIS *
                      *****************************

  NA   - Mulliken gross atomic population
  ZA   - Total nuclear charge
  QA   - Mulliken gross atomic charge
  VA   - Mayer's total valence
  BVA  - Mayer's bonded valence
  FA   - Mayer's free valence

  ATOM       NA         ZA         QA         VA         BVA        FA
  0 Au    18.5090    19.0000     0.4910     1.3719     1.3503     0.0216
  1 Au    18.5804    19.0000     0.4196     1.5170     1.5048     0.0122
  2 Au    18.6745    19.0000     0.3255     1.1908     1.1741     0.0167
  3 Au    18.5471    19.0000     0.4529     1.3910     1.3525     0.0385
  4 Au    18.5467    19.0000     0.4533     1.3899     1.3512     0.0387
  5 Au    18.5711    19.0000     0.4289     1.2772     1.2614     0.0158
  6 Au    18.5868    19.0000     0.4132     1.5253     1.5129     0.0124
  7 Au    18.4227    19.0000     0.5773     1.3107     1.2861     0.0246
  8 Au    18.4605    19.0000     0.5395     1.2062     1.1535     0.0527
  9 Au    18.4568    19.0000     0.5432     1.2030     1.1509     0.0522
 10 Au    18.5691    19.0000     0.4309     1.2789     1.2631     0.0158
 11 Au    18.4218    19.0000     0.5782     1.3111     1.2869     0.0242
 12 Au    18.4996    19.0000     0.5004     1.3607     1.3391     0.0216
 13 Au    18.6726    19.0000     0.3274     1.1906     1.1738     0.0168
 14 Cr    30.4812    24.0000    -6.4812     9.4181     5.3585     4.0596

  Mayer bond orders larger than 0.100000
B(  0-Au,  2-Au) :   0.1071 B(  0-Au,  3-Au) :   0.1354 B(  0-Au,  5-Au) :   0.1894 
B(  0-Au,  7-Au) :   0.1307 B(  0-Au, 11-Au) :   0.1255 B(  0-Au, 14-Cr) :   0.3223 
B(  1-Au,  3-Au) :   0.1237 B(  1-Au,  6-Au) :   0.1151 B(  1-Au,  9-Au) :   0.1505 
B(  1-Au, 10-Au) :   0.1109 B(  1-Au, 11-Au) :   0.1723 B(  1-Au, 13-Au) :   0.2432 
B(  1-Au, 14-Cr) :   0.4160 B(  2-Au,  4-Au) :   0.1983 B(  2-Au,  5-Au) :   0.1577 
B(  2-Au,  6-Au) :   0.2457 B(  2-Au, 14-Cr) :   0.4659 B(  3-Au,  4-Au) :   0.1665 
B(  3-Au, 13-Au) :   0.1990 B(  3-Au, 14-Cr) :   0.3933 B(  4-Au,  6-Au) :   0.1253 
B(  4-Au, 12-Au) :   0.1348 B(  4-Au, 14-Cr) :   0.3937 B(  5-Au,  6-Au) :   0.1120 
B(  5-Au,  8-Au) :   0.1308 B(  5-Au, 11-Au) :   0.1335 B(  5-Au, 14-Cr) :   0.3632 
B(  6-Au,  7-Au) :   0.1725 B(  6-Au,  8-Au) :   0.1495 B(  6-Au, 14-Cr) :   0.4179 
B(  7-Au,  8-Au) :   0.1249 B(  7-Au, 10-Au) :   0.1350 B(  7-Au, 12-Au) :   0.1235 
B(  7-Au, 14-Cr) :   0.3819 B(  8-Au,  9-Au) :   0.1395 B(  8-Au, 14-Cr) :   0.3424 
B(  9-Au, 10-Au) :   0.1296 B(  9-Au, 11-Au) :   0.1257 B(  9-Au, 14-Cr) :   0.3398 
B( 10-Au, 12-Au) :   0.1889 B( 10-Au, 13-Au) :   0.1581 B( 10-Au, 14-Cr) :   0.3610 
B( 11-Au, 12-Au) :   0.1333 B( 11-Au, 14-Cr) :   0.3788 B( 12-Au, 13-Au) :   0.1058 
B( 12-Au, 14-Cr) :   0.3170 B( 13-Au, 14-Cr) :   0.4652 


-------------------------------------------------------------
 Forming the transition density       ... done in 0.022688 sec
-------------------------------------------------------------



==========================================
CASSCF UV, CD spectra and dipole moments
==========================================
-------------------
ABSORPTION SPECTRUM
-------------------

Center of mass           = ( 16.6382, 15.2909, 12.8958)
Nuclear contribution to the dipole moment =     0.200453,   -0.754307,    3.110281 au

Calculating the Dipole integrals                  ... done
Transforming integrals                            ... done
Calculating the Linear Momentum integrals         ... done
Transforming integrals                            ... done
Calculating the Angular Momentum integrals        ... done
Transforming integrals                            ... done

------------------------------------------------------------------------------------------
                                ABSORPTION SPECTRUM
------------------------------------------------------------------------------------------
  States           Energy   Wavelength   fosc          T2        TX         TY        TZ  
                   (cm-1)     (nm)                   (D**2)      (D)        (D)       (D) 
------------------------------------------------------------------------------------------
  0( 0)-> 1( 0) 5    2552.4   3917.9   0.000110086   0.09159   0.21526   0.20414   0.05981
  0( 0)-> 2( 0) 5   10347.5    966.4   0.000381360   0.07826  -0.00718   0.05510  -0.27418
  0( 0)-> 3( 0) 5   10881.9    919.0   0.000080585   0.01573   0.04747   0.10923   0.03925
  0( 0)-> 4( 0) 5   12792.1    781.7   0.000157104   0.02608   0.09372   0.12706   0.03394
------------------------------------------------------------------------------------------



------------------------------------------------------------------------------
                             CD SPECTRUM
------------------------------------------------------------------------------
      States        Energy   Wavelength   R*T        RX        RY        RZ   
                    (cm-1)      (nm)   (1e40*sgs)   (au)      (au)      (au)  
------------------------------------------------------------------------------
  0( 0)-> 1( 0) 5    2552.4   3917.9     4.99958  -0.53844   0.65899   0.13937
  0( 0)-> 2( 0) 5   10347.5    966.4    10.03027  -0.00342   0.04427  -0.18825
  0( 0)-> 3( 0) 5   10881.9    919.0     0.65877  -0.04833   0.04606   0.02077
  0( 0)-> 4( 0) 5   12792.1    781.7     4.97522   0.02012   0.18555   0.04016
------------------------------------------------------------------------------

------------------------------------------------------------------------------
                                 DIPOLE MOMENTS
------------------------------------------------------------------------------
  Root  Block           TX        TY        TZ           |T|
                      (Debye)   (Debye)   (Debye)      (Debye)
------------------------------------------------------------------------------
    0    0            0.01676  -0.18062   0.84831      0.86748

--------------
CASSCF TIMINGS
--------------

Total time                       ...     4120.3 sec
Sum of individual times          ...     4112.6 sec ( 99.8%)

Calculation of AO operators
   F(Core) operator              ...     2015.5 sec ( 48.9%)
   G(Act) operator               ...     1939.3 sec ( 47.1%)
   J(AO) operators               ...        0.0 sec (  0.0%)
Calculation of MO transformed quantities
   J(MO) operators               ...      148.8 sec (  3.6%)
   (pq|rs) integrals             ...        0.0 sec (  0.0%)
   AO->MO one electron integrals ...        1.2 sec (  0.0%)
Configuration interaction steps
   CI-setup phase                ...        0.0 sec (  0.0%)
   CI-solution phase             ...        0.7 sec (  0.0%)
   Generation of densities       ...        0.1 sec (  0.0%)
Orbital improvement steps
   Orbital gradient              ...        0.1 sec (  0.0%)
   O(1) converger                ...        6.9 sec (  0.2%)
Properties                       ...        0.0 sec (  0.0%)
   SOC integral calculation      ...        0.0 sec (  0.0%)
   SSC RMEs (incl. integrals)    ...        0.0 sec (  0.0%)
   SOC RMEs                      ...        0.0 sec (  0.0%)

Maximum memory used throughout the entire CASSCF-calculation: 375.6 MB

-------------------------   --------------------
FINAL SINGLE POINT ENERGY     -2930.482297822391
-------------------------   --------------------


                            ***************************************
                            *     ORCA property calculations      *
                            ***************************************

                                    ---------------------
                                    Active property flags
                                    ---------------------
   (+) Dipole Moment


------------------------------------------------------------------------------
                       ORCA ELECTRIC PROPERTIES CALCULATION
------------------------------------------------------------------------------

Dipole Moment Calculation                       ... on
Quadrupole Moment Calculation                   ... off
Polarizability Calculation                      ... off
GBWName                                         ... casscf.gbw
Electron density                                ... casscf.scfp
The origin for moment calculation is the CENTER OF MASS  = (16.638162, 15.290919 12.895797)

-------------
DIPOLE MOMENT
-------------
                                X             Y             Z
Electronic contribution:     -0.20199       0.76545      -3.18666
Nuclear contribution   :      0.20045      -0.75431       3.11028
                        -----------------------------------------
Total Dipole Moment    :     -0.00154       0.01115      -0.07638
                        -----------------------------------------
Magnitude (a.u.)       :      0.07720
Magnitude (Debye)      :      0.19623



--------------------
Rotational spectrum 
--------------------
 
Rotational constants in cm-1:     0.001286     0.000987     0.000882 
Rotational constants in MHz :    38.566472    29.594202    26.454133 

 Dipole components along the rotational axes: 
x,y,z [a.u.] :    -0.003041    -0.077091     0.002805 
x,y,z [Debye]:    -0.007730    -0.195949     0.007131 

 

Timings for individual modules:

Sum of individual times         ...     4135.158 sec (=  68.919 min)
GTO integral calculation        ...        8.760 sec (=   0.146 min)   0.2 %
SCF iterations                  ...        3.542 sec (=   0.059 min)   0.1 %
CASSCF iterations               ...     4122.857 sec (=  68.714 min)  99.7 %
                             ****ORCA TERMINATED NORMALLY****
TOTAL RUN TIME: 0 days 1 hours 8 minutes 55 seconds 693 msec
