
                                 *****************
                                 * O   R   C   A *
                                 *****************

                                            #,                                       
                                            ###                                      
                                            ####                                     
                                            #####                                    
                                            ######                                   
                                           ########,                                 
                                     ,,################,,,,,                         
                               ,,#################################,,                 
                          ,,##########################################,,             
                       ,#########################################, ''#####,          
                    ,#############################################,,   '####,        
                  ,##################################################,,,,####,       
                ,###########''''           ''''###############################       
              ,#####''   ,,,,##########,,,,          '''####'''          '####       
            ,##' ,,,,###########################,,,                        '##       
           ' ,,###''''                  '''############,,,                           
         ,,##''                                '''############,,,,        ,,,,,,###''
      ,#''                                            '''#######################'''  
     '                                                          ''''####''''         
             ,#######,   #######,   ,#######,      ##                                
            ,#'     '#,  ##    ##  ,#'     '#,    #''#        ######   ,####,        
            ##       ##  ##   ,#'  ##            #'  '#       #        #'  '#        
            ##       ##  #######   ##           ,######,      #####,   #    #        
            '#,     ,#'  ##    ##  '#,     ,#' ,#      #,         ##   #,  ,#        
             '#######'   ##     ##  '#######'  #'      '#     #####' # '####'        



                  #######################################################
                  #                        -***-                        #
                  #          Department of theory and spectroscopy      #
                  #    Directorship and core code : Frank Neese         #
                  #        Max Planck Institute fuer Kohlenforschung    #
                  #                Kaiser Wilhelm Platz 1               #
                  #                 D-45470 Muelheim/Ruhr               #
                  #                      Germany                        #
                  #                                                     #
                  #                  All rights reserved                #
                  #                        -***-                        #
                  #######################################################


                         Program Version 5.0.3 -  RELEASE  -


 With contributions from (in alphabetic order):
   Daniel Aravena         : Magnetic Suceptibility
   Michael Atanasov       : Ab Initio Ligand Field Theory (pilot matlab implementation)
   Alexander A. Auer      : GIAO ZORA, VPT2 properties, NMR spectrum
   Ute Becker             : Parallelization
   Giovanni Bistoni       : ED, misc. LED, open-shell LED, HFLD
   Martin Brehm           : Molecular dynamics
   Dmytro Bykov           : SCF Hessian
   Vijay G. Chilkuri      : MRCI spin determinant printing, contributions to CSF-ICE
   Dipayan Datta          : RHF DLPNO-CCSD density
   Achintya Kumar Dutta   : EOM-CC, STEOM-CC
   Dmitry Ganyushin       : Spin-Orbit,Spin-Spin,Magnetic field MRCI
   Miquel Garcia          : C-PCM and meta-GGA Hessian, CC/C-PCM, Gaussian charge scheme
   Yang Guo               : DLPNO-NEVPT2, F12-NEVPT2, CIM, IAO-localization
   Andreas Hansen         : Spin unrestricted coupled pair/coupled cluster methods
   Benjamin Helmich-Paris : MC-RPA, TRAH-SCF, COSX integrals
   Lee Huntington         : MR-EOM, pCC
   Robert Izsak           : Overlap fitted RIJCOSX, COSX-SCS-MP3, EOM
   Marcus Kettner         : VPT2
   Christian Kollmar      : KDIIS, OOCD, Brueckner-CCSD(T), CCSD density, CASPT2, CASPT2-K
   Simone Kossmann        : Meta GGA functionals, TD-DFT gradient, OOMP2, MP2 Hessian
   Martin Krupicka        : Initial AUTO-CI
   Lucas Lang             : DCDCAS
   Marvin Lechner         : AUTO-CI (C++ implementation), FIC-MRCC
   Dagmar Lenk            : GEPOL surface, SMD
   Dimitrios Liakos       : Extrapolation schemes; Compound Job, initial MDCI parallelization
   Dimitrios Manganas     : Further ROCIS development; embedding schemes
   Dimitrios Pantazis     : SARC Basis sets
   Anastasios Papadopoulos: AUTO-CI, single reference methods and gradients
   Taras Petrenko         : DFT Hessian,TD-DFT gradient, ASA, ECA, R-Raman, ABS, FL, XAS/XES, NRVS
   Peter Pinski           : DLPNO-MP2, DLPNO-MP2 Gradient
   Christoph Reimann      : Effective Core Potentials
   Marius Retegan         : Local ZFS, SOC
   Christoph Riplinger    : Optimizer, TS searches, QM/MM, DLPNO-CCSD(T), (RO)-DLPNO pert. Triples
   Tobias Risthaus        : Range-separated hybrids, TD-DFT gradient, RPA, STAB
   Michael Roemelt        : Original ROCIS implementation
   Masaaki Saitow         : Open-shell DLPNO-CCSD energy and density
   Barbara Sandhoefer     : DKH picture change effects
   Avijit Sen             : IP-ROCIS
   Kantharuban Sivalingam : CASSCF convergence, NEVPT2, FIC-MRCI
   Bernardo de Souza      : ESD, SOC TD-DFT
   Georgi Stoychev        : AutoAux, RI-MP2 NMR, DLPNO-MP2 response
   Willem Van den Heuvel  : Paramagnetic NMR
   Boris Wezisla          : Elementary symmetry handling
   Frank Wennmohs         : Technical directorship


 We gratefully acknowledge several colleagues who have allowed us to
 interface, adapt or use parts of their codes:
   Stefan Grimme, W. Hujo, H. Kruse, P. Pracht,  : VdW corrections, initial TS optimization,
                  C. Bannwarth, S. Ehlert          DFT functionals, gCP, sTDA/sTD-DF
   Ed Valeev, F. Pavosevic, A. Kumar             : LibInt (2-el integral package), F12 methods
   Garnet Chan, S. Sharma, J. Yang, R. Olivares  : DMRG
   Ulf Ekstrom                                   : XCFun DFT Library
   Mihaly Kallay                                 : mrcc  (arbitrary order and MRCC methods)
   Jiri Pittner, Ondrej Demel                    : Mk-CCSD
   Frank Weinhold                                : gennbo (NPA and NBO analysis)
   Christopher J. Cramer and Donald G. Truhlar   : smd solvation model
   Lars Goerigk                                  : TD-DFT with DH, B97 family of functionals
   V. Asgeirsson, H. Jonsson                     : NEB implementation
   FAccTs GmbH                                   : IRC, NEB, NEB-TS, DLPNO-Multilevel, CI-OPT
                                                   MM, QMMM, 2- and 3-layer-ONIOM, Crystal-QMMM,
                                                   LR-CPCM, SF, NACMEs, symmetry and pop. for TD-DFT,
                                                   nearIR, NL-DFT gradient (VV10), updates on ESD,
                                                   ML-optimized integration grids
   S Lehtola, MJT Oliveira, MAL Marques          : LibXC Library
   Liviu Ungur et al                             : ANISO software


 Your calculation uses the libint2 library for the computation of 2-el integrals
 For citations please refer to: http://libint.valeyev.net

 Your ORCA version has been built with support for libXC version: 5.1.0
 For citations please refer to: https://tddft.org/programs/libxc/

 This ORCA versions uses:
   CBLAS   interface :  Fast vector & matrix operations
   LAPACKE interface :  Fast linear algebra routines
   SCALAPACK package :  Parallel linear algebra routines
   Shared memory     :  Shared parallel matrices
   BLAS/LAPACK       :  OpenBLAS 0.3.15  USE64BITINT DYNAMIC_ARCH NO_AFFINITY Sandybridge SINGLE_THREADED
        Core in use  :  Sandybridge
   Copyright (c) 2011-2014, The OpenBLAS Project




***************************************
The coordinates will be read from file: pbe.xyz
***************************************


================================================================================

cite the ECPs for Au [Def2-ECP] as follows:
Ce-Yb(ecp-28): M. Dolg, H. Stoll, H.Preuss, J. Chem. Phys., 1989, 90, 1730-1734.
Y-Cd(ecp-28), Hf-Hg(ecp-46): D. Andrae,U. Haeussermann, M. Dolg, H. Stoll, H. Preuss, Theor. Chim. Acta, 1990, 77, 123-141.
In-Sb(ecp-28), Tl-Bi(ecp-46): B. Metz, H. Stoll, M. Dolg, J. Chem. Phys., 2000, 113, 2563-2569.
Te-Xe(ecp-28), Po-Rn(ecp-46): K. A. Peterson, D. Figgen, E. Goll, H. Stoll, M. Dolg, J. Chem. Phys., 2003, 119, 11113-11123.
Rb(ecp-28), Cs(ecp-46): T. Leininger, A. Nicklass, W. Kuechle, H. Stoll, M. Dolg, A. Bergner, Chem. Phys. Lett., 1996, 255, 274-280.
Sr(ecp-28), Ba(ecp-46): M. Kaupp, P. V. Schleyer, H. Stoll and H. Preuss, J. Chem. Phys., 1991, 94, 1360-1366.
La(ecp-46): M. Dolg, H. Stoll, A. Savin, H. Preuss, Theor. Chim. Acta, 1989, 75, 173-194.
Lu(ecp-28): X. Cao, M. Dolg, J. Chem. Phys., 2001, 115, 7348-7355.

ECP parameters for Au [Def2-ECP] have been obtained from:
TURBOMOLE (7.0.2)

----- Orbital basis set information -----
Your calculation utilizes the basis: def2-TZVP
   F. Weigend and R. Ahlrichs, Phys. Chem. Chem. Phys. 7, 3297 (2005).

----- AuxJ basis set information -----
Your calculation utilizes the auxiliary basis: def2/J
   F. Weigend, Phys. Chem. Chem. Phys. 8, 1057 (2006).

----- AuxC basis set information -----
Your calculation utilizes the auxiliary basis: def2-TZVP/C
  H-La, Hf-Rn : A. Hellweg, C. Hattig, S. Hofener and W. Klopper, Theor. Chem. Acc. 117, 587 (2007).
        Ce-Lu : J. Chmela and M. E. Harding, Mol. Phys. (2018).

================================================================================
                                        WARNINGS
                       Please study these warnings very carefully!
================================================================================


WARNING: your system is open-shell and RHF/RKS was chosen
  ===> : WILL SWITCH to UHF/UKS


WARNING: No MP2 level density has been requested!
         To caclulate MP2 level properties use
         %mp2 Density relaxed end
         or
         %mp2 Density unrelaxed end
         Otherwise for double-hybrid DFT only the energy is correct!

WARNING: The frozen-core approximation is turned on by default for 
         the MP2 part of double-hybrid DFT.

INFO   : the flag for use of the SHARK integral package has been found!



***************************************
The coordinates will be read from file: pbe.xyz
***************************************


================================================================================

cite the ECPs for Au [Def2-ECP] as follows:
Ce-Yb(ecp-28): M. Dolg, H. Stoll, H.Preuss, J. Chem. Phys., 1989, 90, 1730-1734.
Y-Cd(ecp-28), Hf-Hg(ecp-46): D. Andrae,U. Haeussermann, M. Dolg, H. Stoll, H. Preuss, Theor. Chim. Acta, 1990, 77, 123-141.
In-Sb(ecp-28), Tl-Bi(ecp-46): B. Metz, H. Stoll, M. Dolg, J. Chem. Phys., 2000, 113, 2563-2569.
Te-Xe(ecp-28), Po-Rn(ecp-46): K. A. Peterson, D. Figgen, E. Goll, H. Stoll, M. Dolg, J. Chem. Phys., 2003, 119, 11113-11123.
Rb(ecp-28), Cs(ecp-46): T. Leininger, A. Nicklass, W. Kuechle, H. Stoll, M. Dolg, A. Bergner, Chem. Phys. Lett., 1996, 255, 274-280.
Sr(ecp-28), Ba(ecp-46): M. Kaupp, P. V. Schleyer, H. Stoll and H. Preuss, J. Chem. Phys., 1991, 94, 1360-1366.
La(ecp-46): M. Dolg, H. Stoll, A. Savin, H. Preuss, Theor. Chim. Acta, 1989, 75, 173-194.
Lu(ecp-28): X. Cao, M. Dolg, J. Chem. Phys., 2001, 115, 7348-7355.

ECP parameters for Au [Def2-ECP] have been obtained from:
TURBOMOLE (7.0.2)

----- Orbital basis set information -----
Your calculation utilizes the basis: def2-TZVP
   F. Weigend and R. Ahlrichs, Phys. Chem. Chem. Phys. 7, 3297 (2005).

----- AuxJ basis set information -----
Your calculation utilizes the auxiliary basis: def2/J
   F. Weigend, Phys. Chem. Chem. Phys. 8, 1057 (2006).

----- AuxC basis set information -----
Your calculation utilizes the auxiliary basis: def2-TZVP/C
  H-La, Hf-Rn : A. Hellweg, C. Hattig, S. Hofener and W. Klopper, Theor. Chem. Acc. 117, 587 (2007).
        Ce-Lu : J. Chmela and M. E. Harding, Mol. Phys. (2018).

================================================================================
                                        WARNINGS
                       Please study these warnings very carefully!
================================================================================


WARNING: No MP2 level density has been requested!
         To caclulate MP2 level properties use
         %mp2 Density relaxed end
         or
         %mp2 Density unrelaxed end
         Otherwise for double-hybrid DFT only the energy is correct!

WARNING: The frozen-core approximation is turned on by default for 
         the MP2 part of double-hybrid DFT.

INFO   : the flag for use of the SHARK integral package has been found!

================================================================================
                                       INPUT FILE
================================================================================
NAME = b2plyp.inp
|  1> !RI-B2PLYP def2-TZVP def2-TZVP/C
|  2> !RIJCOSX VERYSLOWCONV
|  3> 
|  4> %scf
|  5>   AutoTRAHIter 200
|  6>   maxiter 400
|  7> end
|  8> 
|  9> 
| 10> %pal nprocs 6 end 
| 11> 
| 12> *xyzfile 0 5 pbe.xyz
| 13> 
| 14> $new_job
| 15> 
| 16> !RI-B2PLYP def2-TZVP def2-TZVP/C
| 17> !RIJCOSX VERYSLOWCONV
| 18> 
| 19> %scf
| 20>   AutoTRAHIter 200
| 21>   maxiter 400
| 22> end
| 23> 
| 24> 
| 25> %pal nprocs 6 end 
| 26> 
| 27> *xyzfile 0 3 pbe.xyz
| 28> 
| 29> 
| 30> 
| 31> 
| 32> 
| 33>                          ****END OF INPUT****
================================================================================


                 $$$$$$$$$$$$$$$$$$$$$$$$$$$$$$$$$$$$$$$$$$$$$$ 
                 $ THERE ARE  2 JOBS TO BE PROCESSED THIS RUN $
                 $$$$$$$$$$$$$$$$$$$$$$$$$$$$$$$$$$$$$$$$$$$$$$ 




                 $$$$$$$$$$$$$$$$  JOB NUMBER  1 $$$$$$$$$$$$$$


                       ****************************
                       * Single Point Calculation *
                       ****************************

---------------------------------
CARTESIAN COORDINATES (ANGSTROEM)
---------------------------------
  Au     6.532512    6.405381    6.890279
  Au    11.607878    8.610893    9.980761
  Au    10.433786    9.399555    7.514908
  Au     9.334519    5.715692    6.394103
  Au     8.298968    8.411692    6.122154
  Au    11.493906    6.655332    8.019445
  Au     9.696021    6.808715   10.858695
  Au     8.927005    9.537049    9.893466
  Au     7.477943    3.920055    7.620997
  Au     9.762147    4.693896    9.020897
  Au     6.708784    8.563154    8.631304
  Au     7.260380    5.902414    9.678157
  Fe     9.019057    7.345470    8.407268

----------------------------
CARTESIAN COORDINATES (A.U.)
----------------------------
  NO LB      ZA    FRAG     MASS         X           Y           Z
   0 Au   19.0000*   0   196.966   12.344659   12.104416   13.020740
   1 Au   19.0000*   0   196.966   21.935711   16.272230   18.860904
   2 Au   19.0000*   0   196.966   19.716999   17.762584   14.201118
   3 Au   19.0000*   0   196.966   17.639684   10.801093   12.083104
   4 Au   19.0000*   0   196.966   15.682776   15.895794   11.569194
   5 Au   19.0000*   0   196.966   21.720334   12.576755   15.154554
   6 Au   19.0000*   0   196.966   18.322825   12.866608   20.519960
   7 Au   19.0000*   0   196.966   16.869595   18.022411   18.695941
   8 Au   19.0000*   0   196.966   14.131264    7.407831   14.401596
   9 Au   19.0000*   0   196.966   18.447784    8.870177   17.047025
  10 Au   19.0000*   0   196.966   12.677764   16.182016   16.310801
  11 Au   19.0000*   0   196.966   13.720130   11.153946   18.289067
  12 Fe   26.0000    0    55.850   17.043547   13.880926   15.887433
* core charge reduced due to ECP

--------------------------------
INTERNAL COORDINATES (ANGSTROEM)
--------------------------------
 Au     0   0   0     0.000000000000     0.00000000     0.00000000
 Au     1   0   0     6.338351716046     0.00000000     0.00000000
 Au     2   1   0     2.842693648927    48.91842194     0.00000000
 Au     1   2   3     2.927986005897    53.00841233    82.19214073
 Au     3   2   1     2.733694815206   131.62269241   357.63217869
 Au     2   1   3     2.771997262120    51.43596909   272.46615975
 Au     2   1   3     2.770164137915    51.35569748   170.53989472
 Au     3   2   1     2.819012157854    60.15804466    60.02938385
 Au     1   2   3     2.757649978902    84.82929962   138.50221821
 Au     9   1   2     2.788572989528    99.42478191   359.95247332
 Au     8   3   2     2.731672022227    91.53547125   221.38061563
 Au     7   2   1     2.854365306064   131.63658432   353.97981953
 Fe     6   2   1     2.598379284856    75.29635617   357.71520683

---------------------------
INTERNAL COORDINATES (A.U.)
---------------------------
 Au     0   0   0     0.000000000000     0.00000000     0.00000000
 Au     1   0   0    11.977748883796     0.00000000     0.00000000
 Au     2   1   0     5.371912479110    48.91842194     0.00000000
 Au     1   2   3     5.533091675099    53.00841233    82.19214073
 Au     3   2   1     5.165934534459   131.62269241   357.63217869
 Au     2   1   3     5.238315669386    51.43596909   272.46615975
 Au     2   1   3     5.234851566670    51.35569748   170.53989472
 Au     3   2   1     5.327160946539    60.15804466    60.02938385
 Au     1   2   3     5.211203233338    84.82929962   138.50221821
 Au     9   1   2     5.269639254659    99.42478191   359.95247332
 Au     8   3   2     5.162112009704    91.53547125   221.38061563
 Au     7   2   1     5.393968714627   131.63658432   353.97981953
 Fe     6   2   1     4.910225240431    75.29635617   357.71520683

---------------------
BASIS SET INFORMATION
---------------------
There are 2 groups of distinct atoms

 Group   1 Type Au  : 8s7p6d1f contracted to 6s4p3d1f pattern {311111/4111/411/1}
 Group   2 Type Fe  : 17s11p7d1f contracted to 6s4p4d1f pattern {842111/6311/4111/1}

Atom   0Au   basis set group =>   1
Atom   1Au   basis set group =>   1
Atom   2Au   basis set group =>   1
Atom   3Au   basis set group =>   1
Atom   4Au   basis set group =>   1
Atom   5Au   basis set group =>   1
Atom   6Au   basis set group =>   1
Atom   7Au   basis set group =>   1
Atom   8Au   basis set group =>   1
Atom   9Au   basis set group =>   1
Atom  10Au   basis set group =>   1
Atom  11Au   basis set group =>   1
Atom  12Fe   basis set group =>   2
---------------------------------
AUXILIARY/J BASIS SET INFORMATION
---------------------------------
There are 2 groups of distinct atoms

 Group   1 Type Au  : 11s5p5d3f3g contracted to 8s5p5d2f3g pattern {41111111/11111/11111/21/111}
 Group   2 Type Fe  : 19s5p5d3f3g contracted to 8s5p5d2f3g pattern {121111111/11111/11111/21/111}

Atom   0Au   basis set group =>   1
Atom   1Au   basis set group =>   1
Atom   2Au   basis set group =>   1
Atom   3Au   basis set group =>   1
Atom   4Au   basis set group =>   1
Atom   5Au   basis set group =>   1
Atom   6Au   basis set group =>   1
Atom   7Au   basis set group =>   1
Atom   8Au   basis set group =>   1
Atom   9Au   basis set group =>   1
Atom  10Au   basis set group =>   1
Atom  11Au   basis set group =>   1
Atom  12Fe   basis set group =>   2
---------------------------------
AUXILIARY/C BASIS SET INFORMATION
---------------------------------
There are 2 groups of distinct atoms

 Group   1 Type Au  : 8s8p7d5f3g2h contracted to 8s8p7d5f3g2h pattern {11111111/11111111/1111111/11111/111/11}
 Group   2 Type Fe  : 11s9p8d6f5g2h contracted to 9s8p8d6f5g2h pattern {311111111/21111111/11111111/111111/11111/11}

Atom   0Au   basis set group =>   1
Atom   1Au   basis set group =>   1
Atom   2Au   basis set group =>   1
Atom   3Au   basis set group =>   1
Atom   4Au   basis set group =>   1
Atom   5Au   basis set group =>   1
Atom   6Au   basis set group =>   1
Atom   7Au   basis set group =>   1
Atom   8Au   basis set group =>   1
Atom   9Au   basis set group =>   1
Atom  10Au   basis set group =>   1
Atom  11Au   basis set group =>   1
Atom  12Fe   basis set group =>   2
-------------------------
ECP PARAMETER INFORMATION
-------------------------

 Group 1, Type Au ECP Def2-ECP (replacing 60 core electrons, lmax=3)

Atom   0Au   ECP group =>   1
Atom   1Au   ECP group =>   1
Atom   2Au   ECP group =>   1
Atom   3Au   ECP group =>   1
Atom   4Au   ECP group =>   1
Atom   5Au   ECP group =>   1
Atom   6Au   ECP group =>   1
Atom   7Au   ECP group =>   1
Atom   8Au   ECP group =>   1
Atom   9Au   ECP group =>   1
Atom  10Au   ECP group =>   1
Atom  11Au   ECP group =>   1



           ************************************************************
           *        Program running with 6 parallel MPI-processes     *
           *              working on a common directory               *
           ************************************************************
------------------------------------------------------------------------------
                           ORCA GTO INTEGRAL CALCULATION
                           -- RI-GTO INTEGRALS CHOSEN --
------------------------------------------------------------------------------
------------------------------------------------------------------------------
                   ___                                                        
                  /   \      - P O W E R E D   B Y -                         
                 /     \                                                     
                 |  |  |   _    _      __       _____    __    __             
                 |  |  |  | |  | |    /  \     |  _  \  |  |  /  |          
                  \  \/   | |  | |   /    \    | | | |  |  | /  /          
                 / \  \   | |__| |  /  /\  \   | |_| |  |  |/  /          
                |  |  |   |  __  | /  /__\  \  |    /   |      \           
                |  |  |   | |  | | |   __   |  |    \   |  |\   \          
                \     /   | |  | | |  |  |  |  | |\  \  |  | \   \       
                 \___/    |_|  |_| |__|  |__|  |_| \__\ |__|  \__/        
                                                                              
                      - O R C A' S   B I G   F R I E N D -                    
                                      &                                       
                       - I N T E G R A L  F E E D E R -                       
                                                                              
 v1 FN, 2020, v2 2021                                                         
------------------------------------------------------------------------------


Reading SHARK input file b2plyp.SHARKINP.tmp ... ok
----------------------
SHARK INTEGRAL PACKAGE
----------------------

Number of atoms                             ...     13
Number of basis functions                   ...    525
Number of shells                            ...    183
Maximum angular momentum                    ...      3
Integral batch strategy                     ... SHARK/LIBINT Hybrid
RI-J (if used) integral strategy            ... SPLIT-RIJ (Revised 2003 algorithm where possible)
Printlevel                                  ...      1
Contraction scheme used                     ... SEGMENTED contraction
Coulomb Range Separation                    ... NOT USED
Exchange Range Separation                   ... NOT USED
Finite Nucleus Model                        ... NOT USED
Auxiliary Coulomb fitting basis             ... AVAILABLE
   # of basis functions in Aux-J            ...   1157
   # of shells in Aux-J                     ...    299
   Maximum angular momentum in Aux-J        ...      4
Auxiliary J/K fitting basis                 ... NOT available
Auxiliary Correlation fitting basis         ... AVAILABLE
   # of basis functions in Aux-C            ...   1994
   # of shells in Aux-C                     ...    434
   Maximum angular momentum in Aux-C        ...      5
Auxiliary 'external' fitting basis          ... NOT available
Integral threshold                          ...     1.000000e-10
Primitive cut-off                           ...     1.000000e-11
Primitive pair pre-selection threshold      ...     1.000000e-11

Calculating pre-screening integrals         ... done (  0.3 sec) Dimension = 183
Organizing shell pair data                  ... done (  0.5 sec)
Shell pair information
Total number of shell pairs                 ...     16836
Shell pairs after pre-screening             ...     13800
Total number of primitive shell pairs       ...     45389
Primitive shell pairs kept                  ...     27220
          la=0 lb=0:   2160 shell pairs
          la=1 lb=0:   3146 shell pairs
          la=1 lb=1:   1204 shell pairs
          la=2 lb=0:   2720 shell pairs
          la=2 lb=1:   1925 shell pairs
          la=2 lb=2:    787 shell pairs
          la=3 lb=0:    741 shell pairs
          la=3 lb=1:    558 shell pairs
          la=3 lb=2:    476 shell pairs
          la=3 lb=3:     83 shell pairs

Calculating one electron integrals          ... done (  0.1 sec)
Calculating ECP integrals                   ... done ( 15.0 sec)
Calculating RI/J V-Matrix + Cholesky decomp.... done (  0.1 sec)
Calculating RI/C V-Matrix + Cholesky decomp.... done (  0.4 sec)
Calculating Nuclear repulsion               ... done (  0.0 sec) ENN=   4487.234129448141 Eh

SHARK setup successfully completed in  16.8 seconds

Maximum memory used throughout the entire GTOINT-calculation: 39.3 MB


           ************************************************************
           *        Program running with 6 parallel MPI-processes     *
           *              working on a common directory               *
           ************************************************************
-------------------------------------------------------------------------------
                                 ORCA SCF
-------------------------------------------------------------------------------

------------
SCF SETTINGS
------------
Hamiltonian:
 Density Functional     Method          .... DFT(GTOs)
 Exchange Functional    Exchange        .... B88
   X-Alpha parameter    XAlpha          ....  0.666667
   Becke's b parameter  XBeta           ....  0.004200
 Correlation Functional Correlation     .... LYP
 LDA part of GGA corr.  LDAOpt          .... VWN-3
 Gradients option       PostSCFGGA      .... off
 Hybrid DFT is turned on
   Fraction HF Exchange ScalHFX         ....  0.530000
   Scaling of DF-GGA-X  ScalDFX         ....  0.470000
   Scaling of DF-GGA-C  ScalDFC         ....  0.730000
   Scaling of DF-LDA-C  ScalLDAC        ....  0.730000
   Perturbative correction              ....  0.270000
   Density functional embedding theory  .... OFF
   NL short-range parameter             ....  7.800000
 RI-approximation to the Coulomb term is turned on
   Number of AuxJ basis functions       .... 1157
   RIJ-COSX (HFX calculated with COS-X)).... on


General Settings:
 Integral files         IntName         .... b2plyp
 Hartree-Fock type      HFTyp           .... UHF
 Total Charge           Charge          ....    0
 Multiplicity           Mult            ....    5
 Number of Electrons    NEL             ....  254
 Basis Dimension        Dim             ....  525
 Nuclear Repulsion      ENuc            ....   4487.2341294481 Eh

Convergence Acceleration:
 DIIS                   CNVDIIS         .... on
   Start iteration      DIISMaxIt       ....     0
   Startup error        DIISStart       ....  0.200000
   # of expansion vecs  DIISMaxEq       ....     5
   Bias factor          DIISBfac        ....   1.050
   Max. coefficient     DIISMaxC        ....  10.000
 Trust-Rad. Augm. Hess. CNVTRAH         .... auto
   Auto Start mean grad. ratio tolernc. ....  1.125000
   Auto Start start iteration           ....   200
   Auto Start num. interpolation iter.  ....    10
   Max. Number of Micro iterations      ....    16
   Max. Number of Macro iterations      .... Maxiter - #DIIS iter
   Number of Davidson start vectors     ....     2
   Converg. threshold I  (grad. norm)   ....   5.000e-05
   Converg. threshold II (energy diff.) ....   1.000e-06
   Grad. Scal. Fac. for Micro threshold ....   0.100
   Minimum threshold for Micro iter.    ....   0.010
   NR start threshold (gradient norm)   ....   0.001
   Initial trust radius                 ....   0.400
   Minimum AH scaling param. (alpha)    ....   1.000
   Maximum AH scaling param. (alpha)    .... 1000.000
   Orbital update algorithm             .... Taylor
   White noise on init. David. guess    .... on
   Maximum white noise                  ....   0.010
   Quad. conv. algorithm                .... NR
 SOSCF                  CNVSOSCF        .... off
 Level Shifting         CNVShift        .... on
   Level shift para.    LevelShift      ....    0.2500
   Turn off err/grad.   ShiftErr        ....    0.0000
 Zerner damping         CNVZerner       .... off
 Static damping         CNVDamp         .... on
   Fraction old density DampFac         ....    0.9200
   Max. Damping (<1)    DampMax         ....    0.9800
   Min. Damping (>=0)   DampMin         ....    0.0000
   Turn off err/grad.   DampErr         ....    0.0030
 Fernandez-Rico         CNVRico         .... off

SCF Procedure:
 Maximum # iterations   MaxIter         ....   400
 SCF integral mode      SCFMode         .... Direct
   Integral package                     .... SHARK and LIBINT hybrid scheme
 Reset frequency        DirectResetFreq ....    20
 Integral Threshold     Thresh          ....  1.000e-10 Eh
 Primitive CutOff       TCut            ....  1.000e-11 Eh

Convergence Tolerance:
 Convergence Check Mode ConvCheckMode   .... Total+1el-Energy
 Convergence forced     ConvForced      .... 0
 Energy Change          TolE            ....  1.000e-06 Eh
 1-El. energy change                    ....  1.000e-03 Eh
 DIIS Error             TolErr          ....  1.000e-06


Diagonalization of the overlap matrix:
Smallest eigenvalue                        ... 4.018e-04
Time for diagonalization                   ...    0.077 sec
Threshold for overlap eigenvalues          ... 1.000e-08
Number of eigenvalues below threshold      ... 0
Time for construction of square roots      ...    0.069 sec
Total time needed                          ...    0.147 sec

Time for model grid setup =    0.776 sec

------------------------------
INITIAL GUESS: MODEL POTENTIAL
------------------------------
Loading Hartree-Fock densities                     ... done
  calling /home/ehlert/src/miniconda3/envs/orca500/Programs/ORCA501/orca b2plyp_atom79.inp > b2plyp_atom79.out in order to generate an atomic fitting density for atom 0 (Au with ECP) on-the-fly... 
    atom 0 (Au), assumed electronic state with S=2: 1s2 2s2 2p6 3s2 3p6 4s2 3d10 4p6 5s2 4d10 5p6 6s1 4f14 5d10           ... done
Calculating cut-offs                               ... done
Initializing the effective Hamiltonian             ... done
Setting up the integral package (SHARK)            ... done
Starting the Coulomb interaction                   ... done (   0.7 sec)
Reading the grid                                   ... done
Mapping shells                                     ... done
Starting the XC term evaluation                    ... done (   0.8 sec)
  promolecular density results
     # of electrons  =    974.013205991
     EX              =  -4462.893835584
     EC              =    -19.785514417
     EX+EC           =  -4482.679350002
Transforming the Hamiltonian                       ... done (   0.1 sec)
Diagonalizing the Hamiltonian                      ... done (   0.1 sec)
Back transforming the eigenvectors                 ... done (   0.0 sec)
Now organizing SCF variables                       ... done
                      ------------------
                      INITIAL GUESS DONE (   3.5 sec)
                      ------------------
-------------------
DFT GRID GENERATION
-------------------

General Integration Accuracy     IntAcc      ... 4.388
Radial Grid Type                 RadialGrid  ... OptM3 with GC (2021)
Angular Grid (max. ang.)         AngularGrid ... 4 (Lebedev-302)
Angular grid pruning method      GridPruning ... 4 (adaptive)
Weight generation scheme         WeightScheme... Becke
Basis function cutoff            BFCut       ... 1.0000e-10
Integration weight cutoff        WCut        ... 1.0000e-14
Angular grids for H and He will be reduced by one unit
Partially contracted basis set               ... off
Rotationally invariant grid construction     ... off

Total number of grid points                  ...   144450
Total number of batches                      ...     2264
Average number of points per batch           ...       63
Average number of grid points per atom       ...    11112
Time for grid setup =    2.433 sec

--------------------
COSX GRID GENERATION
--------------------

GRIDX 1
-------
General Integration Accuracy     IntAcc      ... 3.816
Radial Grid Type                 RadialGrid  ... OptM3 with GC (2021)
Angular Grid (max. ang.)         AngularGrid ... 1 (Lebedev-50)
Angular grid pruning method      GridPruning ... 4 (adaptive)
Weight generation scheme         WeightScheme... Becke
Basis function cutoff            BFCut       ... 1.0000e-10
Integration weight cutoff        WCut        ... 1.0000e-14
Angular grids for H and He will be reduced by one unit
Partially contracted basis set               ... on
Rotationally invariant grid construction     ... off

Total number of grid points                  ...    15220
Total number of batches                      ...      245
Average number of points per batch           ...       62
Average number of grid points per atom       ...     1171
UseSFitting                                  ... on

GRIDX 2
-------
General Integration Accuracy     IntAcc      ... 4.020
Radial Grid Type                 RadialGrid  ... OptM3 with GC (2021)
Angular Grid (max. ang.)         AngularGrid ... 2 (Lebedev-110)
Angular grid pruning method      GridPruning ... 4 (adaptive)
Weight generation scheme         WeightScheme... Becke
Basis function cutoff            BFCut       ... 1.0000e-10
Integration weight cutoff        WCut        ... 1.0000e-14
Angular grids for H and He will be reduced by one unit
Partially contracted basis set               ... on
Rotationally invariant grid construction     ... off

Total number of grid points                  ...    45978
Total number of batches                      ...      726
Average number of points per batch           ...       63
Average number of grid points per atom       ...     3537
UseSFitting                                  ... on

GRIDX 3
-------
General Integration Accuracy     IntAcc      ... 4.338
Radial Grid Type                 RadialGrid  ... OptM3 with GC (2021)
Angular Grid (max. ang.)         AngularGrid ... 3 (Lebedev-194)
Angular grid pruning method      GridPruning ... 4 (adaptive)
Weight generation scheme         WeightScheme... Becke
Basis function cutoff            BFCut       ... 1.0000e-10
Integration weight cutoff        WCut        ... 1.0000e-14
Angular grids for H and He will be reduced by one unit
Partially contracted basis set               ... on
Rotationally invariant grid construction     ... off

Total number of grid points                  ...    84115
Total number of batches                      ...     1322
Average number of points per batch           ...       63
Average number of grid points per atom       ...     6470
UseSFitting                                  ... on

Time for X-Grid setup             =    2.330 sec

--------------
SCF ITERATIONS
--------------
ITER       Energy         Delta-E        Max-DP      RMS-DP      [F,P]     Damp
               ***  Starting incremental Fock matrix formation  ***
  0  -2885.0081147800   0.000000000000 0.05081807  0.00056996  0.5353882 0.9200
  1  -2886.1020726313  -1.093957851300 0.04715442  0.00052371  0.3496993 0.9200
                               ***Turning on DIIS***
  2  -2886.7076364332  -0.605563801980 0.04401680  0.00044967  0.2340403 0.9200
  3  -2886.9704481396  -0.262811706335 0.03000773  0.00036792  0.2153899 0.9200
  4  -2887.0431122900  -0.072664150401 0.02476280  0.00026974  0.1981562 0.9200
  5  -2887.1170952441  -0.073982954129 0.02338341  0.00024726  0.1821894 0.9200
  6  -2887.1991321975  -0.082036953441 0.02166571  0.00022965  0.1675090 0.9200
  7  -2887.2659793000  -0.066847102494 0.01992281  0.00020903  0.1541549 0.9200
  8  -2887.3310183298  -0.065039029745 0.01782367  0.00020585  0.1419278 0.9200
  9  -2887.4065226118  -0.075504282000 0.01686092  0.00019282  0.1306584 0.9200
 10  -2887.4718896874  -0.065367075607 0.01577524  0.00016896  0.1202658 0.9200
 11  -2887.5353948771  -0.063505189702 0.01479754  0.00015744  0.1106465 0.9200
 12  -2887.5934975439  -0.058102666793 0.01369167  0.00014576  0.1017556 0.9200
 13  -2887.6486042653  -0.055106721390 0.01238294  0.00013748  0.0936071 0.9200
 14  -2887.7036413924  -0.055037127141 0.01140757  0.00013354  0.0861386 0.9200
 15  -2887.7545501640  -0.050908771594 0.01083986  0.00012200  0.0792838 0.9200
 16  -2887.8025165716  -0.047966407615 0.01018872  0.00011259  0.0729560 0.9200
 17  -2887.8475575349  -0.045040963254 0.00949013  0.00010586  0.0671078 0.9200
 18  -2887.8899176413  -0.042360106405 0.00873253  0.00010041  0.0617292 0.9200
 19  -2887.9305929628  -0.040675321524 0.00805950  0.00009683  0.0567959 0.9200
               *** Restarting incremental Fock matrix formation ***
                                   *** Resetting DIIS ***
 20  -2887.9693519394  -0.038758976639 0.00710440  0.00008459  0.0522683 0.9200
 21  -2888.0057858738  -0.036433934309 0.00658801  0.00007676  0.0480918 0.9200
 22  -2888.0400940653  -0.034308191559 0.00622091  0.00007236  0.0442460 0.9200
 23  -2888.0722211401  -0.032127074815 0.00586968  0.00007003  0.0407132 0.9200
 24  -2888.1022872507  -0.030066110544 0.00551259  0.00006835  0.0374688 0.9200
 25  -2888.1304202648  -0.028133014122 0.00512804  0.00006604  0.0344826 0.9200
 26  -2888.1567778233  -0.026357558514 0.00476872  0.00006335  0.0317284 0.9200
 27  -2888.1814676859  -0.024689862606 0.00442873  0.00006053  0.0291886 0.9200
 28  -2888.2046062069  -0.023138521002 0.00425613  0.00005790  0.0268508 0.9200
 29  -2888.2263122358  -0.021706028924 0.00404706  0.00005545  0.0247027 0.9200
 30  -2888.2466783534  -0.020366117541 0.00385391  0.00005310  0.0227287 0.9200
 31  -2888.2657695788  -0.019091225373 0.00372030  0.00005073  0.0209124 0.9200
 32  -2888.2836562079  -0.017886629140 0.00356039  0.00004839  0.0192397 0.9200
 33  -2888.3004135661  -0.016757358230 0.00338813  0.00004620  0.0176998 0.9200
 34  -2888.3161126478  -0.015699081667 0.00330232  0.00004417  0.0162835 0.9200
 35  -2888.3308142545  -0.014701606738 0.00319348  0.00004226  0.0149810 0.9200
 36  -2888.3445699639  -0.013755709372 0.00306148  0.00004043  0.0137828 0.9200
 37  -2888.3574321431  -0.012862179165 0.00298815  0.00003868  0.0126801 0.9200
 38  -2888.3694547198  -0.012022576689 0.00293486  0.00003703  0.0120666 0.9200
 39  -2888.3806893880  -0.011234668244 0.00291170  0.00003565  0.0115155 0.9200
               *** Restarting incremental Fock matrix formation ***
                                   *** Resetting DIIS ***
 40  -2888.3911846120  -0.010495223982 0.00235405  0.00002801  0.0109939 0.9200
 41  -2888.4011454643  -0.009960852306 0.00199322  0.00002442  0.0109812 0.9200
 42  -2888.4104229423  -0.009277478061 0.00183585  0.00002317  0.0110914 0.9200
 43  -2888.4190368605  -0.008613918114 0.00185044  0.00002340  0.0107719 0.9200
 44  -2888.4270227349  -0.007985874426 0.00195080  0.00002415  0.0102104 0.9200
 45  -2888.4344221828  -0.007399447904 0.00201610  0.00002425  0.0096873 0.9200
 46  -2888.4412907069  -0.006868524096 0.00204161  0.00002428  0.0093976 0.9200
 47  -2888.4476648319  -0.006374125009 0.00203612  0.00002421  0.0090653 0.9200
 48  -2888.4535816411  -0.005916809225 0.00201662  0.00002401  0.0085815 0.9200
 49  -2888.4590778685  -0.005496227386 0.00198917  0.00002370  0.0080419 0.9200
 50  -2888.4641875232  -0.005109654647 0.00194798  0.00002332  0.0075625 0.9200
 51  -2888.4689400117  -0.004752488549 0.00189848  0.00002294  0.0071626 0.9200
 52  -2888.4733603667  -0.004420354978 0.00191071  0.00002253  0.0067738 0.9200
 53  -2888.4774725116  -0.004112144927 0.00191950  0.00002209  0.0063600 0.9200
 54  -2888.4812995418  -0.003827030144 0.00193012  0.00002163  0.0059455 0.9200
 55  -2888.4848628291  -0.003563287373 0.00193651  0.00002115  0.0055651 0.9200
 56  -2888.4881816213  -0.003318792218 0.00193363  0.00002068  0.0052640 0.9200
 57  -2888.4912732652  -0.003091643835 0.00192277  0.00002020  0.0050810 0.9200
 58  -2888.4941540232  -0.002880758018 0.00190762  0.00001973  0.0049100 0.9200
 59  -2888.4968391866  -0.002685163389 0.00190529  0.00001944  0.0047480 0.9200
               *** Restarting incremental Fock matrix formation ***
                                   *** Resetting DIIS ***
 60  -2888.4993421705  -0.002502983949 0.00147179  0.00001480  0.0045897 0.9200
 61  -2888.5017235790  -0.002381408432 0.00121524  0.00001244  0.0044584 0.9200
 62  -2888.5039436988  -0.002220119799 0.00111182  0.00001160  0.0043506 0.9200
 63  -2888.5060047810  -0.002061082270 0.00112845  0.00001179  0.0042642 0.9200
 64  -2888.5079162691  -0.001911488092 0.00122751  0.00001261  0.0041845 0.9200
 65  -2888.5096873860  -0.001771116853 0.00130629  0.00001305  0.0040914 0.9200
 66  -2888.5113312453  -0.001643859271 0.00136427  0.00001334  0.0039736 0.9200
 67  -2888.5128584342  -0.001527188921 0.00140504  0.00001355  0.0038465 0.9200
 68  -2888.5142783684  -0.001419934244 0.00143222  0.00001367  0.0037249 0.9200
 69  -2888.5155999497  -0.001321581253 0.00145024  0.00001370  0.0036118 0.9200
 70  -2888.5168314793  -0.001231529623 0.00146183  0.00001366  0.0035025 0.9200
 71  -2888.5179804124  -0.001148933078 0.00146617  0.00001356  0.0033922 0.9200
 72  -2888.5190533716  -0.001072959237 0.00146385  0.00001343  0.0034009 0.9200
 73  -2888.5200562261  -0.001002854477 0.00145665  0.00001327  0.0034323 0.9200
 74  -2888.5209943212  -0.000938095090 0.00144692  0.00001310  0.0034553 0.9200
 75  -2888.5218725183  -0.000878197144 0.00143573  0.00001291  0.0034715 0.9200
 76  -2888.5226951902  -0.000822671893 0.00142353  0.00001273  0.0034830 0.9200
 77  -2888.5234663268  -0.000771136634 0.00141081  0.00001255  0.0034902 0.9200
 78  -2888.5241895285  -0.000723201649 0.00139833  0.00001237  0.0034923 0.9200
 79  -2888.5248680842  -0.000678555715 0.00142124  0.00001243  0.0034886 0.9200
               *** Restarting incremental Fock matrix formation ***
                                   *** Resetting DIIS ***
 80  -2888.5255004639  -0.000632379692 0.00111761  0.00000969  0.0034793 0.9200
 81  -2888.5261140339  -0.000613569967 0.00094385  0.00000826  0.0034926 0.9200
 82  -2888.5266899446  -0.000575910766 0.00086675  0.00000765  0.0035062 0.9200
 83  -2888.5272277530  -0.000537808394 0.00086317  0.00000764  0.0035139 0.9200
 84  -2888.5277297100  -0.000501957008 0.00092202  0.00000814  0.0035136 0.9200
 85  -2888.5281979780  -0.000468267930 0.00096856  0.00000847  0.0035029 0.9200
 86  -2888.5286354521  -0.000437474142 0.00100927  0.00000876  0.0034847 0.9200
 87  -2888.5290444894  -0.000409037249 0.00104670  0.00000903  0.0034606 0.9200
 88  -2888.5294272224  -0.000382733011 0.00108015  0.00000928  0.0034311 0.9200
 89  -2888.5297856365  -0.000358414140 0.00110907  0.00000948  0.0033967 0.9200
 90  -2888.5301216091  -0.000335972543 0.00113482  0.00000966  0.0033574 0.9200
 91  -2888.5304368402  -0.000315231128 0.00115803  0.00000982  0.0033133 0.9200
 92  -2888.5307328445  -0.000296004340 0.00117896  0.00000996  0.0032641 0.9200
 93  -2888.5310110179  -0.000278173388 0.00119797  0.00001008  0.0032101 0.9200
 94  -2888.5312726334  -0.000261615462 0.00121471  0.00001019  0.0031512 0.9200
 95  -2888.5315188604  -0.000246227051 0.00122912  0.00001027  0.0030875 0.9200
 96  -2888.5317507835  -0.000231923115 0.00124108  0.00001033  0.0030191 0.9200
 97  -2888.5319694169  -0.000218633336 0.01562110  0.00012956  0.0029463 0.0000
 98  -2888.5355942107  -0.003624793856 0.01058477  0.00006590  0.0018282 0.0000
 99  -2888.5358959243  -0.000301713609 0.00340481  0.00002542  0.0010327 0.0000
               *** Restarting incremental Fock matrix formation ***
                                   *** Resetting DIIS ***
100  -2888.5359702372  -0.000074312878 0.00118952  0.00000964  0.0004131 0.0000
               *** Restarting incremental Fock matrix formation ***
                                   *** Resetting DIIS ***
101  -2888.5353461401   0.000624097104 0.00590841  0.00008995  0.0004516 0.0000
102  -2888.5354921942  -0.000146054118 0.00220162  0.00003207  0.0003846 0.0000
103  -2888.5355229166  -0.000030722392 0.00088213  0.00001255  0.0003602 0.0000
104  -2888.5355363269  -0.000013410229 0.00094236  0.00000807  0.0003406 0.0000
105  -2888.5355472508  -0.000010923937 0.00074027  0.00000698  0.0003355 0.0000
106  -2888.5355570613  -0.000009810501 0.00077807  0.00000657  0.0003261 0.0000
107  -2888.5355658189  -0.000008757568 0.00064389  0.00000656  0.0003238 0.0000
108  -2888.5355741798  -0.000008360917 0.00053221  0.00000617  0.0003089 0.0000
109  -2888.5355817488  -0.000007569010 0.00057823  0.00000638  0.0003074 0.0000
110  -2888.5355894487  -0.000007699877 0.00049194  0.00000555  0.0002921 0.0000
111  -2888.5355960234  -0.000006574768 0.00051212  0.00000554  0.0002956 0.0000
112  -2888.5356025373  -0.000006513866 0.00045595  0.00000513  0.0002901 0.0000
113  -2888.5356084055  -0.000005868156 0.00039430  0.00000468  0.0002944 0.0000
114  -2888.5356135950  -0.000005189558 0.00030949  0.00000385  0.0003009 0.0000
115  -2888.5356175701  -0.000003975081 0.00027583  0.00000330  0.0003152 0.0000
116  -2888.5356208186  -0.000003248497 0.00022915  0.00000275  0.0003300 0.0000
117  -2888.5356232960  -0.000002477379 0.00020816  0.00000249  0.0003425 0.0000
118  -2888.5356255515  -0.000002255582 0.00020644  0.00000257  0.0003514 0.0000
119  -2888.5356280452  -0.000002493676 0.00025468  0.00000325  0.0003539 0.0000
120  -2888.5356313739  -0.000003328677 0.00044097  0.00000515  0.0003507 0.0000
               *** Restarting incremental Fock matrix formation ***
                                   *** Resetting DIIS ***
121  -2888.5356363939  -0.000005019987 0.00028111  0.00000352  0.0003338 0.0000
122  -2888.5356400240  -0.000003630156 0.00024236  0.00000313  0.0003420 0.0000
123  -2888.5356431317  -0.000003107639 0.00023901  0.00000304  0.0003474 0.0000
124  -2888.5356461771  -0.000003045408 0.00022747  0.00000297  0.0003522 0.0000
125  -2888.5356491197  -0.000002942646 0.00023573  0.00000309  0.0003545 0.0000
126  -2888.5356521813  -0.000003061589 0.00036614  0.00000411  0.0003551 0.0000
127  -2888.5356566510  -0.000004469691 0.00054261  0.00000542  0.0003421 0.0000
128  -2888.5356628562  -0.000006205174 0.00037393  0.00000423  0.0003176 0.0000
129  -2888.5356673622  -0.000004506040 0.00036809  0.00000413  0.0003200 0.0000
130  -2888.5356718241  -0.000004461914 0.00035755  0.00000405  0.0003210 0.0000
131  -2888.5356761562  -0.000004332089 0.00033154  0.00000387  0.0003196 0.0000
132  -2888.5356802700  -0.000004113753 0.00029793  0.00000365  0.0003224 0.0000
133  -2888.5356840330  -0.000003763010 0.00032848  0.00000384  0.0003259 0.0000
134  -2888.5356880739  -0.000004040928 0.00041571  0.00000446  0.0003248 0.0000
135  -2888.5356929450  -0.000004871102 0.00052723  0.00000526  0.0003142 0.0000
136  -2888.5356988452  -0.000005900218 0.00039357  0.00000439  0.0002966 0.0000
137  -2888.5357034820  -0.000004636782 0.00041217  0.00000448  0.0002991 0.0000
138  -2888.5357082787  -0.000004796671 0.00036254  0.00000417  0.0002968 0.0000
139  -2888.5357125785  -0.000004299802 0.00031633  0.00000384  0.0002988 0.0000
140  -2888.5357164844  -0.000003905905 0.00094384  0.00000470  0.0003045 0.0000
               *** Restarting incremental Fock matrix formation ***
                                   *** Resetting DIIS ***
141  -2888.5357193255  -0.000002841101 0.00040057  0.00000356  0.0003077 0.0000
142  -2888.5357225456  -0.000003220059 0.00023098  0.00000311  0.0003156 0.0000
143  -2888.5357253997  -0.000002854166 0.00022665  0.00000303  0.0003213 0.0000
144  -2888.5357282218  -0.000002822073 0.00021872  0.00000302  0.0003255 0.0000
145  -2888.5357310413  -0.000002819449 0.00027603  0.00000345  0.0003272 0.0000
146  -2888.5357343769  -0.000003335683 0.00045897  0.00000487  0.0003235 0.0000
147  -2888.5357394852  -0.000005108267 0.00046473  0.00000487  0.0003029 0.0000
148  -2888.5357446333  -0.000005148052 0.00037393  0.00000423  0.0002908 0.0000
149  -2888.5357489013  -0.000004268064 0.00038087  0.00000423  0.0002917 0.0000
150  -2888.5357531965  -0.000004295176 0.00039581  0.00000432  0.0002900 0.0000
151  -2888.5357576210  -0.000004424548 0.00039537  0.00000434  0.0002856 0.0000
152  -2888.5357620219  -0.000004400896 0.00046250  0.00000481  0.0002831 0.0000
153  -2888.5357670139  -0.000004991952 0.00046243  0.00000483  0.0002730 0.0000
154  -2888.5357719791  -0.000004965189 0.00046015  0.00000483  0.0002664 0.0000
155  -2888.5357769307  -0.000004951661 0.00043636  0.00000469  0.0002606 0.0000
156  -2888.5357816449  -0.000004714178 0.00044590  0.00000476  0.0002587 0.0000
157  -2888.5357864451  -0.000004800201 0.00041086  0.00000456  0.0002544 0.0000
158  -2888.5357909140  -0.000004468835 0.00042584  0.00000467  0.0002548 0.0000
159  -2888.5357955234  -0.000004609410 0.00040869  0.00000458  0.0002516 0.0000
160  -2888.5357999423  -0.000004418955 0.00126032  0.00000644  0.0002509 0.0000
               *** Restarting incremental Fock matrix formation ***
                                   *** Resetting DIIS ***
161  -2888.5358044594  -0.000004517094 0.00027818  0.00000346  0.0002400 0.0000
162  -2888.5358072445  -0.000002785073 0.00021779  0.00000292  0.0002635 0.0000
163  -2888.5358095626  -0.000002318160 0.00021533  0.00000286  0.0002764 0.0000
164  -2888.5358119240  -0.000002361319 0.00021201  0.00000286  0.0002832 0.0000
165  -2888.5358142678  -0.000002343841 0.00022342  0.00000305  0.0002872 0.0000
166  -2888.5358168229  -0.000002555079 0.00038137  0.00000449  0.0002878 0.0000
167  -2888.5358209854  -0.000004162533 0.00051059  0.00000542  0.0002735 0.0000
168  -2888.5358261286  -0.000005143218 0.00029475  0.00000379  0.0002517 0.0000
169  -2888.5358294264  -0.000003297727 0.00040174  0.00000442  0.0002623 0.0000
170  -2888.5358335654  -0.000004139053 0.00033163  0.00000397  0.0002532 0.0000
171  -2888.5358371265  -0.000003561083 0.00037139  0.00000418  0.0002562 0.0000
172  -2888.5358409487  -0.000003822202 0.00047419  0.00000495  0.0002515 0.0000
173  -2888.5358456673  -0.000004718626 0.00036087  0.00000418  0.0002385 0.0000
174  -2888.5358494900  -0.000003822651 0.00053940  0.00000537  0.0002415 0.0000
175  -2888.5358546994  -0.000005209403 0.00024549  0.00000320  0.0002222 0.0000
176  -2888.5358572816  -0.000002582167 0.00035613  0.00000405  0.0002481 0.0000
177  -2888.5358610082  -0.000003726612 0.00049109  0.00000509  0.0002412 0.0000
178  -2888.5358656406  -0.000004632388 0.00047308  0.00000501  0.0002248 0.0000
179  -2888.5358702347  -0.000004594153 0.00027253  0.00000366  0.0002165 0.0000
180  -2888.5358732324  -0.000002997679 0.00087623  0.00000496  0.0002330 0.0000
               *** Restarting incremental Fock matrix formation ***
                                   *** Resetting DIIS ***
181  -2888.5358763178  -0.000003085466 0.00039401  0.00000329  0.0002299 0.0000
182  -2888.5358786178  -0.000002299994 0.00021163  0.00000266  0.0002452 0.0000
183  -2888.5358804543  -0.000001836452 0.00020803  0.00000279  0.0002551 0.0000
184  -2888.5358826409  -0.000002186603 0.00022738  0.00000303  0.0002588 0.0000
185  -2888.5358849798  -0.000002338864 0.00032926  0.00000402  0.0002587 0.0000
186  -2888.5358883985  -0.000003418712 0.00047808  0.00000514  0.0002483 0.0000
187  -2888.5358928799  -0.000004481474 0.00030325  0.00000376  0.0002265 0.0000
188  -2888.5358959940  -0.000003114039 0.00051717  0.00000522  0.0002326 0.0000
189  -2888.5359006831  -0.000004689145 0.00023057  0.00000302  0.0002098 0.0000
190  -2888.5359029169  -0.000002233810 0.00037361  0.00000411  0.0002337 0.0000
191  -2888.5359065548  -0.000003637903 0.00031982  0.00000382  0.0002229 0.0000
192  -2888.5359096916  -0.000003136771 0.00024615  0.00000328  0.0002233 0.0000
193  -2888.5359122390  -0.000002547356 0.00024165  0.00000323  0.0002307 0.0000
194  -2888.5359147546  -0.000002515650 0.00039076  0.00000430  0.0002333 0.0000
195  -2888.5359183944  -0.000003639787 0.00043138  0.00000464  0.0002201 0.0000
196  -2888.5359222668  -0.000003872343 0.00031951  0.00000386  0.0002074 0.0000
197  -2888.5359253122  -0.000003045401 0.00044043  0.00000463  0.0002119 0.0000
198  -2888.5359291939  -0.000003881722 0.00024813  0.00000327  0.0001980 0.0000
199  -2888.5359316614  -0.000002467547 0.00035945  0.00000404  0.0002129 0.0000

 WARNING: the maximum gradient error descreased on average only by a factor   1.0
          during the last 200 iterations

                      *** Initiating the TRAH-SCF procedure ***


TRAH GRIDX
----------

General Integration Accuracy     IntAcc      ... 3.067
Radial Grid Type                 RadialGrid  ... OptM3 with GC (2021)
Angular Grid (max. ang.)         AngularGrid ... 1 (Lebedev-50)
Angular grid pruning method      GridPruning ... 4 (adaptive)
Weight generation scheme         WeightScheme... Becke
Basis function cutoff            BFCut       ... 1.0000e-10
Integration weight cutoff        WCut        ... 1.0000e-14
Angular grids for H and He will be reduced by one unit
Partially contracted basis set               ... on
Rotationally invariant grid construction     ... off

Total number of grid points                  ...    11411
Total number of batches                      ...      184
Average number of points per batch           ...       62
Average number of grid points per atom       ...      878


TRAH GRID
---------

General Integration Accuracy     IntAcc      ... 3.467
Radial Grid Type                 RadialGrid  ... OptM3 with GC (2021)
Angular Grid (max. ang.)         AngularGrid ... 1 (Lebedev-50)
Angular grid pruning method      GridPruning ... 4 (adaptive)
Weight generation scheme         WeightScheme... Becke
Basis function cutoff            BFCut       ... 1.0000e-10
Integration weight cutoff        WCut        ... 1.0000e-14
Angular grids for H and He will be reduced by one unit
Partially contracted basis set               ... off
Rotationally invariant grid construction     ... off

Total number of grid points                  ...    62351
Total number of batches                      ...      980
Average number of points per batch           ...       63
Average number of grid points per atom       ...     4796

 --------------------------------------------------------------------------------------------
   Iter.        energy            ||Error||_2        Shift      TRadius  Mac/Mic        Rej.
 --------------------------------------------------------------------------------------------
    0      -2888.535934507740     6.858301e-04                     0.400 (TRAH MAcro)   No
    0     dE    -3.211056e-06     5.942085e-03    -3.2110e-06      0.005 (TRAH MIcro)
    0     dE    -2.163756e-05     1.501507e-02    -2.1615e-05      0.033 (TRAH MIcro)
    0     dE    -1.414881e-04     1.766869e-02    -1.3577e-04      0.205 (TRAH MIcro)
    0     dE    -2.170014e-04     6.548317e-03    -1.9903e-04      0.300 (TRAH MIcro)
    0     dE    -2.451514e-04     3.301944e-03    -2.2075e-04      0.333 (TRAH MIcro)
    0     dE    -2.561130e-04     2.408275e-03    -2.2898e-04      0.344 (TRAH MIcro)
    0     dE    -2.611053e-04     1.793873e-03    -2.3272e-04      0.349 (TRAH MIcro)
    0     dE    -2.637030e-04     1.698219e-03    -2.3469e-04      0.352 (TRAH MIcro)
    0     dE    -2.654929e-04     9.941427e-04    -2.3605e-04      0.353 (TRAH MIcro)
    0     dE    -2.662668e-04     7.732365e-04    -2.3664e-04      0.354 (TRAH MIcro)
    0     dE    -2.670138e-04     8.044658e-04    -2.3723e-04      0.354 (TRAH MIcro)
    0     dE    -2.675995e-04     6.680113e-04    -2.3769e-04      0.355 (TRAH MIcro)
    0     dE    -2.679280e-04     4.782644e-04    -2.3794e-04      0.355 (TRAH MIcro)
    0     dE    -2.680914e-04     2.988340e-04    -2.3807e-04      0.355 (TRAH MIcro)
 ---------------------------------
          TRAH Step control 
 ---------------------------------
  predicted energy change = -0.000268
  actual energy  change   = 0.000046
  energy change ratio     = -0.170288
  old trust radius        = 0.400000
  new trust radius        = 0.280000
  reject step?            =  1
    1      -2888.535934507740     0.000000e+00                     0.280 (TRAH MAcro)  Yes
    2      -2888.535934507742     6.858301e-04                           (NR   MAcro)
    2     dE    -2.617792e-05     4.807408e-03                           (NR   MIcro)
    2     dE    -4.273594e-05     4.354756e-03                           (NR   MIcro)
    2     dE    -8.248056e-05     6.206765e-03                           (NR   MIcro)
    2     dE    -1.141200e-04     3.993812e-03                           (NR   MIcro)
    2     dE    -1.472295e-04     5.714741e-03                           (NR   MIcro)
    2     dE    -1.787992e-04     5.377050e-03                           (NR   MIcro)
    2     dE    -1.977906e-04     4.245485e-03                           (NR   MIcro)
    2     dE    -2.226455e-04     4.318070e-03                           (NR   MIcro)
    2     dE    -2.429251e-04     4.573535e-03                           (NR   MIcro)
    2     dE    -2.596040e-04     3.561721e-03                           (NR   MIcro)
    2     dE    -2.683636e-04     2.356631e-03                           (NR   MIcro)
    2     dE    -2.717066e-04     1.393549e-03                           (NR   MIcro)
    2     dE    -2.726935e-04     6.166467e-04                           (NR   MIcro)
    2     dE    -2.729282e-04     3.621620e-04                           (NR   MIcro)
    2     dE    -2.730257e-04     2.697626e-04                           (NR   MIcro)
    3      -2888.535681015621     1.440247e-02                     0.280 (TRAH MAcro)   No
    3     dE    -4.470031e-05     2.024560e-02    -4.4700e-05      0.003 (TRAH MIcro)
    3     dE    -3.945082e-04     1.015031e-02    -3.9367e-04      0.046 (TRAH MIcro)
    3     dE    -4.272755e-04     5.794844e-03    -4.2612e-04      0.052 (TRAH MIcro)
    3     dE    -4.490427e-04     3.499562e-03    -4.4752e-04      0.058 (TRAH MIcro)
    3     dE    -4.551791e-04     1.675805e-03    -4.5352e-04      0.060 (TRAH MIcro)
    3     dE    -4.562099e-04     7.934498e-04    -4.5453e-04      0.061 (TRAH MIcro)
    4      -2888.536154920362     9.837571e-04                           (NR   MAcro)
    4     dE    -1.784554e-06     1.209810e-03                           (NR   MIcro)
    4     dE    -3.426082e-06     8.339874e-04                           (NR   MIcro)
    4     dE    -3.921977e-06     5.468903e-04                           (NR   MIcro)
    4     dE    -4.276749e-06     5.137374e-04                           (NR   MIcro)
    4     dE    -4.570102e-06     5.693094e-04                           (NR   MIcro)
    4     dE    -5.385000e-06     1.244492e-03                           (NR   MIcro)
    4     dE    -7.678511e-06     1.345675e-03                           (NR   MIcro)
    4     dE    -8.626438e-06     9.596841e-04                           (NR   MIcro)
    4     dE    -9.358807e-06     6.796013e-04                           (NR   MIcro)
    4     dE    -9.744910e-06     5.432433e-04                           (NR   MIcro)
    4     dE    -1.003188e-05     5.011308e-04                           (NR   MIcro)
    4     dE    -1.020852e-05     3.679382e-04                           (NR   MIcro)
    4     dE    -1.037296e-05     3.677292e-04                           (NR   MIcro)
    4     dE    -1.047751e-05     2.819854e-04                           (NR   MIcro)
    4     dE    -1.053836e-05     2.309002e-04                           (NR   MIcro)
    5      -2888.536166067332     3.430204e-04                           (NR   MAcro)
    5     dE    -8.903594e-08     2.398243e-04                           (NR   MIcro)
    5     dE    -1.451515e-07     1.854953e-04                           (NR   MIcro)
    5     dE    -1.653934e-07     1.272908e-04                           (NR   MIcro)
    5     dE    -1.792645e-07     1.199987e-04                           (NR   MIcro)
    5     dE    -1.900873e-07     1.026133e-04                           (NR   MIcro)
    5     dE    -2.024677e-07     1.164450e-04                           (NR   MIcro)
    5     dE    -2.187382e-07     1.303051e-04                           (NR   MIcro)
    5     dE    -2.334601e-07     1.327721e-04                           (NR   MIcro)
    5     dE    -2.531392e-07     1.090137e-04                           (NR   MIcro)
    5     dE    -2.621794e-07     1.043791e-04                           (NR   MIcro)
    5     dE    -2.748663e-07     1.009605e-04                           (NR   MIcro)
    5     dE    -2.843974e-07     1.016633e-04                           (NR   MIcro)
    5     dE    -2.983458e-07     1.037733e-04                           (NR   MIcro)
    5     dE    -3.099128e-07     1.062605e-04                           (NR   MIcro)
    5     dE    -3.186400e-07     8.565300e-05                           (NR   MIcro)
    6      -2888.536166391399     8.588846e-05                           (NR   MAcro)
    6     dE    -3.397443e-09     3.754720e-05                           (NR   MIcro)
    6     dE    -6.230754e-09     4.897271e-05                           (NR   MIcro)
    6     dE    -8.192257e-09     4.218064e-05                           (NR   MIcro)
    6     dE    -9.316509e-09     2.750528e-05                           (NR   MIcro)
    6     dE    -1.006200e-08     2.541079e-05                           (NR   MIcro)
    6     dE    -1.046865e-08     2.131554e-05                           (NR   MIcro)
    6     dE    -1.095868e-08     1.966232e-05                           (NR   MIcro)
    6     dE    -1.145441e-08     2.709965e-05                           (NR   MIcro)
    6     dE    -1.190433e-08     2.431599e-05                           (NR   MIcro)
    6     dE    -1.232942e-08     1.794629e-05                           (NR   MIcro)
    6     dE    -1.265178e-08     1.887737e-05                           (NR   MIcro)
    6     dE    -1.302767e-08     1.728112e-05                           (NR   MIcro)
    6     dE    -1.342614e-08     2.137686e-05                           (NR   MIcro)
    6     dE    -1.391104e-08     2.273930e-05                           (NR   MIcro)
    6     dE    -1.445270e-08     2.228360e-05                           (NR   MIcro)
    7      -2888.536166408630     2.235933e-05                           (NR   MAcro)

               *****************************************************
               *                     SUCCESS                       *
               *           SCF CONVERGED AFTER 287 CYCLES          *
               *****************************************************

Old exchange energy                            =   -104.705764083 Eh
New exchange energy                            =   -104.705737457 Eh
Exchange energy change after final integration =      0.000026626 Eh
Total energy after final integration           =  -2888.536139783 Eh
Final COS-X integration done in                =    22.406 sec

----------------
TOTAL SCF ENERGY
----------------

Total Energy       :        -2888.53613978 Eh          -78601.06436 eV

Components:
Nuclear Repulsion  :         4487.23412945 Eh          122103.84830 eV
Electronic Energy  :        -7375.77026923 Eh         -200704.91267 eV
One Electron Energy:       -13578.35528538 Eh         -369485.83161 eV
Two Electron Energy:         6202.58501615 Eh          168780.91895 eV
Max COSX asymmetry :            0.00001069 Eh               0.00029 eV

Virial components:
Potential Energy   :        -4702.29946723 Eh         -127956.07366 eV
Kinetic Energy     :         1813.76332745 Eh           49355.00930 eV
Virial Ratio       :            2.59256508


DFT components:
N(Alpha)           :      128.999991261401 electrons
N(Beta)            :      124.999992362599 electrons
N(Total)           :      253.999983624000 electrons
E(X)               :      -94.287021473015 Eh       
E(C)               :       -7.026755176444 Eh       
E(XC)              :     -101.313776649459 Eh       
DFET-embed. en.    :        0.000000000000 Eh       

---------------
SCF CONVERGENCE
---------------

  Last Energy change         ...   -1.7231e-08  Tolerance :   1.0000e-06
  Last Orbital Gradient      ...    2.2359e-05  Tolerance :   5.0000e-05
  Last Orbital Rotation      ...    1.5168e-03

             **** THE GBW FILE WAS UPDATED (b2plyp.gbw) ****
             **** DENSITY b2plyp.scfp WAS UPDATED ****
             **** ENERGY FILE WAS UPDATED (b2plyp.en.tmp) ****
----------------------
UHF SPIN CONTAMINATION
----------------------

Warning: in a DFT calculation there is little theoretical justification to 
         calculate <S**2> as in Hartree-Fock theory. We will do it anyways
         but you should keep in mind that the values have only limited relevance

Expectation value of <S**2>     :     6.779906
Ideal value S*(S+1) for S=2.0   :     6.000000
Deviation                       :     0.779906

             **** THE GBW FILE WAS UPDATED (b2plyp.gbw) ****
             **** DENSITY b2plyp.scfp WAS UPDATED ****
----------------
ORBITAL ENERGIES
----------------
                 SPIN UP ORBITALS
  NO   OCC          E(Eh)            E(eV) 
   0   1.0000    -258.346394     -7029.9628 
   1   1.0000     -30.910787      -841.1253 
   2   1.0000     -26.626069      -724.5322 
   3   1.0000     -26.600539      -723.8375 
   4   1.0000     -26.599496      -723.8091 
   5   1.0000      -4.407821      -119.9429 
   6   1.0000      -4.407711      -119.9399 
   7   1.0000      -4.407549      -119.9355 
   8   1.0000      -4.403110      -119.8147 
   9   1.0000      -4.403026      -119.8124 
  10   1.0000      -4.399415      -119.7142 
  11   1.0000      -4.399216      -119.7087 
  12   1.0000      -4.391142      -119.4891 
  13   1.0000      -4.390471      -119.4708 
  14   1.0000      -4.390275      -119.4654 
  15   1.0000      -4.383890      -119.2917 
  16   1.0000      -4.382414      -119.2515 
  17   1.0000      -3.923363      -106.7601 
  18   1.0000      -2.667872       -72.5965 
  19   1.0000      -2.615063       -71.1595 
  20   1.0000      -2.612814       -71.0983 
  21   1.0000      -2.529497       -68.8311 
  22   1.0000      -2.528801       -68.8122 
  23   1.0000      -2.527395       -68.7739 
  24   1.0000      -2.526161       -68.7403 
  25   1.0000      -2.525947       -68.7345 
  26   1.0000      -2.524663       -68.6996 
  27   1.0000      -2.524394       -68.6922 
  28   1.0000      -2.523465       -68.6670 
  29   1.0000      -2.523267       -68.6616 
  30   1.0000      -2.523125       -68.6577 
  31   1.0000      -2.522723       -68.6468 
  32   1.0000      -2.520889       -68.5969 
  33   1.0000      -2.520219       -68.5787 
  34   1.0000      -2.519287       -68.5533 
  35   1.0000      -2.519106       -68.5484 
  36   1.0000      -2.517376       -68.5013 
  37   1.0000      -2.517161       -68.4954 
  38   1.0000      -2.516978       -68.4905 
  39   1.0000      -2.516108       -68.4668 
  40   1.0000      -2.514385       -68.4199 
  41   1.0000      -2.512893       -68.3793 
  42   1.0000      -2.511119       -68.3310 
  43   1.0000      -2.509148       -68.2774 
  44   1.0000      -2.508859       -68.2695 
  45   1.0000      -2.507718       -68.2385 
  46   1.0000      -2.506886       -68.2158 
  47   1.0000      -2.506453       -68.2041 
  48   1.0000      -2.505808       -68.1865 
  49   1.0000      -2.504638       -68.1547 
  50   1.0000      -2.502870       -68.1066 
  51   1.0000      -2.500902       -68.0530 
  52   1.0000      -2.500600       -68.0448 
  53   1.0000      -2.500401       -68.0394 
  54   1.0000      -2.499120       -68.0045 
  55   1.0000      -2.498499       -67.9876 
  56   1.0000      -2.498465       -67.9867 
  57   1.0000      -0.571101       -15.5404 
  58   1.0000      -0.565675       -15.3928 
  59   1.0000      -0.565154       -15.3786 
  60   1.0000      -0.545330       -14.8392 
  61   1.0000      -0.524136       -14.2625 
  62   1.0000      -0.519318       -14.1314 
  63   1.0000      -0.471045       -12.8178 
  64   1.0000      -0.463994       -12.6259 
  65   1.0000      -0.459824       -12.5125 
  66   1.0000      -0.458845       -12.4858 
  67   1.0000      -0.451301       -12.2805 
  68   1.0000      -0.450518       -12.2592 
  69   1.0000      -0.450324       -12.2540 
  70   1.0000      -0.449041       -12.2190 
  71   1.0000      -0.447695       -12.1824 
  72   1.0000      -0.446935       -12.1617 
  73   1.0000      -0.444428       -12.0935 
  74   1.0000      -0.443439       -12.0666 
  75   1.0000      -0.439070       -11.9477 
  76   1.0000      -0.436171       -11.8688 
  77   1.0000      -0.435932       -11.8623 
  78   1.0000      -0.433985       -11.8093 
  79   1.0000      -0.432225       -11.7614 
  80   1.0000      -0.430599       -11.7172 
  81   1.0000      -0.426803       -11.6139 
  82   1.0000      -0.426199       -11.5975 
  83   1.0000      -0.418002       -11.3744 
  84   1.0000      -0.414788       -11.2870 
  85   1.0000      -0.414176       -11.2703 
  86   1.0000      -0.410230       -11.1629 
  87   1.0000      -0.407326       -11.0839 
  88   1.0000      -0.405449       -11.0328 
  89   1.0000      -0.403023       -10.9668 
  90   1.0000      -0.402190       -10.9441 
  91   1.0000      -0.401260       -10.9188 
  92   1.0000      -0.395896       -10.7729 
  93   1.0000      -0.392080       -10.6690 
  94   1.0000      -0.390521       -10.6266 
  95   1.0000      -0.382096       -10.3974 
  96   1.0000      -0.378483       -10.2990 
  97   1.0000      -0.376952       -10.2574 
  98   1.0000      -0.374696       -10.1960 
  99   1.0000      -0.374623       -10.1940 
 100   1.0000      -0.371218       -10.1014 
 101   1.0000      -0.369049       -10.0423 
 102   1.0000      -0.365626        -9.9492 
 103   1.0000      -0.364231        -9.9112 
 104   1.0000      -0.363037        -9.8787 
 105   1.0000      -0.361975        -9.8498 
 106   1.0000      -0.359932        -9.7942 
 107   1.0000      -0.358420        -9.7531 
 108   1.0000      -0.357494        -9.7279 
 109   1.0000      -0.356890        -9.7115 
 110   1.0000      -0.354898        -9.6573 
 111   1.0000      -0.354299        -9.6410 
 112   1.0000      -0.352852        -9.6016 
 113   1.0000      -0.351534        -9.5657 
 114   1.0000      -0.349297        -9.5049 
 115   1.0000      -0.348574        -9.4852 
 116   1.0000      -0.343267        -9.3408 
 117   1.0000      -0.341008        -9.2793 
 118   1.0000      -0.340758        -9.2725 
 119   1.0000      -0.338145        -9.2014 
 120   1.0000      -0.333179        -9.0663 
 121   1.0000      -0.332835        -9.0569 
 122   1.0000      -0.322037        -8.7631 
 123   1.0000      -0.317454        -8.6384 
 124   1.0000      -0.302712        -8.2372 
 125   1.0000      -0.284622        -7.7450 
 126   1.0000      -0.227084        -6.1793 
 127   1.0000      -0.209417        -5.6985 
 128   1.0000      -0.201475        -5.4824 
 129   0.0000      -0.118319        -3.2196 
 130   0.0000      -0.099355        -2.7036 
 131   0.0000      -0.066660        -1.8139 
 132   0.0000      -0.058840        -1.6011 
 133   0.0000      -0.048049        -1.3075 
 134   0.0000      -0.034961        -0.9513 
 135   0.0000      -0.016013        -0.4357 
 136   0.0000      -0.010389        -0.2827 
 137   0.0000      -0.005336        -0.1452 
 138   0.0000      -0.002721        -0.0740 
 139   0.0000       0.004776         0.1300 
 140   0.0000       0.015456         0.4206 
 141   0.0000       0.030689         0.8351 
 142   0.0000       0.031603         0.8600 
 143   0.0000       0.041616         1.1324 
 144   0.0000       0.064546         1.7564 
 145   0.0000       0.067861         1.8466 
 146   0.0000       0.070886         1.9289 
 147   0.0000       0.079164         2.1542 
 148   0.0000       0.085004         2.3131 
 149   0.0000       0.089177         2.4266 
 150   0.0000       0.091590         2.4923 
 151   0.0000       0.093615         2.5474 
 152   0.0000       0.096616         2.6290 
 153   0.0000       0.100601         2.7375 
 154   0.0000       0.102658         2.7935 
 155   0.0000       0.106304         2.8927 
 156   0.0000       0.112185         3.0527 
 157   0.0000       0.112611         3.0643 
 158   0.0000       0.116102         3.1593 
 159   0.0000       0.116720         3.1761 
 160   0.0000       0.138074         3.7572 
 161   0.0000       0.143866         3.9148 
 162   0.0000       0.144024         3.9191 
 163   0.0000       0.152294         4.1441 
 164   0.0000       0.161057         4.3826 
 165   0.0000       0.172741         4.7005 
 166   0.0000       0.173899         4.7320 
 167   0.0000       0.176303         4.7975 
 168   0.0000       0.179924         4.8960 
 169   0.0000       0.195230         5.3125 
 170   0.0000       0.201279         5.4771 
 171   0.0000       0.204876         5.5750 
 172   0.0000       0.211231         5.7479 
 173   0.0000       0.212366         5.7788 
 174   0.0000       0.221280         6.0213 
 175   0.0000       0.223319         6.0768 
 176   0.0000       0.228719         6.2238 
 177   0.0000       0.238200         6.4818 
 178   0.0000       0.239745         6.5238 
 179   0.0000       0.275986         7.5099 
 180   0.0000       0.278747         7.5851 
 181   0.0000       0.283948         7.7266 
 182   0.0000       0.289670         7.8823 
 183   0.0000       0.295615         8.0441 
 184   0.0000       0.307131         8.3575 
 185   0.0000       0.310053         8.4370 
 186   0.0000       0.318440         8.6652 
 187   0.0000       0.319445         8.6925 
 188   0.0000       0.325435         8.8555 
 189   0.0000       0.332941         9.0598 
 190   0.0000       0.337797         9.1919 
 191   0.0000       0.339485         9.2379 
 192   0.0000       0.347345         9.4517 
 193   0.0000       0.348401         9.4805 
 194   0.0000       0.359098         9.7716 
 195   0.0000       0.367523        10.0008 
 196   0.0000       0.371896        10.1198 
 197   0.0000       0.377116        10.2619 
 198   0.0000       0.380149        10.3444 
 199   0.0000       0.388556        10.5731 
 200   0.0000       0.392672        10.6851 
 201   0.0000       0.393409        10.7052 
 202   0.0000       0.399644        10.8749 
 203   0.0000       0.408248        11.1090 
 204   0.0000       0.413911        11.2631 
 205   0.0000       0.416699        11.3390 
 206   0.0000       0.419195        11.4069 
 207   0.0000       0.424680        11.5561 
 208   0.0000       0.433121        11.7858 
 209   0.0000       0.437499        11.9049 
 210   0.0000       0.441512        12.0142 
 211   0.0000       0.442310        12.0359 
 212   0.0000       0.449685        12.2366 
 213   0.0000       0.459612        12.5067 
 214   0.0000       0.462974        12.5982 
 215   0.0000       0.464026        12.6268 
 216   0.0000       0.469711        12.7815 
 217   0.0000       0.474460        12.9107 
 218   0.0000       0.474516        12.9122 
 219   0.0000       0.483143        13.1470 
 220   0.0000       0.484637        13.1877 
 221   0.0000       0.502176        13.6649 
 222   0.0000       0.509848        13.8737 
 223   0.0000       0.513856        13.9827 
 224   0.0000       0.518807        14.1174 
 225   0.0000       0.528831        14.3902 
 226   0.0000       0.528950        14.3935 
 227   0.0000       0.540315        14.7027 
 228   0.0000       0.545235        14.8366 
 229   0.0000       0.553843        15.0708 
 230   0.0000       0.556157        15.1338 
 231   0.0000       0.563337        15.3292 
 232   0.0000       0.566424        15.4132 
 233   0.0000       0.570799        15.5322 
 234   0.0000       0.572593        15.5811 
 235   0.0000       0.578688        15.7469 
 236   0.0000       0.590012        16.0550 
 237   0.0000       0.591569        16.0974 
 238   0.0000       0.594439        16.1755 
 239   0.0000       0.600089        16.3292 
 240   0.0000       0.602446        16.3934 
 241   0.0000       0.604737        16.4557 
 242   0.0000       0.609539        16.5864 
 243   0.0000       0.611327        16.6350 
 244   0.0000       0.618435        16.8285 
 245   0.0000       0.625356        17.0168 
 246   0.0000       0.630676        17.1616 
 247   0.0000       0.632875        17.2214 
 248   0.0000       0.635280        17.2869 
 249   0.0000       0.649358        17.6699 
 250   0.0000       0.649656        17.6780 
 251   0.0000       0.716400        19.4942 
 252   0.0000       0.776734        21.1360 
 253   0.0000       0.795363        21.6429 
 254   0.0000       0.803218        21.8567 
 255   0.0000       0.808905        22.0114 
 256   0.0000       0.832928        22.6651 
 257   0.0000       0.836582        22.7645 
 258   0.0000       0.842566        22.9274 
 259   0.0000       0.850043        23.1309 
 260   0.0000       0.862004        23.4563 
 261   0.0000       0.872938        23.7539 
 262   0.0000       0.873436        23.7674 
 263   0.0000       0.879781        23.9401 
 264   0.0000       0.884396        24.0656 
 265   0.0000       0.893539        24.3144 
 266   0.0000       0.904792        24.6206 
 267   0.0000       0.916174        24.9304 
 268   0.0000       0.917191        24.9580 
 269   0.0000       0.924510        25.1572 
 270   0.0000       0.946770        25.7629 
 271   0.0000       0.947585        25.7851 
 272   0.0000       0.949229        25.8298 
 273   0.0000       0.961879        26.1740 
 274   0.0000       0.980962        26.6933 
 275   0.0000       0.988497        26.8984 
 276   0.0000       0.997357        27.1395 
 277   0.0000       0.998285        27.1647 
 278   0.0000       1.016860        27.6702 
 279   0.0000       1.024571        27.8800 
 280   0.0000       1.036785        28.2124 
 281   0.0000       1.052763        28.6471 
 282   0.0000       1.060511        28.8580 
 283   0.0000       1.094290        29.7771 
 284   0.0000       1.122708        30.5504 
 285   0.0000       1.156280        31.4640 
 286   0.0000       1.157414        31.4948 
 287   0.0000       1.182423        32.1754 
 288   0.0000       1.239070        33.7168 
 289   0.0000       1.311809        35.6961 
 290   0.0000       1.348436        36.6928 
 291   0.0000       1.380084        37.5540 
 292   0.0000       1.395704        37.9790 
 293   0.0000       1.415484        38.5173 
 294   0.0000       1.421601        38.6837 
 295   0.0000       1.438897        39.1544 
 296   0.0000       1.447436        39.3867 
 297   0.0000       1.448304        39.4104 
 298   0.0000       1.453641        39.5556 
[...]
      f-1     :    -0.000015
      f+2     :     0.000008
      f-2     :    -0.000000
      f+3     :     0.000007
      f-3     :    -0.000009
  1 Aus       :     0.033337  s :     0.033337
      pz      :    -0.059897  p :    -0.082725
      px      :    -0.019540
      py      :    -0.003288
      dz2     :    -0.010327  d :    -0.023351
      dxz     :    -0.001423
      dyz     :    -0.006215
      dx2y2   :    -0.003692
      dxy     :    -0.001694
      f0      :    -0.000013  f :    -0.000081
      f+1     :    -0.000016
      f-1     :    -0.000003
      f+2     :    -0.000029
      f-2     :    -0.000002
      f+3     :    -0.000014
      f-3     :    -0.000004
  2 Aus       :    -0.115952  s :    -0.115952
      pz      :    -0.035108  p :    -0.061767
      px      :    -0.026718
      py      :     0.000059
      dz2     :    -0.006945  d :    -0.019286
      dxz     :    -0.011839
      dyz     :     0.001575
      dx2y2   :     0.002731
      dxy     :    -0.004808
      f0      :    -0.000013  f :    -0.000069
      f+1     :    -0.000006
      f-1     :    -0.000014
      f+2     :    -0.000020
      f-2     :     0.000022
      f+3     :    -0.000026
      f-3     :    -0.000012
  3 Aus       :    -0.090085  s :    -0.090085
      pz      :    -0.017952  p :    -0.057111
      px      :    -0.021523
      py      :    -0.017636
      dz2     :     0.004406  d :     0.000854
      dxz     :    -0.001651
      dyz     :     0.004026
      dx2y2   :    -0.005585
      dxy     :    -0.000342
      f0      :     0.000008  f :     0.000024
      f+1     :     0.000008
      f-1     :     0.000004
      f+2     :     0.000014
      f-2     :     0.000021
      f+3     :    -0.000004
      f-3     :    -0.000027
  4 Aus       :    -0.114938  s :    -0.114938
      pz      :    -0.013054  p :    -0.046987
      px      :    -0.011816
      py      :    -0.022117
      dz2     :     0.009473  d :     0.003949
      dxz     :    -0.001270
      dyz     :     0.005364
      dx2y2   :    -0.008998
      dxy     :    -0.000620
      f0      :     0.000029  f :     0.000121
      f+1     :    -0.000005
      f-1     :     0.000073
      f+2     :    -0.000008
      f-2     :     0.000029
      f+3     :    -0.000002
      f-3     :     0.000005
  5 Aus       :    -0.105569  s :    -0.105569
      pz      :     0.004400  p :    -0.039853
      px      :    -0.008426
      py      :    -0.035827
      dz2     :     0.000283  d :     0.013967
      dxz     :     0.006901
      dyz     :    -0.004895
      dx2y2   :     0.008194
      dxy     :     0.003483
      f0      :     0.000017  f :     0.000140
      f+1     :     0.000027
      f-1     :     0.000013
      f+2     :     0.000017
      f-2     :    -0.000014
      f+3     :     0.000044
      f-3     :     0.000038
  6 Aus       :    -0.103936  s :    -0.103936
      pz      :    -0.011083  p :    -0.039559
      px      :     0.006444
      py      :    -0.034921
      dz2     :     0.012948  d :     0.013870
      dxz     :     0.004795
      dyz     :     0.004170
      dx2y2   :    -0.002135
      dxy     :    -0.005907
      f0      :     0.000084  f :     0.000139
      f+1     :     0.000054
      f-1     :     0.000006
      f+2     :     0.000008
      f-2     :    -0.000001
      f+3     :    -0.000017
      f-3     :     0.000006
  7 Aus       :    -0.111993  s :    -0.111993
      pz      :    -0.027262  p :    -0.060594
      px      :    -0.031803
      py      :    -0.001529
      dz2     :    -0.001896  d :    -0.019341
      dxz     :    -0.011408
      dyz     :     0.000046
      dx2y2   :    -0.005098
      dxy     :    -0.000985
      f0      :    -0.000048  f :    -0.000067
      f+1     :    -0.000027
      f-1     :     0.000030
      f+2     :     0.000012
      f-2     :     0.000003
      f+3     :     0.000008
      f-3     :    -0.000045
  8 Aus       :     0.067052  s :     0.067052
      pz      :    -0.044534  p :    -0.053021
      px      :    -0.014431
      py      :     0.005943
      dz2     :    -0.006075  d :    -0.028724
      dxz     :    -0.001736
      dyz     :    -0.013660
      dx2y2   :    -0.002588
      dxy     :    -0.004664
      f0      :    -0.000017  f :    -0.000157
      f+1     :    -0.000016
      f-1     :    -0.000037
      f+2     :    -0.000022
      f-2     :    -0.000017
      f+3     :    -0.000027
      f-3     :    -0.000020
  9 Aus       :     0.001412  s :     0.001412
      pz      :    -0.048601  p :    -0.059610
      px      :    -0.022027
      py      :     0.011018
      dz2     :    -0.003555  d :    -0.007452
      dxz     :    -0.000363
      dyz     :    -0.005437
      dx2y2   :     0.001154
      dxy     :     0.000749
      f0      :    -0.000005  f :     0.000020
      f+1     :    -0.000013
      f-1     :     0.000007
      f+2     :    -0.000007
      f-2     :     0.000010
      f+3     :     0.000016
      f-3     :     0.000013
 10 Aus       :    -0.115768  s :    -0.115768
      pz      :    -0.014826  p :    -0.045621
      px      :    -0.007278
      py      :    -0.023518
      dz2     :    -0.002046  d :     0.004226
      dxz     :    -0.001231
      dyz     :    -0.002848
      dx2y2   :     0.002281
      dxy     :     0.008070
      f0      :     0.000020  f :     0.000126
      f+1     :    -0.000004
      f-1     :     0.000022
      f+2     :    -0.000031
      f-2     :    -0.000000
      f+3     :     0.000012
      f-3     :     0.000108
 11 Aus       :    -0.092701  s :    -0.092701
      pz      :    -0.010212  p :    -0.058499
      px      :    -0.032587
      py      :    -0.015699
      dz2     :     0.001227  d :     0.001414
      dxz     :    -0.000478
      dyz     :     0.001580
      dx2y2   :    -0.002311
      dxy     :     0.001397
      f0      :    -0.000030  f :     0.000029
      f+1     :     0.000025
      f-1     :     0.000011
      f+2     :     0.000017
      f-2     :     0.000001
      f+3     :     0.000025
      f-3     :    -0.000022
 12 Fes       :     0.019912  s :     0.019912
      pz      :     0.015191  p :     0.041137
      px      :     0.010769
      py      :     0.015177
      dz2     :     0.742383  d :     3.398462
      dxz     :     0.857316
      dyz     :     0.296784
      dx2y2   :     0.823261
      dxy     :     0.678718
      f0      :    -0.000010  f :    -0.000065
      f+1     :    -0.000017
      f-1     :    -0.000016
      f+2     :    -0.000009
      f-2     :    -0.000009
      f+3     :    -0.000003
      f-3     :    -0.000001


                      *****************************
                      * MAYER POPULATION ANALYSIS *
                      *****************************

  NA   - Mulliken gross atomic population
  ZA   - Total nuclear charge
  QA   - Mulliken gross atomic charge
  VA   - Mayer's total valence
  BVA  - Mayer's bonded valence
  FA   - Mayer's free valence

  ATOM       NA         ZA         QA         VA         BVA        FA
  0 Au    18.9192    19.0000     0.0808     1.5501     1.5434     0.0068
  1 Au    18.7716    19.0000     0.2284     1.3567     1.3481     0.0086
  2 Au    18.8365    19.0000     0.1635     1.4156     1.3440     0.0716
  3 Au    18.8101    19.0000     0.1899     1.5394     1.4836     0.0558
  4 Au    18.7452    19.0000     0.2548     1.4137     1.3538     0.0599
  5 Au    18.8408    19.0000     0.1592     1.4915     1.4415     0.0500
  6 Au    18.8419    19.0000     0.1581     1.4905     1.4419     0.0486
  7 Au    18.8382    19.0000     0.1618     1.4151     1.3480     0.0671
  8 Au    18.8591    19.0000     0.1409     1.3952     1.3750     0.0203
  9 Au    18.7773    19.0000     0.2227     1.5636     1.5615     0.0020
 10 Au    18.7453    19.0000     0.2547     1.4161     1.3556     0.0605
 11 Au    18.8114    19.0000     0.1886     1.5370     1.4785     0.0585
 12 Fe    28.2034    26.0000    -2.2034     8.5876     5.0956     3.4920

  Mayer bond orders larger than 0.100000
B(  0-Au,  1-Au) :   0.1373 B(  0-Au,  3-Au) :   0.1488 B(  0-Au,  4-Au) :   0.2103 
B(  0-Au,  8-Au) :   0.2755 B(  0-Au, 10-Au) :   0.2108 B(  0-Au, 11-Au) :   0.1502 
B(  0-Au, 12-Fe) :   0.3479 B(  1-Au,  2-Au) :   0.1759 B(  1-Au,  5-Au) :   0.2683 
B(  1-Au,  6-Au) :   0.2704 B(  1-Au,  7-Au) :   0.1783 B(  1-Au, 12-Fe) :   0.2468 
B(  2-Au,  4-Au) :   0.2119 B(  2-Au,  7-Au) :   0.2096 B(  2-Au, 12-Fe) :   0.4587 
B(  3-Au,  4-Au) :   0.1401 B(  3-Au,  5-Au) :   0.1337 B(  3-Au,  8-Au) :   0.2619 
B(  3-Au,  9-Au) :   0.2026 B(  3-Au, 12-Fe) :   0.4107 B(  4-Au, 12-Fe) :   0.5520 
B(  5-Au,  9-Au) :   0.1680 B(  5-Au, 12-Fe) :   0.5443 B(  6-Au,  9-Au) :   0.1668 
B(  6-Au, 11-Au) :   0.1375 B(  6-Au, 12-Fe) :   0.5438 B(  7-Au, 10-Au) :   0.2162 
B(  7-Au, 12-Fe) :   0.4604 B(  8-Au,  9-Au) :   0.2544 B(  8-Au, 11-Au) :   0.2581 
B(  8-Au, 12-Fe) :   0.1396 B(  9-Au, 11-Au) :   0.1979 B(  9-Au, 12-Fe) :   0.4243 
B( 10-Au, 11-Au) :   0.1349 B( 10-Au, 12-Fe) :   0.5542 B( 11-Au, 12-Fe) :   0.4128 


-------
TIMINGS
-------

Total SCF time: 0 days 0 hours 6 min 11 sec 

Total time                  ....     371.055 sec
Sum of individual times     ....     369.023 sec  ( 99.5%)

Fock matrix formation       ....     353.735 sec  ( 95.3%)
  Split-RI-J                ....      26.403 sec  (  7.5% of F)
  Chain of spheres X        ....     284.134 sec  ( 80.3% of F)
  XC integration            ....      42.060 sec  ( 11.9% of F)
    Basis function eval.    ....       6.637 sec  ( 15.8% of XC)
    Density eval.           ....      19.517 sec  ( 46.4% of XC)
    XC-Functional eval.     ....       0.782 sec  (  1.9% of XC)
    XC-Potential eval.      ....      12.079 sec  ( 28.7% of XC)
Diagonalization             ....       8.462 sec  (  2.3%)
Density matrix formation    ....       0.282 sec  (  0.1%)
Population analysis         ....       0.181 sec  (  0.0%)
Initial guess               ....       0.264 sec  (  0.1%)
Orbital Transformation      ....       0.000 sec  (  0.0%)
Orbital Orthonormalization  ....       0.229 sec  (  0.1%)
DIIS solution               ....       3.229 sec  (  0.9%)
Grid generation             ....       2.870 sec  (  0.8%)

Maximum memory used throughout the entire SCF-calculation: 128.3 MB


           ************************************************************
           *        Program running with 6 parallel MPI-processes     *
           *              working on a common directory               *
           ************************************************************

------------------------------------------------------------------------------
                                ORCA  MP2 
------------------------------------------------------------------------------

Freezing NCore=10 chemical core electrons

   <<< Use J-auxbasis for calculation of Separable RI-J derivative contributions (Dim=1157) >>> 


-------------
RI-MP2 ENERGY
-------------
Dimension of the basis                    ...  525
Memory devoted to MP2                     ...  256 MB   
Data format for buffers                   ... DOUBLE
Compression type for matrix containers    ... UNCOMPRESSED
Overall scaling of the MP2 energy         ...   2.700e-01
Calculating two index integrals           ... done (    0.035 sec)
Cholesky decomposition of V**-1           ... done (    0.430 sec)

-----------------
RI-TRANSFORMATION (AUX index driven)
-----------------

Dimension of the orbital-basis         ... 525
Dimension of the aux-basis             ... 1994
Transformation of internal/external MOs...    5- 127 to  128- 524
Number Format for Storage              ... Double (8 Byte)
Integral mode                          ... Direct

First Phase: integral generation and transformation of MO indices
  Aux angular momentum 0               ... done (    0.221 sec)
  Aux angular momentum 1               ... done (    0.566 sec)
  Aux angular momentum 2               ... done (    0.877 sec)
  Aux angular momentum 3               ... done (    0.849 sec)
  Aux angular momentum 4               ... done (    0.741 sec)
  Aux angular momentum 5               ... done (    0.723 sec)
Closing buffer VIA ( 0.73 GB; CompressionRatio= 1.00)
  Phase 1 completed in     4.104 sec
Second Phase: sorting and transformation of aux index

IA-Transformation
Memory available                       ... 176 MB 
Max. # MO pairs treated in a batch     ... 21    
# of internal orbitals                 ... 123
# batches for internal orbitals        ... 1
Closing buffer IAV ( 0.73 GB; CompressionRatio= 1.00)
(ia|v) transformation done in     3.511 sec

  Phase 2 completed in     3.635 sec
RI-Integral transformation completed in     7.740 sec

-----------------
RI-TRANSFORMATION (AUX index driven)
-----------------

Dimension of the orbital-basis         ... 525
Dimension of the aux-basis             ... 1994
Transformation of internal/external MOs...    5- 125 to  126- 524
Number Format for Storage              ... Double (8 Byte)
Integral mode                          ... Direct

First Phase: integral generation and transformation of MO indices
  Aux angular momentum 0               ... done (    0.212 sec)
  Aux angular momentum 1               ... done (    0.560 sec)
  Aux angular momentum 2               ... done (    0.851 sec)
  Aux angular momentum 3               ... done (    0.863 sec)
  Aux angular momentum 4               ... done (    0.744 sec)
  Aux angular momentum 5               ... done (    0.714 sec)
Closing buffer VIA ( 0.72 GB; CompressionRatio= 1.00)
  Phase 1 completed in     4.063 sec
Second Phase: sorting and transformation of aux index

IA-Transformation
Memory available                       ... 176 MB 
Max. # MO pairs treated in a batch     ... 21    
# of internal orbitals                 ... 121
# batches for internal orbitals        ... 1
Closing buffer IAV ( 0.72 GB; CompressionRatio= 1.00)
(ia|v) transformation done in     3.492 sec

  Phase 2 completed in     3.615 sec
RI-Integral transformation completed in     7.678 sec
Opening buffers                              ... done

Starting loop over batches of integrals:

Operator 0  - window                       ... (  5-127)x(128-524)
Operator 0  - Memory available             ...   256 MB
Operator 0  - Memory needed per MO         ...   6.0 MB
Operator 0  - Number of orbitals per batch ... 21
Operator 0  - Number of batches            ... 1

OPERATOR  0   PASS   0:  MOs     5 ...   25 +   26 ...   46 +   47 ...   67 +   68 ...   88
                            +   89 ...  109 +  110 ...  127
  Reading integrals       ... ok
  Internal MO   7
  Internal MO  10
  Internal MO  13
  Internal MO  16
  Internal MO  19
  Internal MO  22
  Internal MO  25

Operator 1  - window                       ... (  5-125)x(126-524)
Operator 1  - Memory available             ...   256 MB
Operator 1  - Memory needed per MO         ...   6.1 MB
Operator 1  - Number of orbitals per batch ... 21
Operator 1  - Number of batches            ... 1

OPERATOR  1   PASS   0:  MOs     5 ...   25 +   26 ...   46 +   47 ...   67 +   68 ...   88
                            +   89 ...  109 +  110 ...  125
  Reading integrals       ... ok
  Internal MO   7
  Internal MO  10
  Internal MO  13
  Internal MO  16
  Internal MO  19
  Internal MO  22
  Internal MO  25
Time spent in pair loops =   234.180 sec
Deleting buffer (Ka|jb)[aa] ...done
Deleting buffer (Ka|jb)[ba] ...done
Deleting buffer (Ka|jb)[ab] ...done
Deleting buffer (Ka|jb)[bb] ...done

Correlation energy components}
 E2 and T2 for alpha/alpha pairs :     -0.366962192 Eh      0.000000000
 E2 and T2 for beta/beta   pairs :     -0.363843137 Eh      0.000000000
 E2 and T2 for alpha/beta  pairs :     -1.243224189 Eh      0.000000000


-----------------------------------------------
 RI-MP2 CORRELATION ENERGY:     -1.974029518 Eh
-----------------------------------------------


-------
TIMINGS
-------

Total time                :  306.522 sec
Integral trafo            :   15.446 sec (  5.0%)
I/O of integrals          :    0.138 sec (  0.0%)
K(i,j) Operators          :  165.605 sec ( 54.0%)
T(i,j) pair energies      :    2.693 sec (  0.9%)
V-calculation             :    0.035 sec (  0.0%)
V**(-1/2)                 :    0.430 sec (  0.1%)
Gamma(ia|P)               :    0.000 sec (  0.0%)
Gamma-Trafo               :    0.000 sec (  0.0%)
D(virtual)                :    0.000 sec (  0.0%)
D(internal)               :    0.000 sec (  0.0%)
W(virtual)                :    0.000 sec (  0.0%)
W(internal)               :    0.000 sec (  0.0%)
L(virtual)                :    0.000 sec (  0.0%)
L(internal)               :    0.000 sec (  0.0%)
G(D)                      :    0.000 sec (  0.0%)
G(Z)                      :    0.000 sec (  0.0%)
Z-Vector Solution         :    0.000 sec (  0.0%)
3-Index Derivative        :    0.000 sec (  0.0%)
2-Index Derivative        :    0.000 sec (  0.0%)
Separable Gradient (RIJ)  :    0.000 sec (  0.0%)
Separable Gradient (COSX) :    0.000 sec (  0.0%)


---------------------------------------
MP2 TOTAL ENERGY:    -2890.506125653 Eh
---------------------------------------

Maximum memory used throughout the entire MP2-calculation: 258.2 MB

-------------------------   --------------------
FINAL SINGLE POINT ENERGY     -2890.506125653033
-------------------------   --------------------


                            ***************************************
                            *     ORCA property calculations      *
                            ***************************************


  WARNING: The energy has been calculated at the MP2 level but the densities
           used in the property calculations are still SCF densities
           MP2 response densities have not been calculated 
           use %mp2 Density relaxed end
           or  %mp2 Density unrelaxed end

                                    ---------------------
                                    Active property flags
                                    ---------------------
   (+) Dipole Moment


------------------------------------------------------------------------------
                       ORCA ELECTRIC PROPERTIES CALCULATION
------------------------------------------------------------------------------

Dipole Moment Calculation                       ... on
Quadrupole Moment Calculation                   ... off
Polarizability Calculation                      ... off
GBWName                                         ... b2plyp_job2.gbw
Electron density                                ... b2plyp_job2.scfp
The origin for moment calculation is the CENTER OF MASS  = (16.936653, 13.339124 15.847120)

-------------
DIPOLE MOMENT
-------------
                                X             Y             Z
Electronic contribution:     -2.15976     -11.28204      -0.80255
Nuclear contribution   :      2.20336      11.16792       0.83097
                        -----------------------------------------
Total Dipole Moment    :      0.04360      -0.11412       0.02842
                        -----------------------------------------
Magnitude (a.u.)       :      0.12543
Magnitude (Debye)      :      0.31882



--------------------
Rotational spectrum 
--------------------
 
Rotational constants in cm-1:     0.001699     0.001260     0.001140 
Rotational constants in MHz :    50.940282    37.778322    34.186589 

 Dipole components along the rotational axes: 
x,y,z [a.u.] :     0.043110     0.117691     0.004807 
x,y,z [Debye]:     0.109577     0.299148     0.012219 

 

Timings for individual modules:

Sum of individual times         ...      687.550 sec (=  11.459 min)
GTO integral calculation        ...        9.334 sec (=   0.156 min)   1.4 %
SCF iterations                  ...      371.233 sec (=   6.187 min)  54.0 %
MP2 module                      ...      306.983 sec (=   5.116 min)  44.6 %



                             ****ORCA TERMINATED NORMALLY****
TOTAL RUN TIME: 0 days 1 hours 12 minutes 12 seconds 291 msec
