
                                 *****************
                                 * O   R   C   A *
                                 *****************

                                            #,                                       
                                            ###                                      
                                            ####                                     
                                            #####                                    
                                            ######                                   
                                           ########,                                 
                                     ,,################,,,,,                         
                               ,,#################################,,                 
                          ,,##########################################,,             
                       ,#########################################, ''#####,          
                    ,#############################################,,   '####,        
                  ,##################################################,,,,####,       
                ,###########''''           ''''###############################       
              ,#####''   ,,,,##########,,,,          '''####'''          '####       
            ,##' ,,,,###########################,,,                        '##       
           ' ,,###''''                  '''############,,,                           
         ,,##''                                '''############,,,,        ,,,,,,###''
      ,#''                                            '''#######################'''  
     '                                                          ''''####''''         
             ,#######,   #######,   ,#######,      ##                                
            ,#'     '#,  ##    ##  ,#'     '#,    #''#        ######   ,####,        
            ##       ##  ##   ,#'  ##            #'  '#       #        #'  '#        
            ##       ##  #######   ##           ,######,      #####,   #    #        
            '#,     ,#'  ##    ##  '#,     ,#' ,#      #,         ##   #,  ,#        
             '#######'   ##     ##  '#######'  #'      '#     #####' # '####'        



                  #######################################################
                  #                        -***-                        #
                  #          Department of theory and spectroscopy      #
                  #    Directorship and core code : Frank Neese         #
                  #        Max Planck Institute fuer Kohlenforschung    #
                  #                Kaiser Wilhelm Platz 1               #
                  #                 D-45470 Muelheim/Ruhr               #
                  #                      Germany                        #
                  #                                                     #
                  #                  All rights reserved                #
                  #                        -***-                        #
                  #######################################################


                         Program Version 5.0.3 -  RELEASE  -


 With contributions from (in alphabetic order):
   Daniel Aravena         : Magnetic Suceptibility
   Michael Atanasov       : Ab Initio Ligand Field Theory (pilot matlab implementation)
   Alexander A. Auer      : GIAO ZORA, VPT2 properties, NMR spectrum
   Ute Becker             : Parallelization
   Giovanni Bistoni       : ED, misc. LED, open-shell LED, HFLD
   Martin Brehm           : Molecular dynamics
   Dmytro Bykov           : SCF Hessian
   Vijay G. Chilkuri      : MRCI spin determinant printing, contributions to CSF-ICE
   Dipayan Datta          : RHF DLPNO-CCSD density
   Achintya Kumar Dutta   : EOM-CC, STEOM-CC
   Dmitry Ganyushin       : Spin-Orbit,Spin-Spin,Magnetic field MRCI
   Miquel Garcia          : C-PCM and meta-GGA Hessian, CC/C-PCM, Gaussian charge scheme
   Yang Guo               : DLPNO-NEVPT2, F12-NEVPT2, CIM, IAO-localization
   Andreas Hansen         : Spin unrestricted coupled pair/coupled cluster methods
   Benjamin Helmich-Paris : MC-RPA, TRAH-SCF, COSX integrals
   Lee Huntington         : MR-EOM, pCC
   Robert Izsak           : Overlap fitted RIJCOSX, COSX-SCS-MP3, EOM
   Marcus Kettner         : VPT2
   Christian Kollmar      : KDIIS, OOCD, Brueckner-CCSD(T), CCSD density, CASPT2, CASPT2-K
   Simone Kossmann        : Meta GGA functionals, TD-DFT gradient, OOMP2, MP2 Hessian
   Martin Krupicka        : Initial AUTO-CI
   Lucas Lang             : DCDCAS
   Marvin Lechner         : AUTO-CI (C++ implementation), FIC-MRCC
   Dagmar Lenk            : GEPOL surface, SMD
   Dimitrios Liakos       : Extrapolation schemes; Compound Job, initial MDCI parallelization
   Dimitrios Manganas     : Further ROCIS development; embedding schemes
   Dimitrios Pantazis     : SARC Basis sets
   Anastasios Papadopoulos: AUTO-CI, single reference methods and gradients
   Taras Petrenko         : DFT Hessian,TD-DFT gradient, ASA, ECA, R-Raman, ABS, FL, XAS/XES, NRVS
   Peter Pinski           : DLPNO-MP2, DLPNO-MP2 Gradient
   Christoph Reimann      : Effective Core Potentials
   Marius Retegan         : Local ZFS, SOC
   Christoph Riplinger    : Optimizer, TS searches, QM/MM, DLPNO-CCSD(T), (RO)-DLPNO pert. Triples
   Tobias Risthaus        : Range-separated hybrids, TD-DFT gradient, RPA, STAB
   Michael Roemelt        : Original ROCIS implementation
   Masaaki Saitow         : Open-shell DLPNO-CCSD energy and density
   Barbara Sandhoefer     : DKH picture change effects
   Avijit Sen             : IP-ROCIS
   Kantharuban Sivalingam : CASSCF convergence, NEVPT2, FIC-MRCI
   Bernardo de Souza      : ESD, SOC TD-DFT
   Georgi Stoychev        : AutoAux, RI-MP2 NMR, DLPNO-MP2 response
   Willem Van den Heuvel  : Paramagnetic NMR
   Boris Wezisla          : Elementary symmetry handling
   Frank Wennmohs         : Technical directorship


 We gratefully acknowledge several colleagues who have allowed us to
 interface, adapt or use parts of their codes:
   Stefan Grimme, W. Hujo, H. Kruse, P. Pracht,  : VdW corrections, initial TS optimization,
                  C. Bannwarth, S. Ehlert          DFT functionals, gCP, sTDA/sTD-DF
   Ed Valeev, F. Pavosevic, A. Kumar             : LibInt (2-el integral package), F12 methods
   Garnet Chan, S. Sharma, J. Yang, R. Olivares  : DMRG
   Ulf Ekstrom                                   : XCFun DFT Library
   Mihaly Kallay                                 : mrcc  (arbitrary order and MRCC methods)
   Jiri Pittner, Ondrej Demel                    : Mk-CCSD
   Frank Weinhold                                : gennbo (NPA and NBO analysis)
   Christopher J. Cramer and Donald G. Truhlar   : smd solvation model
   Lars Goerigk                                  : TD-DFT with DH, B97 family of functionals
   V. Asgeirsson, H. Jonsson                     : NEB implementation
   FAccTs GmbH                                   : IRC, NEB, NEB-TS, DLPNO-Multilevel, CI-OPT
                                                   MM, QMMM, 2- and 3-layer-ONIOM, Crystal-QMMM,
                                                   LR-CPCM, SF, NACMEs, symmetry and pop. for TD-DFT,
                                                   nearIR, NL-DFT gradient (VV10), updates on ESD,
                                                   ML-optimized integration grids
   S Lehtola, MJT Oliveira, MAL Marques          : LibXC Library
   Liviu Ungur et al                             : ANISO software


 Your calculation uses the libint2 library for the computation of 2-el integrals
 For citations please refer to: http://libint.valeyev.net

 Your ORCA version has been built with support for libXC version: 5.1.0
 For citations please refer to: https://tddft.org/programs/libxc/

 This ORCA versions uses:
   CBLAS   interface :  Fast vector & matrix operations
   LAPACKE interface :  Fast linear algebra routines
   SCALAPACK package :  Parallel linear algebra routines
   Shared memory     :  Shared parallel matrices
   BLAS/LAPACK       :  OpenBLAS 0.3.15  USE64BITINT DYNAMIC_ARCH NO_AFFINITY Haswell SINGLE_THREADED
        Core in use  :  Haswell
   Copyright (c) 2011-2014, The OpenBLAS Project




***************************************
The coordinates will be read from file: pbe.xyz
***************************************


================================================================================

cite the ECPs for Au [Def2-ECP] as follows:
Ce-Yb(ecp-28): M. Dolg, H. Stoll, H.Preuss, J. Chem. Phys., 1989, 90, 1730-1734.
Y-Cd(ecp-28), Hf-Hg(ecp-46): D. Andrae,U. Haeussermann, M. Dolg, H. Stoll, H. Preuss, Theor. Chim. Acta, 1990, 77, 123-141.
In-Sb(ecp-28), Tl-Bi(ecp-46): B. Metz, H. Stoll, M. Dolg, J. Chem. Phys., 2000, 113, 2563-2569.
Te-Xe(ecp-28), Po-Rn(ecp-46): K. A. Peterson, D. Figgen, E. Goll, H. Stoll, M. Dolg, J. Chem. Phys., 2003, 119, 11113-11123.
Rb(ecp-28), Cs(ecp-46): T. Leininger, A. Nicklass, W. Kuechle, H. Stoll, M. Dolg, A. Bergner, Chem. Phys. Lett., 1996, 255, 274-280.
Sr(ecp-28), Ba(ecp-46): M. Kaupp, P. V. Schleyer, H. Stoll and H. Preuss, J. Chem. Phys., 1991, 94, 1360-1366.
La(ecp-46): M. Dolg, H. Stoll, A. Savin, H. Preuss, Theor. Chim. Acta, 1989, 75, 173-194.
Lu(ecp-28): X. Cao, M. Dolg, J. Chem. Phys., 2001, 115, 7348-7355.

ECP parameters for Au [Def2-ECP] have been obtained from:
TURBOMOLE (7.0.2)

----- Orbital basis set information -----
Your calculation utilizes the basis: def2-TZVP
   F. Weigend and R. Ahlrichs, Phys. Chem. Chem. Phys. 7, 3297 (2005).

----- AuxJ basis set information -----
Your calculation utilizes the auxiliary basis: def2/J
   F. Weigend, Phys. Chem. Chem. Phys. 8, 1057 (2006).

----- AuxC basis set information -----
Your calculation utilizes the auxiliary basis: def2-TZVP/C
  H-La, Hf-Rn : A. Hellweg, C. Hattig, S. Hofener and W. Klopper, Theor. Chem. Acc. 117, 587 (2007).
        Ce-Lu : J. Chmela and M. E. Harding, Mol. Phys. (2018).

================================================================================
                                        WARNINGS
                       Please study these warnings very carefully!
================================================================================


IMPORTANT NOTE: CASSCF must signal convergence for a subsequent CASPT2/NEVPT2! 
                Set maxiter=1 to run CASPT2/NEVPT2 with arbitrary orbitals.


INFO   : the flag for use of the SHARK integral package has been found!

================================================================================
                                       INPUT FILE
================================================================================
NAME = nevpt2.inp
|  1> !SC-NEVPT2 def2-TZVP def2-TZVP/C
|  2> !MOREAD RIJCOSX def2/J
|  3> %maxcore 4000
|  4> %moinp "casscf.gbw"
|  5> %pal nprocs 8 end 
|  6> 
|  7> %casscf
|  8>  mult 5,3
|  9>  bweight 1,1
| 10>  nroots 5,45
| 11>  nel 6
| 12>  norb 5
| 13>  ptsettings
| 14>   d4tpre 1e-14 # default = 1e-10
| 15>   d3tpre 1e-14
| 16>  end
| 17>  rel           
| 18>    dosoc true   
| 19>    gtensor true 
| 20>  end           
| 21> end
| 22> 
| 23> 
| 24> *xyzfile 0 5 pbe.xyz
| 25> 
| 26> 
| 27>                          ****END OF INPUT****
================================================================================

                       ****************************
                       * Single Point Calculation *
                       ****************************

---------------------------------
CARTESIAN COORDINATES (ANGSTROEM)
---------------------------------
  Au     7.869494    7.748588    5.274060
  Au    10.520025    6.465044    5.450092
  Au     6.003454    9.618160    6.308971
  Au     6.110440    6.746900    7.275676
  Au     8.432692   10.591225    5.843691
  Au    10.433049    9.069563    4.589608
  Au    11.092165   10.839533    6.669445
  Au     4.305095    8.582530    8.170673
  Au     8.612063    5.863013    7.421071
  Au    11.266017    6.350917    8.155977
  Au     6.961470    8.913843    8.869135
  Au     9.250475    7.682329    9.630383
  Au    11.666471    9.052456    8.735896
  Au     9.140030   10.512746    8.689760
  Cr     9.671370    8.430422    7.100756

----------------------------
CARTESIAN COORDINATES (A.U.)
----------------------------
  NO LB      ZA    FRAG     MASS         X           Y           Z
   0 Au   19.0000*   0   196.966   14.871189   14.642710    9.966529
   1 Au   19.0000*   0   196.966   19.879966   12.217163   10.299181
   2 Au   19.0000*   0   196.966   11.344885   18.175688   11.922226
   3 Au   19.0000*   0   196.966   11.547059   12.749793   13.749034
   4 Au   19.0000*   0   196.966   15.935478   20.014516   11.042976
   5 Au   19.0000*   0   196.966   19.715606   17.138991    8.673103
   6 Au   19.0000*   0   196.966   20.961155   20.483749   12.603424
   7 Au   19.0000*   0   196.966    8.135451   16.218632   15.440334
   8 Au   19.0000*   0   196.966   16.274440   11.079489   14.023791
   9 Au   19.0000*   0   196.966   21.289686   12.001494   15.412563
  10 Au   19.0000*   0   196.966   13.155272   16.844721   16.760237
  11 Au   19.0000*   0   196.966   17.480864   14.517498   18.198787
  12 Au   19.0000*   0   196.966   22.046434   17.106662   16.508452
  13 Au   19.0000*   0   196.966   17.272154   19.866211   16.421266
  14 Cr   24.0000    0    52.000   18.276240   15.931189   13.418484
* core charge reduced due to ECP

--------------------------------
INTERNAL COORDINATES (ANGSTROEM)
--------------------------------
 Au     0   0   0     0.000000000000     0.00000000     0.00000000
 Au     1   0   0     2.950217971607     0.00000000     0.00000000
 Au     1   2   0     2.836977598541   148.85756487     0.00000000
 Au     1   2   3     2.846773015316   111.10656261   284.75012937
 Au     3   1   2     2.657919694274    64.92766137    51.95229570
 Au     2   1   3     2.744361013082    62.60772975   287.50441497
 Au     5   3   1     2.795768971083   148.23534010   281.99851670
 Au     3   1   2     2.724497745065   114.12918246   269.51281652
 Au     4   1   2     2.657162086517    64.77197955     5.29262470
 Au     9   4   1     2.796714031394   148.18484250    77.79628301
 Au     8   3   1     2.766576116548    61.86553625    70.56572020
 Au    11   8   3     2.708443670832   145.89167683   242.47954330
 Au     7   5   3     2.791719170250   110.94434646    12.58762441
 Au    11   8   3     2.708282363027   145.72498244    39.81705921
 Cr    13   7   5     2.653495437354    62.56480655    24.65114107

---------------------------
INTERNAL COORDINATES (A.U.)
---------------------------
 Au     0   0   0     0.000000000000     0.00000000     0.00000000
 Au     1   0   0     5.575104001710     0.00000000     0.00000000
 Au     1   2   0     5.361110709312   148.85756487     0.00000000
 Au     1   2   3     5.379621364385   111.10656261   284.75012937
 Au     3   1   2     5.022740308134    64.92766137    51.95229570
 Au     2   1   3     5.186090727336    62.60772975   287.50441497
 Au     5   3   1     5.283237689061   148.23534010   281.99851670
 Au     3   1   2     5.148554590658   114.12918246   269.51281652
 Au     4   1   2     5.021308636956    64.77197955     5.29262470
 Au     9   4   1     5.285023594229   148.18484250    77.79628301
 Au     8   3   1     5.228071188923    61.86553625    70.56572020
 Au    11   8   3     5.118216787024   145.89167683   242.47954330
 Au     7   5   3     5.275584674589   110.94434646    12.58762441
 Au    11   8   3     5.117911959451   145.72498244    39.81705921
 Cr    13   7   5     5.014379674208    62.56480655    24.65114107

---------------------
BASIS SET INFORMATION
---------------------
There are 2 groups of distinct atoms

 Group   1 Type Au  : 8s7p6d1f contracted to 6s4p3d1f pattern {311111/4111/411/1}
 Group   2 Type Cr  : 17s11p7d1f contracted to 6s4p4d1f pattern {842111/6311/4111/1}

Atom   0Au   basis set group =>   1
Atom   1Au   basis set group =>   1
Atom   2Au   basis set group =>   1
Atom   3Au   basis set group =>   1
Atom   4Au   basis set group =>   1
Atom   5Au   basis set group =>   1
Atom   6Au   basis set group =>   1
Atom   7Au   basis set group =>   1
Atom   8Au   basis set group =>   1
Atom   9Au   basis set group =>   1
Atom  10Au   basis set group =>   1
Atom  11Au   basis set group =>   1
Atom  12Au   basis set group =>   1
Atom  13Au   basis set group =>   1
Atom  14Cr   basis set group =>   2
---------------------------------
AUXILIARY/J BASIS SET INFORMATION
---------------------------------
There are 2 groups of distinct atoms

 Group   1 Type Au  : 11s5p5d3f3g contracted to 8s5p5d2f3g pattern {41111111/11111/11111/21/111}
 Group   2 Type Cr  : 19s5p5d3f3g contracted to 8s5p5d2f3g pattern {121111111/11111/11111/21/111}

Atom   0Au   basis set group =>   1
Atom   1Au   basis set group =>   1
Atom   2Au   basis set group =>   1
Atom   3Au   basis set group =>   1
Atom   4Au   basis set group =>   1
Atom   5Au   basis set group =>   1
Atom   6Au   basis set group =>   1
Atom   7Au   basis set group =>   1
Atom   8Au   basis set group =>   1
Atom   9Au   basis set group =>   1
Atom  10Au   basis set group =>   1
Atom  11Au   basis set group =>   1
Atom  12Au   basis set group =>   1
Atom  13Au   basis set group =>   1
Atom  14Cr   basis set group =>   2
---------------------------------
AUXILIARY/C BASIS SET INFORMATION
---------------------------------
There are 2 groups of distinct atoms

 Group   1 Type Au  : 8s8p7d5f3g2h contracted to 8s8p7d5f3g2h pattern {11111111/11111111/1111111/11111/111/11}
 Group   2 Type Cr  : 11s9p8d6f5g2h contracted to 9s8p8d6f5g2h pattern {311111111/21111111/11111111/111111/11111/11}

Atom   0Au   basis set group =>   1
Atom   1Au   basis set group =>   1
Atom   2Au   basis set group =>   1
Atom   3Au   basis set group =>   1
Atom   4Au   basis set group =>   1
Atom   5Au   basis set group =>   1
Atom   6Au   basis set group =>   1
Atom   7Au   basis set group =>   1
Atom   8Au   basis set group =>   1
Atom   9Au   basis set group =>   1
Atom  10Au   basis set group =>   1
Atom  11Au   basis set group =>   1
Atom  12Au   basis set group =>   1
Atom  13Au   basis set group =>   1
Atom  14Cr   basis set group =>   2
-------------------------
ECP PARAMETER INFORMATION
-------------------------

 Group 1, Type Au ECP Def2-ECP (replacing 60 core electrons, lmax=3)

Atom   0Au   ECP group =>   1
Atom   1Au   ECP group =>   1
Atom   2Au   ECP group =>   1
Atom   3Au   ECP group =>   1
Atom   4Au   ECP group =>   1
Atom   5Au   ECP group =>   1
Atom   6Au   ECP group =>   1
Atom   7Au   ECP group =>   1
Atom   8Au   ECP group =>   1
Atom   9Au   ECP group =>   1
Atom  10Au   ECP group =>   1
Atom  11Au   ECP group =>   1
Atom  12Au   ECP group =>   1
Atom  13Au   ECP group =>   1



           ************************************************************
           *        Program running with 8 parallel MPI-processes     *
           *              working on a common directory               *
           ************************************************************
------------------------------------------------------------------------------
                           ORCA GTO INTEGRAL CALCULATION
                           -- RI-GTO INTEGRALS CHOSEN --
------------------------------------------------------------------------------
------------------------------------------------------------------------------
                   ___                                                        
                  /   \      - P O W E R E D   B Y -                         
                 /     \                                                     
                 |  |  |   _    _      __       _____    __    __             
                 |  |  |  | |  | |    /  \     |  _  \  |  |  /  |          
                  \  \/   | |  | |   /    \    | | | |  |  | /  /          
                 / \  \   | |__| |  /  /\  \   | |_| |  |  |/  /          
                |  |  |   |  __  | /  /__\  \  |    /   |      \           
                |  |  |   | |  | | |   __   |  |    \   |  |\   \          
                \     /   | |  | | |  |  |  |  | |\  \  |  | \   \       
                 \___/    |_|  |_| |__|  |__|  |_| \__\ |__|  \__/        
                                                                              
                      - O R C A' S   B I G   F R I E N D -                    
                                      &                                       
                       - I N T E G R A L  F E E D E R -                       
                                                                              
 v1 FN, 2020, v2 2021                                                         
------------------------------------------------------------------------------


Reading SHARK input file nevpt2.SHARKINP.tmp ... ok
----------------------
SHARK INTEGRAL PACKAGE
----------------------

Number of atoms                             ...     15
Number of basis functions                   ...    605
Number of shells                            ...    211
Maximum angular momentum                    ...      3
Integral batch strategy                     ... SHARK/LIBINT Hybrid
RI-J (if used) integral strategy            ... SPLIT-RIJ (Revised 2003 algorithm where possible)
Printlevel                                  ...      1
Contraction scheme used                     ... SEGMENTED contraction
Coulomb Range Separation                    ... NOT USED
Exchange Range Separation                   ... NOT USED
Finite Nucleus Model                        ... NOT USED
Auxiliary Coulomb fitting basis             ... AVAILABLE
   # of basis functions in Aux-J            ...   1335
   # of shells in Aux-J                     ...    345
   Maximum angular momentum in Aux-J        ...      4
Auxiliary J/K fitting basis                 ... NOT available
Auxiliary Correlation fitting basis         ... AVAILABLE
   # of basis functions in Aux-C            ...   2296
   # of shells in Aux-C                     ...    500
   Maximum angular momentum in Aux-C        ...      5
Auxiliary 'external' fitting basis          ... NOT available
Integral threshold                          ...     1.000000e-10
Primitive cut-off                           ...     1.000000e-11
Primitive pair pre-selection threshold      ...     1.000000e-11

Calculating pre-screening integrals         ... done (  0.1 sec) Dimension = 211
Organizing shell pair data                  ... done (  0.3 sec)
Shell pair information
Total number of shell pairs                 ...     22366
Shell pairs after pre-screening             ...     17683
Total number of primitive shell pairs       ...     59609
Primitive shell pairs kept                  ...     34152
          la=0 lb=0:   2777 shell pairs
          la=1 lb=0:   4039 shell pairs
          la=1 lb=1:   1525 shell pairs
          la=2 lb=0:   3511 shell pairs
          la=2 lb=1:   2468 shell pairs
          la=2 lb=2:   1017 shell pairs
          la=3 lb=0:    928 shell pairs
          la=3 lb=1:    706 shell pairs
          la=3 lb=2:    616 shell pairs
          la=3 lb=3:     96 shell pairs

Calculating one electron integrals          ... done (  0.0 sec)
Calculating ECP integrals                   ... done (  8.8 sec)
Calculating RI/J V-Matrix + Cholesky decomp.... done (  0.1 sec)
Calculating RI/C V-Matrix + Cholesky decomp.... done (  0.2 sec)
Calculating Nuclear repulsion               ... done (  0.0 sec) ENN=   5536.350542631488 Eh

SHARK setup successfully completed in   9.7 seconds

Maximum memory used throughout the entire GTOINT-calculation: 44.2 MB


           ************************************************************
           *        Program running with 8 parallel MPI-processes     *
           *              working on a common directory               *
           ************************************************************
-------------------------------------------------------------------------------
                                 ORCA SCF
-------------------------------------------------------------------------------

------------
SCF SETTINGS
------------
Hamiltonian:
 Ab initio Hamiltonian  Method          .... Hartree-Fock(GTOs)
 RI-approximation to the Coulomb term is turned on
   Number of AuxJ basis functions       .... 1335
   RIJ-COSX (HFX calculated with COS-X)).... on


General Settings:
 Integral files         IntName         .... nevpt2
 Hartree-Fock type      HFTyp           .... CASSCF
 Total Charge           Charge          ....    0
 Multiplicity           Mult            ....    5
 Number of Electrons    NEL             ....  290
 Basis Dimension        Dim             ....  605
 Nuclear Repulsion      ENuc            ....   5536.3505426315 Eh


Diagonalization of the overlap matrix:
Smallest eigenvalue                        ... 8.464e-05
Time for diagonalization                   ...    0.042 sec
Threshold for overlap eigenvalues          ... 1.000e-08
Number of eigenvalues below threshold      ... 0
Time for construction of square roots      ...    0.036 sec
Total time needed                          ...    0.079 sec

---------------------
INITIAL GUESS: MOREAD
---------------------
Guess MOs are being read from file: casscf.gbw
Input Geometry matches current geometry (good)
Input basis set matches current basis set (good)
MOs were renormalized
Gram-Schmidt orthogonalization of all MOs with pivot on actives
                      ------------------
                      INITIAL GUESS DONE (   2.1 sec)
                      ------------------
--------------------
COSX GRID GENERATION
--------------------

GRIDX 1
-------
General Integration Accuracy     IntAcc      ... 3.816
Radial Grid Type                 RadialGrid  ... OptM3 with GC (2021)
Angular Grid (max. ang.)         AngularGrid ... 1 (Lebedev-50)
Angular grid pruning method      GridPruning ... 4 (adaptive)
Weight generation scheme         WeightScheme... Becke
Basis function cutoff            BFCut       ... 1.0000e-10
Integration weight cutoff        WCut        ... 1.0000e-14
Angular grids for H and He will be reduced by one unit
Partially contracted basis set               ... on
Rotationally invariant grid construction     ... off

Total number of grid points                  ...    17422
Total number of batches                      ...      280
Average number of points per batch           ...       62
Average number of grid points per atom       ...     1161
UseSFitting                                  ... on

GRIDX 2
-------
General Integration Accuracy     IntAcc      ... 4.020
Radial Grid Type                 RadialGrid  ... OptM3 with GC (2021)
Angular Grid (max. ang.)         AngularGrid ... 2 (Lebedev-110)
Angular grid pruning method      GridPruning ... 4 (adaptive)
Weight generation scheme         WeightScheme... Becke
Basis function cutoff            BFCut       ... 1.0000e-10
Integration weight cutoff        WCut        ... 1.0000e-14
Angular grids for H and He will be reduced by one unit
Partially contracted basis set               ... on
Rotationally invariant grid construction     ... off

Total number of grid points                  ...    52715
Total number of batches                      ...      831
Average number of points per batch           ...       63
Average number of grid points per atom       ...     3514
UseSFitting                                  ... on

GRIDX 3
-------
General Integration Accuracy     IntAcc      ... 4.338
Radial Grid Type                 RadialGrid  ... OptM3 with GC (2021)
Angular Grid (max. ang.)         AngularGrid ... 3 (Lebedev-194)
Angular grid pruning method      GridPruning ... 4 (adaptive)
Weight generation scheme         WeightScheme... Becke
Basis function cutoff            BFCut       ... 1.0000e-10
Integration weight cutoff        WCut        ... 1.0000e-14
Angular grids for H and He will be reduced by one unit
Partially contracted basis set               ... on
Rotationally invariant grid construction     ... off

Total number of grid points                  ...    95987
Total number of batches                      ...     1508
Average number of points per batch           ...       63
Average number of grid points per atom       ...     6399
UseSFitting                                  ... on

Time for X-Grid setup             =    1.241 sec



 ... the calculation is a CASSCF calculation -I'm leaving here GOOD LUCK!!!



           ************************************************************
           *        Program running with 8 parallel MPI-processes     *
           *              working on a common directory               *
           ************************************************************
-------------------------------------------------------------------------------
                              ORCA-CASSCF
-------------------------------------------------------------------------------

Setting up the integral package       ... done
Setting up the integral package (RI)  ... done
Building the CAS space                ... done (5 configurations for Mult=5)
Building the CAS space                ... done (35 configurations for Mult=3)

 CASSCF (estimated) memory needed     ... 150.4 MB
 NEVPT2 (estimated) memory needed     ... 543.4 MB


SYSTEM-SPECIFIC SETTINGS:
Number of active electrons          ...    6
Number of active orbitals           ...    5
Total number of electrons           ...  290
Total number of orbitals            ...  605
Total number aux. functions         ... 2296

Determined orbital ranges:
   Internal       0 -  141 ( 142 orbitals)
   Active       142 -  146 (   5 orbitals)
   External     147 -  604 ( 458 orbitals)
Number of rotation parameters      ...  68036

CI-STEP:
CI strategy                         ... General CI
Number of multiplicity blocks       ...    2
BLOCK  1 WEIGHT=   0.5000
  Multiplicity                      ...    5
  #(Configurations)                 ...    5
  #(CSFs)                           ...    5
  #(Roots)                          ...    5
    ROOT=0 WEIGHT=    0.100000
    ROOT=1 WEIGHT=    0.100000
    ROOT=2 WEIGHT=    0.100000
    ROOT=3 WEIGHT=    0.100000
    ROOT=4 WEIGHT=    0.100000

BLOCK  2 WEIGHT=   0.5000
  Multiplicity                      ...    3
  #(Configurations)                 ...   35
  #(CSFs)                           ...   45
  #(Roots)                          ...   45
    ROOT=0 WEIGHT=    0.011111
    ROOT=1 WEIGHT=    0.011111
    ROOT=2 WEIGHT=    0.011111
    ROOT=3 WEIGHT=    0.011111
    ROOT=4 WEIGHT=    0.011111
    ROOT=5 WEIGHT=    0.011111
    ROOT=6 WEIGHT=    0.011111
    ROOT=7 WEIGHT=    0.011111
    ROOT=8 WEIGHT=    0.011111
    ROOT=9 WEIGHT=    0.011111
    ROOT=10 WEIGHT=    0.011111
    ROOT=11 WEIGHT=    0.011111
    ROOT=12 WEIGHT=    0.011111
    ROOT=13 WEIGHT=    0.011111
    ROOT=14 WEIGHT=    0.011111
    ROOT=15 WEIGHT=    0.011111
    ROOT=16 WEIGHT=    0.011111
    ROOT=17 WEIGHT=    0.011111
    ROOT=18 WEIGHT=    0.011111
    ROOT=19 WEIGHT=    0.011111
    ROOT=20 WEIGHT=    0.011111
    ROOT=21 WEIGHT=    0.011111
    ROOT=22 WEIGHT=    0.011111
    ROOT=23 WEIGHT=    0.011111
    ROOT=24 WEIGHT=    0.011111
    ROOT=25 WEIGHT=    0.011111
    ROOT=26 WEIGHT=    0.011111
    ROOT=27 WEIGHT=    0.011111
    ROOT=28 WEIGHT=    0.011111
    ROOT=29 WEIGHT=    0.011111
    ROOT=30 WEIGHT=    0.011111
    ROOT=31 WEIGHT=    0.011111
    ROOT=32 WEIGHT=    0.011111
    ROOT=33 WEIGHT=    0.011111
    ROOT=34 WEIGHT=    0.011111
    ROOT=35 WEIGHT=    0.011111
    ROOT=36 WEIGHT=    0.011111
    ROOT=37 WEIGHT=    0.011111
    ROOT=38 WEIGHT=    0.011111
    ROOT=39 WEIGHT=    0.011111
    ROOT=40 WEIGHT=    0.011111
    ROOT=41 WEIGHT=    0.011111
    ROOT=42 WEIGHT=    0.011111
    ROOT=43 WEIGHT=    0.011111
    ROOT=44 WEIGHT=    0.011111

  PrintLevel                        ...    1
  N(GuessMat)                       ...       512
  MaxDim(CI)                        ...        10
  MaxIter(CI)                       ...        64
  Energy Tolerance CI               ...  1.00e-08
  Residual Tolerance CI             ...  1.00e-08
  Shift(CI)                         ...  1.00e-04

INTEGRAL-TRANSFORMATION-STEP:
  Algorithm                         ... RI-MO

ORBITAL-IMPROVEMENT-STEP:
  Algorithm                         ... SuperCI(PT)
  Default Parametrization           ... CAYLEY
  Act-Act rotations                 ... depends on algorithm used

  Note: SuperCI(PT) will ignore FreezeIE, FreezeAct and FreezeGrad. In general Default settings are encouraged.
        In conjunction with ShiftUp, ShiftDn or GradScaling the performance of SuperCI(PT) is less optimal.  

  MaxRot                            ... 2.00e-01 
  Max. no of vectors (DIIS)         ... 15
  DThresh (cut-off) metric          ... 1.00e-06
  Switch step at gradient           ...  3.00e-02 
  Switch step at iteration          ...        50   
  Switch step to                    ... SuperCI(PT)    

SCF-SETTINGS:
  Incremental                       ... off
  RIJCOSX approximation             ... on
  UseFinalGrid                      ... on
  RI-JK approximation               ... off
  AO integral handling              ... DIRECT
  Integral Neglect Thresh           ...  1.00e-10
  Primitive cutoff TCut             ...  1.00e-11
  Energy convergence tolerance      ...  1.00e-07
  Orbital gradient convergence      ...  1.00e-03
  Max. number of iterations         ...        75  

PT2-SETTINGS:
  A PT2 calculation will be performed on top of the CASSCF wave function (PT2 = SC-NEVPT2)   
 CI step strategy                   ... General CI
  D4C handling                      ... on the fly 
  CI truncation for D4C at          ...  1.00e-14
  CI truncation for D3  at          ...  1.00e-14
  Orbitals                          ... canonical for each state 
  Last  frozen  orbital             ... 4
  First deleted orbital             ... 605
  RI Step                           ... store IJV(array) (MC_ONDISK during integral transformation) 

PROPERTIES-SETTINGS:
  Spin orbit coupling               ... true
  GTensor                           ... true
  QDPT diagonal energies            ... NEVPT2 energies 

FINAL ORBITALS:
  Active   Orbitals                 ... natural 
  Internal Orbitals                 ... canonical 
  External Orbitals                 ... canonical 

------------------
CAS-SCF ITERATIONS
------------------


MACRO-ITERATION   1: 
   --- Inactive Energy E0 = -2922.31775689 Eh
CI-ITERATION   0: 
 -2930.591885828   0.000000000000 (    0.00)
 -2930.576967349   0.000000000000
 -2930.543497229   0.000000000000
 -2930.543219315   0.000000000000
 -2930.527212935   0.000000000000
   CI-PROBLEM SOLVED
   DENSITIES MADE
CI-ITERATION   0: 
 -2930.584249726   0.000000000000 (    0.00)
 -2930.566355820   0.000000000000
 -2930.563140320   0.000000000000
 -2930.562435456   0.000000000000
 -2930.544911239   0.000000000000
 -2930.537883628   0.000000000000
 -2930.536559226   0.000000000000
 -2930.528992979   0.000000000000
 -2930.528330419   0.000000000000
 -2930.527153301   0.000000000000
 -2930.521068157   0.000000000000
 -2930.516369258   0.000000000000
 -2930.515324787   0.000000000000
 -2930.504863931   0.000000000000
 -2930.502692309   0.000000000000
 -2930.499973400   0.000000000000
 -2930.497895152   0.000000000000
 -2930.493284953   0.000000000000
 -2930.486179221   0.000000000000
 -2930.483275426   0.000000000000
 -2930.478826195   0.000000000000
 -2930.467852408   0.000000000000
 -2930.467366638   0.000000000000
 -2930.465818980   0.000000000000
 -2930.459383470   0.000000000000
 -2930.457222875   0.000000000000
 -2930.445962990   0.000000000000
 -2930.443323496   0.000000000000
 -2930.428641477   0.000000000000
 -2930.424002675   0.000000000000
 -2930.418169584   0.000000000000
 -2930.413759803   0.000000000000
 -2930.411334891   0.000000000000
 -2930.407865652   0.000000000000
 -2930.387700362   0.000000000000
 -2930.378896895   0.000000000000
 -2930.339778902   0.000000000000
 -2930.319590236   0.000000000000
 -2930.313040603   0.000000000000
 -2930.287221853   0.000000000000
 -2930.261603507   0.000000000000
 -2930.260254021   0.000000000000
 -2930.163086495   0.000000000000
 -2930.140944774   0.000000000000
 -2930.138040728   0.000000000000
   CI-PROBLEM SOLVED
   DENSITIES MADE

                 <<<<<<<<<<<<<<<<<<INITIAL CI STATE CHECK>>>>>>>>>>>>>>>>>>

BLOCK  1 MULT= 5 NROOTS= 5 
ROOT   0:  E=   -2930.5918858284 Eh
      0.89194 [     1]: 11121
      0.07918 [     3]: 12111
      0.02423 [     4]: 21111
      0.00465 [     0]: 11112
ROOT   1:  E=   -2930.5769673494 Eh  0.406 eV   3274.2 cm**-1
      0.89221 [     3]: 12111
      0.07685 [     1]: 11121
      0.01527 [     0]: 11112
      0.01494 [     2]: 11211
ROOT   2:  E=   -2930.5434972287 Eh  1.317 eV  10620.1 cm**-1
      0.95645 [     4]: 21111
      0.02064 [     1]: 11121
      0.01272 [     2]: 11211
      0.00575 [     3]: 12111
      0.00445 [     0]: 11112
ROOT   3:  E=   -2930.5432193150 Eh  1.324 eV  10681.1 cm**-1
      0.97495 [     0]: 11112
      0.01019 [     3]: 12111
      0.00789 [     1]: 11121
      0.00584 [     4]: 21111
ROOT   4:  E=   -2930.5272129345 Eh  1.760 eV  14194.1 cm**-1
      0.97122 [     2]: 11211
      0.01277 [     4]: 21111
      0.01267 [     3]: 12111
      0.00267 [     1]: 11121

BLOCK  2 MULT= 3 NROOTS=45 
ROOT   0:  E=   -2930.5842497264 Eh
      0.62136 [    11]: 11121
      0.17899 [    16]: 12021
      0.05438 [     8]: 10221
      0.04083 [    18]: 12111
      0.02263 [    19]: 12120
      0.01403 [    28]: 21111
      0.01399 [     6]: 10122
      0.01325 [    10]: 11112
      0.00633 [    20]: 12201
      0.00602 [     4]: 02121
      0.00466 [    13]: 11211
      0.00453 [    32]: 22011
      0.00442 [    33]: 22101
      0.00272 [    34]: 22110
ROOT   1:  E=   -2930.5663558205 Eh  0.487 eV   3927.3 cm**-1
      0.37647 [    33]: 22101
      0.20427 [    20]: 12201
      0.08219 [    34]: 22110
      0.07917 [    28]: 21111
      0.04037 [    17]: 12102
      0.03887 [    13]: 11211
      0.03647 [    21]: 12210
      0.03300 [    30]: 21201
      0.02560 [    10]: 11112
      0.02367 [    18]: 12111
      0.01515 [    12]: 11202
      0.00701 [    27]: 21102
      0.00611 [    29]: 21120
      0.00523 [    31]: 21210
      0.00476 [    15]: 12012
      0.00414 [    11]: 11121
      0.00360 [     7]: 10212
      0.00303 [    24]: 20211
ROOT   2:  E=   -2930.5631403197 Eh  0.574 eV   4633.0 cm**-1
      0.51026 [    20]: 12201
      0.20130 [    33]: 22101
      0.11558 [    13]: 11211
      0.04144 [    21]: 12210
      0.03549 [    28]: 21111
      0.02745 [    34]: 22110
      0.01899 [    10]: 11112
      0.01023 [    12]: 11202
      0.00815 [    18]: 12111
      0.00448 [    14]: 11220
      0.00396 [     5]: 02211
      0.00301 [     3]: 02112
      0.00300 [    27]: 21102
      0.00289 [    17]: 12102
      0.00261 [    11]: 11121
      0.00255 [    30]: 21201
ROOT   3:  E=   -2930.5624354563 Eh  0.594 eV   4787.7 cm**-1
      0.42051 [    17]: 12102
      0.19004 [    18]: 12111
      0.14640 [    10]: 11112
      0.09737 [    33]: 22101
      0.03207 [    12]: 11202
      0.02862 [    11]: 11121
      0.01900 [    34]: 22110
      0.01635 [    13]: 11211
      0.00735 [     6]: 10122
      0.00724 [    30]: 21201
      0.00623 [    19]: 12120
      0.00513 [    32]: 22011
      0.00475 [    27]: 21102
      0.00425 [     7]: 10212
ROOT   4:  E=   -2930.5449112391 Eh  1.070 eV   8633.8 cm**-1
      0.35579 [    32]: 22011
      0.28832 [    28]: 21111
      0.06179 [    18]: 12111
      0.04064 [    24]: 20211
      0.03927 [    13]: 11211
      0.03401 [    15]: 12012
      0.02871 [    10]: 11112
      0.02863 [    26]: 21021
      0.01800 [    23]: 20121
      0.01184 [    16]: 12021
      0.01063 [    33]: 22101
      0.01023 [    29]: 21120
      0.00951 [     9]: 11022
      0.00910 [     8]: 10221
      0.00684 [    22]: 20112
      0.00617 [    25]: 21012
      0.00613 [    17]: 12102
      0.00613 [     5]: 02211
      0.00523 [     6]: 10122
      0.00446 [    34]: 22110
      0.00336 [    11]: 11121
      0.00292 [    21]: 12210
ROOT   5:  E=   -2930.5378836281 Eh  1.262 eV  10176.2 cm**-1
      0.55131 [    18]: 12111
      0.11790 [    17]: 12102
      0.07858 [    13]: 11211
      0.07188 [    11]: 11121
      0.05256 [    19]: 12120
      0.03418 [    32]: 22011
      0.01960 [    28]: 21111
      0.01351 [    20]: 12201
      0.01180 [     8]: 10221
      0.00860 [    24]: 20211
      0.00792 [    10]: 11112
      0.00492 [    15]: 12012
      0.00421 [     7]: 10212
      0.00412 [    26]: 21021
      0.00392 [     4]: 02121
      0.00350 [    29]: 21120
ROOT   6:  E=   -2930.5365592262 Eh  1.298 eV  10466.9 cm**-1
      0.35037 [    10]: 11112
      0.27076 [    15]: 12012
      0.06031 [     7]: 10212
      0.05149 [    32]: 22011
      0.04947 [    28]: 21111
      0.04796 [     9]: 11022
      0.03282 [    17]: 12102
      0.02596 [    11]: 11121
      0.02570 [     6]: 10122
      0.01325 [    18]: 12111
      0.01315 [    26]: 21021
      0.01178 [     3]: 02112
      0.00960 [    24]: 20211
      0.00641 [    12]: 11202
      0.00618 [    22]: 20112
      0.00584 [    21]: 12210
      0.00303 [    29]: 21120
ROOT   7:  E=   -2930.5289929792 Eh  1.504 eV  12127.5 cm**-1
      0.45850 [    26]: 21021
      0.13635 [    11]: 11121
      0.05817 [    10]: 11112
      0.05190 [     2]: 01221
      0.05147 [    29]: 21120
      0.03436 [     0]: 01122
      0.03188 [     9]: 11022
      0.03035 [    18]: 12111
      0.02760 [     6]: 10122
      0.02324 [    15]: 12012
      0.02225 [    32]: 22011
      0.01236 [    17]: 12102
      0.01047 [    16]: 12021
      0.00993 [    28]: 21111
      0.00593 [    14]: 11220
      0.00485 [    19]: 12120
      0.00440 [    22]: 20112
      0.00437 [    13]: 11211
      0.00361 [     5]: 02211
      0.00361 [    25]: 21012
      0.00328 [     7]: 10212
      0.00292 [     4]: 02121
ROOT   8:  E=   -2930.5283304192 Eh  1.522 eV  12272.9 cm**-1
      0.37460 [    13]: 11211
      0.35442 [    18]: 12111
      0.04458 [    17]: 12102
      0.03594 [    19]: 12120
      0.03115 [    11]: 11121
      0.02136 [    14]: 11220
      0.01943 [    20]: 12201
      0.01761 [    28]: 21111
      0.01532 [     7]: 10212
      0.01379 [     8]: 10221
      0.01343 [    10]: 11112
      0.00841 [    24]: 20211
      0.00716 [    21]: 12210
      0.00588 [    26]: 21021
      0.00492 [    12]: 11202
      0.00457 [     4]: 02121
      0.00423 [     9]: 11022
      0.00394 [    30]: 21201
      0.00359 [    32]: 22011
      0.00298 [    34]: 22110
      0.00283 [     5]: 02211
ROOT   9:  E=   -2930.5271533012 Eh  1.554 eV  12531.2 cm**-1
      0.26592 [    29]: 21120
      0.22581 [    28]: 21111
      0.10960 [    11]: 11121
      0.10145 [     9]: 11022
      0.06081 [    23]: 20121
      0.05338 [     0]: 01122
      0.03242 [    34]: 22110
      0.02400 [    14]: 11220
      0.01959 [    17]: 12102
      0.01904 [    33]: 22101
      0.01378 [    26]: 21021
      0.01055 [     3]: 02112
      0.00901 [    18]: 12111
      0.00855 [    10]: 11112
      0.00829 [    27]: 21102
      0.00727 [    15]: 12012
      0.00403 [     2]: 01221
      0.00359 [    32]: 22011
      0.00356 [    25]: 21012
      0.00326 [     4]: 02121
      0.00281 [    31]: 21210
      0.00253 [    13]: 11211
ROOT  10:  E=   -2930.5210681575 Eh  1.719 eV  13866.8 cm**-1
      0.28294 [    11]: 11121
      0.23970 [    10]: 11112
      0.19953 [    26]: 21021
      0.04301 [     6]: 10122
      0.03768 [    29]: 21120
      0.03701 [    18]: 12111
      0.03105 [    16]: 12021
      0.02422 [    17]: 12102
      0.02059 [    28]: 21111
      0.01419 [    27]: 21102
      0.01152 [     9]: 11022
      0.01112 [    23]: 20121
      0.00744 [    32]: 22011
      0.00728 [    15]: 12012
      0.00680 [     0]: 01122
      0.00660 [    31]: 21210
      0.00481 [    19]: 12120
      0.00263 [     2]: 01221
ROOT  11:  E=   -2930.5163692576 Eh  1.847 eV  14898.0 cm**-1
      0.60735 [    11]: 11121
      0.05497 [    18]: 12111
      0.04459 [    26]: 21021
      0.04216 [    25]: 21012
      0.03849 [    16]: 12021
      0.03428 [     2]: 01221
      0.03181 [     0]: 01122
      0.02859 [    29]: 21120
      0.02323 [    28]: 21111
      0.02230 [     4]: 02121
      0.01263 [    10]: 11112
      0.00980 [     9]: 11022
      0.00755 [    14]: 11220
      0.00649 [    23]: 20121
      0.00545 [     8]: 10221
      0.00495 [    15]: 12012
      0.00487 [    19]: 12120
      0.00379 [    32]: 22011
      0.00351 [     5]: 02211
      0.00309 [    34]: 22110
ROOT  12:  E=   -2930.5153247870 Eh  1.876 eV  15127.3 cm**-1
      0.48218 [     9]: 11022
      0.13629 [    29]: 21120
      0.06239 [    26]: 21021
      0.05686 [    14]: 11220
      0.05131 [    28]: 21111
      0.04735 [    15]: 12012
      0.02218 [     6]: 10122
      0.01729 [    25]: 21012
      0.01414 [    16]: 12021
      0.01245 [     2]: 01221
      0.01232 [    19]: 12120
      0.01112 [    11]: 11121
      0.00987 [    21]: 12210
      0.00898 [    18]: 12111
      0.00838 [    10]: 11112
      0.00700 [    13]: 11211
      0.00666 [    17]: 12102
      0.00538 [     4]: 02121
      0.00505 [    33]: 22101
      0.00498 [    27]: 21102
      0.00390 [    23]: 20121
      0.00372 [     8]: 10221
ROOT  13:  E=   -2930.5048639313 Eh  2.160 eV  17423.2 cm**-1
      0.25053 [     0]: 01122
      0.21302 [    28]: 21111
      0.18677 [    11]: 11121
      0.09916 [    10]: 11112
      0.04975 [    13]: 11211
      0.03093 [     3]: 02112
      0.02971 [    33]: 22101
      0.02287 [    23]: 20121
      0.02222 [    14]: 11220
      0.01523 [    18]: 12111
      0.01205 [    32]: 22011
      0.01204 [    29]: 21120
      0.00880 [     8]: 10221
      0.00758 [    19]: 12120
      0.00707 [    17]: 12102
      0.00511 [    20]: 12201
      0.00404 [    21]: 12210
      0.00345 [     1]: 01212
      0.00332 [    30]: 21201
      0.00287 [     4]: 02121
      0.00273 [     6]: 10122
ROOT  14:  E=   -2930.5026923095 Eh  2.219 eV  17899.8 cm**-1
      0.39869 [    10]: 11112
      0.18401 [    11]: 11121
      0.07530 [    15]: 12012
      0.05428 [    28]: 21111
      0.04309 [     3]: 02112
      0.03806 [     0]: 01122
      0.03023 [    29]: 21120
      0.02140 [     6]: 10122
      0.02107 [    25]: 21012
      0.02002 [    32]: 22011
      0.01921 [    17]: 12102
      0.01786 [    18]: 12111
      0.01738 [     9]: 11022
      0.01389 [    34]: 22110
      0.01094 [    33]: 22101
      0.00840 [     1]: 01212
      0.00433 [    21]: 12210
      0.00315 [     7]: 10212
      0.00306 [    13]: 11211
      0.00271 [    26]: 21021
      0.00256 [     4]: 02121
ROOT  15:  E=   -2930.4999733995 Eh  2.293 eV  18496.5 cm**-1
      0.18269 [    28]: 21111
      0.16731 [    18]: 12111
      0.11428 [    13]: 11211
      0.07179 [     3]: 02112
      0.07071 [    32]: 22011
      0.06400 [    34]: 22110
      0.06164 [    29]: 21120
      0.04891 [    17]: 12102
      0.04836 [    14]: 11220
      0.03341 [    10]: 11112
      0.02014 [     8]: 10221
      0.01816 [    20]: 12201
      0.01201 [     1]: 01212
      0.01004 [     9]: 11022
      0.01000 [    11]: 11121
      0.00899 [    31]: 21210
      0.00878 [    21]: 12210
      0.00552 [    15]: 12012
      0.00548 [     7]: 10212
      0.00541 [     6]: 10122
      0.00422 [     4]: 02121
      0.00416 [     5]: 02211
      0.00365 [    22]: 20112
      0.00340 [    23]: 20121
      0.00340 [     0]: 01122
      0.00311 [    12]: 11202
      0.00300 [    26]: 21021
      0.00271 [    30]: 21201
ROOT  16:  E=   -2930.4978951518 Eh  2.350 eV  18952.6 cm**-1
      0.19739 [    18]: 12111
      0.15596 [    10]: 11112
      0.09696 [     3]: 02112
      0.08621 [     0]: 01122
      0.06252 [    28]: 21111
      0.05742 [    34]: 22110
      0.05094 [    17]: 12102
      0.05048 [    11]: 11121
      0.04914 [     1]: 01212
      0.03686 [    13]: 11211
      0.02719 [    31]: 21210
      0.02329 [    27]: 21102
      0.02163 [    29]: 21120
      0.01608 [     2]: 01221
      0.01248 [    15]: 12012
      0.01000 [    19]: 12120
      0.00840 [    33]: 22101
      0.00793 [    16]: 12021
      0.00767 [    21]: 12210
      0.00488 [     6]: 10122
      0.00413 [    32]: 22011
      0.00320 [    12]: 11202
      0.00310 [     9]: 11022
ROOT  17:  E=   -2930.4932849525 Eh  2.475 eV  19964.5 cm**-1
      0.31333 [    13]: 11211
      0.17755 [    18]: 12111
      0.07243 [    14]: 11220
      0.07082 [    34]: 22110
      0.04714 [    28]: 21111
      0.04093 [     8]: 10221
      0.03975 [     3]: 02112
      0.03660 [    11]: 11121
      0.03638 [    20]: 12201
      0.03172 [     0]: 01122
      0.02997 [    33]: 22101
      0.02984 [    12]: 11202
      0.01215 [    31]: 21210
      0.00949 [    29]: 21120
      0.00885 [    10]: 11112
      0.00866 [     1]: 01212
      0.00767 [     4]: 02121
      0.00760 [     9]: 11022
      0.00393 [    21]: 12210
      0.00264 [    24]: 20211
ROOT  18:  E=   -2930.4861792208 Eh  2.669 eV  21524.0 cm**-1
      0.30014 [    10]: 11112
      0.24880 [    34]: 22110
      0.06636 [    18]: 12111
      0.06353 [    11]: 11121
      0.05146 [     2]: 01221
      0.03010 [    31]: 21210
      0.02931 [    33]: 22101
      0.02801 [    15]: 12012
      0.02061 [    21]: 12210
      0.01889 [     4]: 02121
      0.01786 [    28]: 21111
      0.01670 [    13]: 11211
      0.01349 [    19]: 12120
      0.01273 [     3]: 02112
      0.01221 [     0]: 01122
      0.00951 [    27]: 21102
      0.00872 [    17]: 12102
      0.00725 [    25]: 21012
      0.00625 [     9]: 11022
      0.00604 [    29]: 21120
      0.00554 [    32]: 22011
      0.00504 [    16]: 12021
      0.00400 [    14]: 11220
      0.00397 [    26]: 21021
      0.00335 [    20]: 12201
      0.00303 [     8]: 10221
      0.00256 [    22]: 20112
ROOT  19:  E=   -2930.4832754258 Eh  2.748 eV  22161.3 cm**-1
      0.22196 [    28]: 21111
      0.16798 [    13]: 11211
      0.15899 [    18]: 12111
      0.08252 [    32]: 22011
      0.07528 [     5]: 02211
      0.06548 [     0]: 01122
      0.02999 [    10]: 11112
      0.02326 [     8]: 10221
      0.02155 [    33]: 22101
      0.01871 [    20]: 12201
      0.01736 [    11]: 11121
      0.01386 [    19]: 12120
      0.01337 [    27]: 21102
      0.00985 [     9]: 11022
      0.00937 [    14]: 11220
      0.00877 [    21]: 12210
      0.00824 [    12]: 11202
      0.00505 [    23]: 20121
      0.00501 [    15]: 12012
      0.00500 [     7]: 10212
      0.00458 [     4]: 02121
      0.00411 [    34]: 22110
      0.00362 [     3]: 02112
      0.00356 [    22]: 20112
      0.00339 [    26]: 21021
      0.00335 [     1]: 01212
      0.00317 [    31]: 21210
      0.00269 [    29]: 21120
ROOT  20:  E=   -2930.4788261951 Eh  2.869 eV  23137.8 cm**-1
      0.38960 [    25]: 21012
      0.23680 [     1]: 01212
      0.06788 [     3]: 02112
      0.04919 [    10]: 11112
      0.04507 [    31]: 21210
      0.02926 [     9]: 11022
      0.02312 [    32]: 22011
      0.02180 [    13]: 11211
      0.02082 [    22]: 20112
      0.01885 [    28]: 21111
      0.01740 [    11]: 11121
      0.01381 [     5]: 02211
      0.01361 [    34]: 22110
      0.00950 [    15]: 12012
      0.00675 [    12]: 11202
      0.00619 [    14]: 11220
      0.00451 [    16]: 12021
      0.00402 [    33]: 22101
      0.00345 [    29]: 21120
      0.00273 [    19]: 12120
      0.00258 [     2]: 01221
ROOT  21:  E=   -2930.4678524080 Eh  3.167 eV  25546.3 cm**-1
      0.40934 [    18]: 12111
      0.25830 [    13]: 11211
      0.06466 [    28]: 21111
      0.04821 [    11]: 11121
      0.04556 [    32]: 22011
      0.04190 [    14]: 11220
      0.02765 [     5]: 02211
      0.02188 [    20]: 12201
      0.00966 [    17]: 12102
      0.00868 [     8]: 10221
      0.00716 [    12]: 11202
      0.00623 [     1]: 01212
      0.00593 [    15]: 12012
      0.00585 [     0]: 01122
      0.00523 [    21]: 12210
      0.00451 [    10]: 11112
      0.00435 [     2]: 01221
      0.00393 [    19]: 12120
      0.00357 [     9]: 11022
      0.00254 [    26]: 21021
ROOT  22:  E=   -2930.4673666382 Eh  3.181 eV  25652.9 cm**-1
      0.29009 [    10]: 11112
      0.20441 [    21]: 12210
      0.13391 [    15]: 12012
      0.04213 [    28]: 21111
      0.04211 [    25]: 21012
      0.03990 [     5]: 02211
      0.03867 [     3]: 02112
      0.03840 [    13]: 11211
      0.02421 [    31]: 21210
      0.02136 [     7]: 10212
      0.01947 [    20]: 12201
      0.01592 [    16]: 12021
      0.01425 [    32]: 22011
      0.01253 [    14]: 11220
      0.01239 [    11]: 11121
      0.00896 [    18]: 12111
      0.00632 [     6]: 10122
      0.00594 [    24]: 20211
      0.00551 [     9]: 11022
      0.00341 [    26]: 21021
      0.00340 [    33]: 22101
      0.00299 [    22]: 20112
      0.00289 [     8]: 10221
ROOT  23:  E=   -2930.4658189801 Eh  3.223 eV  25992.5 cm**-1
      0.23440 [    28]: 21111
      0.17244 [     5]: 02211
      0.14724 [    13]: 11211
      0.06581 [    18]: 12111
      0.05109 [     1]: 01212
      0.04306 [    21]: 12210
      0.03426 [    10]: 11112
      0.02741 [     2]: 01221
      0.02719 [    32]: 22011
      0.02281 [    31]: 21210
      0.02219 [    17]: 12102
      0.01921 [     0]: 01122
      0.01901 [    19]: 12120
      0.01896 [    34]: 22110
      0.01892 [    20]: 12201
      0.01638 [    12]: 11202
      0.01511 [    24]: 20211
      0.00845 [    29]: 21120
      0.00452 [     3]: 02112
      0.00450 [     7]: 10212
      0.00440 [    11]: 11121
      0.00375 [    27]: 21102
      0.00373 [    15]: 12012
      0.00362 [    26]: 21021
      0.00361 [     8]: 10221
ROOT  24:  E=   -2930.4593834704 Eh  3.398 eV  27405.0 cm**-1
      0.19446 [    13]: 11211
      0.15241 [    28]: 21111
      0.10298 [     0]: 01122
      0.09031 [    29]: 21120
      0.07144 [    31]: 21210
      0.06546 [    14]: 11220
      0.05935 [     2]: 01221
      0.04458 [     1]: 01212
      0.03746 [     9]: 11022
      0.02843 [    34]: 22110
      0.02724 [     5]: 02211
      0.01881 [    19]: 12120
      0.01812 [    18]: 12111
      0.01634 [    30]: 21201
      0.01310 [    21]: 12210
      0.01225 [    11]: 11121
      0.01016 [    33]: 22101
      0.00813 [    10]: 11112
      0.00680 [    24]: 20211
      0.00471 [    26]: 21021
      0.00456 [     4]: 02121
      0.00307 [    15]: 12012
ROOT  25:  E=   -2930.4572228751 Eh  3.457 eV  27879.2 cm**-1
      0.23258 [    13]: 11211
      0.21649 [     1]: 01212
      0.13387 [     2]: 01221
      0.09270 [    31]: 21210
      0.05447 [    14]: 11220
      0.04708 [     3]: 02112
      0.03625 [    18]: 12111
      0.02948 [    10]: 11112
      0.02742 [    34]: 22110
      0.02048 [    12]: 11202
      0.01850 [    25]: 21012
      0.01783 [    26]: 21021
      0.01333 [    21]: 12210
      0.00923 [     5]: 02211
      0.00697 [    17]: 12102
      0.00626 [     7]: 10212
      0.00620 [    15]: 12012
      0.00494 [     8]: 10221
      0.00432 [     4]: 02121
      0.00316 [    33]: 22101
      0.00308 [    28]: 21111
      0.00286 [    29]: 21120
      0.00276 [    11]: 11121
ROOT  26:  E=   -2930.4459629899 Eh  3.763 eV  30350.4 cm**-1
      0.21706 [    13]: 11211
      0.17560 [     0]: 01122
      0.14292 [    29]: 21120
      0.13523 [    28]: 21111
      0.06086 [     3]: 02112
      0.05751 [    31]: 21210
      0.04790 [     1]: 01212
      0.03584 [    18]: 12111
      0.02196 [     5]: 02211
      0.02065 [     2]: 01221
      0.01671 [     4]: 02121
      0.01409 [    30]: 21201
      0.01158 [     9]: 11022
      0.00560 [     6]: 10122
      0.00486 [    19]: 12120
      0.00424 [    24]: 20211
      0.00349 [    11]: 11121
      0.00349 [    17]: 12102
      0.00285 [    26]: 21021
      0.00266 [    20]: 12201
      0.00263 [    27]: 21102
ROOT  27:  E=   -2930.4433234965 Eh  3.835 eV  30929.7 cm**-1
      0.31261 [     2]: 01221
      0.09119 [     4]: 02121
      0.07409 [    26]: 21021
      0.06290 [    31]: 21210
      0.06049 [    10]: 11112
      0.05465 [     1]: 01212
      0.04607 [     3]: 02112
      0.03974 [     0]: 01122
      0.03615 [    34]: 22110
      0.03423 [    21]: 12210
      0.03303 [    13]: 11211
      0.02547 [    23]: 20121
      0.02451 [    18]: 12111
      0.02012 [     5]: 02211
      0.00918 [    20]: 12201
      0.00805 [    14]: 11220
      0.00799 [    11]: 11121
      0.00789 [     9]: 11022
      0.00760 [     7]: 10212
      0.00649 [    15]: 12012
      0.00560 [    30]: 21201
      0.00529 [    32]: 22011
      0.00462 [    19]: 12120
      0.00462 [    17]: 12102
      0.00410 [    33]: 22101
      0.00345 [    28]: 21111
      0.00336 [    25]: 21012
ROOT  28:  E=   -2930.4286414772 Eh  4.234 eV  34152.1 cm**-1
      0.26931 [    14]: 11220
      0.14300 [    13]: 11211
      0.13049 [    28]: 21111
      0.10884 [     9]: 11022
      0.08705 [     5]: 02211
      0.06709 [    19]: 12120
      0.02267 [    18]: 12111
      0.02262 [     6]: 10122
      0.02233 [     2]: 01221
      0.02096 [    11]: 11121
      0.01426 [    32]: 22011
      0.01353 [    10]: 11112
      0.01287 [    21]: 12210
      0.00955 [     4]: 02121
      0.00921 [    34]: 22110
      0.00656 [    26]: 21021
      0.00645 [    22]: 20112
      0.00433 [    15]: 12012
      0.00395 [    29]: 21120
      0.00360 [    24]: 20211
      0.00324 [    12]: 11202
      0.00313 [    30]: 21201
      0.00287 [     0]: 01122
ROOT  29:  E=   -2930.4240026747 Eh  4.361 eV  35170.2 cm**-1
      0.29635 [     3]: 02112
      0.18452 [    34]: 22110
      0.08633 [    25]: 21012
      0.07532 [    10]: 11112
      0.05330 [    21]: 12210
      0.04772 [    33]: 22101
      0.04446 [    31]: 21210
      0.02969 [    23]: 20121
      0.02869 [    29]: 21120
      0.01964 [    28]: 21111
      0.01695 [     5]: 02211
      0.01485 [    13]: 11211
      0.01379 [    20]: 12201
      0.00988 [     0]: 01122
      0.00966 [     2]: 01221
      0.00939 [     9]: 11022
      0.00815 [    27]: 21102
      0.00797 [    11]: 11121
      0.00752 [     4]: 02121
      0.00672 [    32]: 22011
      0.00579 [    18]: 12111
      0.00381 [    14]: 11220
      0.00310 [    26]: 21021
      0.00288 [    19]: 12120
ROOT  30:  E=   -2930.4181695836 Eh  4.519 eV  36450.4 cm**-1
      0.35809 [     5]: 02211
      0.21123 [    28]: 21111
      0.12530 [    32]: 22011
      0.06729 [     6]: 10122
      0.03756 [    21]: 12210
      0.02843 [     2]: 01221
      0.02351 [    15]: 12012
      0.02241 [    10]: 11112
      0.01989 [    20]: 12201
      0.01880 [    26]: 21021
      0.01713 [    24]: 20211
      0.01164 [    13]: 11211
      0.01157 [     1]: 01212
      0.01025 [    33]: 22101
      0.00690 [    16]: 12021
      0.00584 [    11]: 11121
      0.00384 [    25]: 21012
      0.00352 [    18]: 12111
      0.00298 [     7]: 10212
      0.00262 [     9]: 11022
      0.00257 [    30]: 21201
ROOT  31:  E=   -2930.4137598025 Eh  4.639 eV  37418.2 cm**-1
      0.57382 [     6]: 10122
      0.12960 [    10]: 11112
      0.10584 [    23]: 20121
      0.03944 [    28]: 21111
      0.02758 [    22]: 20112
      0.02220 [    11]: 11121
      0.02167 [    14]: 11220
      0.01074 [    19]: 12120
      0.01062 [    21]: 12210
      0.00917 [    13]: 11211
      0.00917 [     2]: 01221
      0.00850 [    32]: 22011
      0.00816 [     5]: 02211
      0.00802 [    17]: 12102
      0.00347 [    12]: 11202
ROOT  32:  E=   -2930.4113348912 Eh  4.705 eV  37950.4 cm**-1
      0.39414 [    23]: 20121
      0.11023 [    21]: 12210
      0.08596 [    28]: 21111
      0.07476 [     6]: 10122
      0.05735 [    15]: 12012
      0.03913 [     5]: 02211
      0.03617 [     8]: 10221
      0.03350 [    10]: 11112
      0.02873 [    14]: 11220
      0.01684 [    31]: 21210
      0.01592 [     2]: 01221
      0.01493 [    11]: 11121
      0.01464 [    20]: 12201
      0.01453 [    13]: 11211
      0.01072 [    29]: 21120
      0.01027 [    25]: 21012
      0.00605 [    32]: 22011
      0.00592 [    33]: 22101
      0.00580 [    16]: 12021
      0.00579 [     4]: 02121
      0.00530 [    22]: 20112
      0.00284 [     9]: 11022
ROOT  33:  E=   -2930.4078656521 Eh  4.800 eV  38711.8 cm**-1
      0.26233 [    21]: 12210
      0.17474 [    23]: 20121
      0.11484 [    15]: 12012
      0.07433 [    10]: 11112
      0.05206 [    25]: 21012
      0.03930 [    11]: 11121
      0.03580 [     3]: 02112
      0.02654 [     5]: 02211
      0.02498 [    28]: 21111
      0.02463 [     2]: 01221
      0.02047 [    16]: 12021
      0.01991 [    34]: 22110
      0.01887 [     8]: 10221
      0.01807 [    22]: 20112
      0.01335 [    32]: 22011
      0.01256 [    20]: 12201
      0.01051 [    14]: 11220
      0.00929 [     7]: 10212
      0.00856 [     6]: 10122
      0.00784 [    17]: 12102
      0.00750 [     9]: 11022
      0.00465 [    13]: 11211
      0.00407 [    27]: 21102
      0.00322 [    12]: 11202
      0.00305 [    31]: 21210
      0.00275 [    18]: 12111
ROOT  34:  E=   -2930.3877003621 Eh  5.348 eV  43137.6 cm**-1
      0.58927 [     8]: 10221
      0.11063 [    13]: 11211
      0.07597 [    11]: 11121
      0.06231 [    23]: 20121
      0.03263 [     7]: 10212
      0.02304 [    14]: 11220
      0.02172 [    31]: 21210
      0.01650 [    28]: 21111
      0.01276 [    24]: 20211
      0.01038 [     6]: 10122
      0.00863 [    10]: 11112
      0.00856 [    20]: 12201
      0.00783 [    18]: 12111
      0.00724 [     1]: 01212
      0.00266 [    25]: 21012
ROOT  35:  E=   -2930.3788968945 Eh  5.588 eV  45069.7 cm**-1
      0.40324 [    31]: 21210
      0.21805 [    25]: 21012
      0.19375 [     1]: 01212
      0.02679 [     8]: 10221
      0.01884 [    10]: 11112
      0.01438 [    22]: 20112
      0.01397 [    13]: 11211
      0.01306 [    14]: 11220
      0.00976 [    11]: 11121
      0.00908 [    21]: 12210
      0.00799 [    23]: 20121
      0.00739 [    12]: 11202
      0.00680 [     5]: 02211
      0.00647 [     9]: 11022
      0.00609 [    33]: 22101
      0.00524 [     6]: 10122
      0.00505 [    24]: 20211
      0.00450 [    16]: 12021
      0.00387 [     2]: 01221
      0.00380 [    32]: 22011
      0.00263 [    29]: 21120
      0.00251 [     7]: 10212
ROOT  36:  E=   -2930.3397789024 Eh  6.652 eV  53655.1 cm**-1
      0.62221 [    12]: 11202
      0.09204 [    30]: 21201
      0.06536 [     7]: 10212
      0.04234 [    17]: 12102
      0.03785 [    13]: 11211
      0.03723 [    27]: 21102
      0.01403 [     1]: 01212
      0.01394 [    14]: 11220
      0.01031 [    28]: 21111
      0.00845 [    10]: 11112
      0.00823 [    19]: 12120
      0.00799 [    33]: 22101
      0.00587 [    24]: 20211
      0.00418 [     8]: 10221
      0.00391 [    20]: 12201
      0.00371 [     6]: 10122
      0.00363 [    22]: 20112
      0.00360 [     9]: 11022
      0.00304 [    31]: 21210
ROOT  37:  E=   -2930.3195902361 Eh  7.202 eV  58086.0 cm**-1
      0.73209 [    30]: 21201
      0.06730 [    12]: 11202
      0.06205 [    24]: 20211
      0.03893 [    13]: 11211
      0.03084 [    33]: 22101
      0.01104 [     2]: 01221
      0.00911 [     7]: 10212
      0.00750 [    10]: 11112
      0.00567 [     1]: 01212
      0.00547 [     4]: 02121
      0.00535 [     8]: 10221
      0.00396 [    20]: 12201
      0.00391 [    28]: 21111
      0.00256 [    31]: 21210
ROOT  38:  E=   -2930.3130406029 Eh  7.380 eV  59523.5 cm**-1
      0.77465 [    27]: 21102
      0.07268 [    22]: 20112
      0.05073 [    12]: 11202
      0.02456 [    10]: 11112
      0.02437 [    28]: 21111
      0.01118 [    29]: 21120
      0.01006 [     0]: 01122
      0.00689 [    33]: 22101
      0.00509 [     7]: 10212
      0.00370 [    13]: 11211
      0.00310 [    23]: 20121
      0.00288 [    17]: 12102
ROOT  39:  E=   -2930.2872218529 Eh  8.083 eV  65190.1 cm**-1
      0.57977 [    16]: 12021
      0.16351 [    11]: 11121
      0.06773 [    15]: 12012
      0.06421 [     4]: 02121
      0.02556 [     8]: 10221
      0.02097 [    10]: 11112
      0.01545 [    18]: 12111
      0.01448 [     2]: 01221
      0.01263 [    19]: 12120
      0.00659 [    32]: 22011
      0.00340 [     9]: 11022
      0.00327 [    13]: 11211
      0.00326 [    26]: 21021
      0.00319 [    34]: 22110
      0.00258 [     7]: 10212
ROOT  40:  E=   -2930.2616035067 Eh  8.780 eV  70812.7 cm**-1
      0.61925 [    19]: 12120
      0.12950 [    14]: 11220
      0.11362 [    18]: 12111
      0.04158 [     4]: 02121
      0.02188 [    13]: 11211
      0.01653 [    21]: 12210
      0.01062 [     2]: 01221
      0.01057 [    17]: 12102
      0.00753 [    34]: 22110
      0.00751 [    11]: 11121
      0.00538 [    12]: 11202
      0.00447 [     3]: 02112
ROOT  41:  E=   -2930.2602540214 Eh  8.816 eV  71108.8 cm**-1
      0.64455 [     4]: 02121
      0.10693 [     2]: 01221
      0.05927 [     3]: 02112
      0.04423 [    16]: 12021
      0.03444 [    18]: 12111
      0.02614 [    11]: 11121
      0.02187 [    19]: 12120
      0.01217 [     5]: 02211
      0.00894 [    15]: 12012
      0.00853 [     1]: 01212
      0.00546 [    10]: 11112
      0.00429 [    13]: 11211
      0.00418 [     8]: 10221
      0.00397 [     0]: 01122
      0.00396 [    17]: 12102
      0.00308 [    14]: 11220
ROOT  42:  E=   -2930.1630864949 Eh 11.460 eV  92434.6 cm**-1
      0.48277 [     7]: 10212
      0.16513 [    22]: 20112
      0.08518 [    10]: 11112
      0.07277 [    24]: 20211
      0.03895 [    12]: 11202
      0.02773 [     8]: 10221
      0.02437 [    28]: 21111
      0.01761 [    13]: 11211
      0.01453 [    23]: 20121
      0.01423 [     6]: 10122
      0.01303 [    27]: 21102
      0.01161 [    25]: 21012
      0.00555 [    15]: 12012
      0.00522 [    11]: 11121
      0.00458 [    30]: 21201
      0.00319 [    17]: 12102
ROOT  43:  E=   -2930.1409447744 Eh 12.063 eV  97294.2 cm**-1
      0.61907 [    22]: 20112
      0.15700 [     7]: 10212
      0.04972 [    27]: 21102
      0.04805 [    25]: 21012
      0.02512 [    10]: 11112
      0.02452 [    24]: 20211
      0.02170 [    23]: 20121
      0.01966 [    28]: 21111
      0.01380 [    12]: 11202
      0.00586 [    13]: 11211
      0.00545 [     6]: 10122
ROOT  44:  E=   -2930.1380407283 Eh 12.142 eV  97931.6 cm**-1
      0.67778 [    24]: 20211
      0.09547 [    28]: 21111
      0.07282 [     7]: 10212
      0.05114 [    30]: 21201
      0.03019 [     8]: 10221
      0.01745 [    31]: 21210
      0.01246 [    13]: 11211
      0.00975 [    10]: 11112
      0.00777 [    12]: 11202
      0.00546 [    32]: 22011
      0.00363 [    11]: 11121
      0.00342 [    33]: 22101
      0.00305 [     6]: 10122
      0.00295 [    23]: 20121

                 <<<<<<<<<<<<<<<<<<INITIAL CI STATE CHECK>>>>>>>>>>>>>>>>>>

   E(CAS)= -2930.496951912 Eh DE=    0.000000e+00
   --- Energy gap subspaces: Ext-Act = 0.134   Act-Int = 0.071
   N(occ)=  1.20000 1.20000 1.20000 1.20000 1.20000
   ||g|| =     9.412379e-04 Max(G)=   -1.830088e-04 Rot=179,142
                     ---- THE CAS-SCF GRADIENT HAS CONVERGED ----
                            --- FINALIZING ORBITALS ---
                    ---- DOING ONE FINAL ITERATION FOR PRINTING ----
   --- Forming Natural Orbitals
   --- Canonicalize Internal Space
   --- Canonicalize External Space

MACRO-ITERATION   2: 
   --- Inactive Energy E0 = -2922.31775689 Eh
   --- All densities will be recomputed
CI-ITERATION   0: 
 -2930.591885829   0.000000000000 (    0.00)
 -2930.576967350   0.000000000000
 -2930.543497229   0.000000000000
 -2930.543219315   0.000000000000
 -2930.527212935   0.000000000000
   CI-PROBLEM SOLVED
   DENSITIES MADE
CI-ITERATION   0: 
 -2930.584249727   0.000000000000 (    0.00)
 -2930.566355821   0.000000000000
 -2930.563140320   0.000000000000
 -2930.562435457   0.000000000000
 -2930.544911240   0.000000000000
 -2930.537883628   0.000000000000
 -2930.536559227   0.000000000000
 -2930.528992980   0.000000000000
 -2930.528330420   0.000000000000
 -2930.527153302   0.000000000000
 -2930.521068158   0.000000000000
 -2930.516369258   0.000000000000
 -2930.515324788   0.000000000000
 -2930.504863932   0.000000000000
 -2930.502692310   0.000000000000
 -2930.499973400   0.000000000000
 -2930.497895152   0.000000000000
 -2930.493284953   0.000000000000
 -2930.486179221   0.000000000000
 -2930.483275426   0.000000000000
 -2930.478826196   0.000000000000
 -2930.467852408   0.000000000000
 -2930.467366639   0.000000000000
 -2930.465818980   0.000000000000
 -2930.459383471   0.000000000000
 -2930.457222875   0.000000000000
 -2930.445962990   0.000000000000
 -2930.443323497   0.000000000000
 -2930.428641478   0.000000000000
 -2930.424002675   0.000000000000
 -2930.418169584   0.000000000000
 -2930.413759803   0.000000000000
 -2930.411334892   0.000000000000
 -2930.407865653   0.000000000000
 -2930.387700363   0.000000000000
 -2930.378896895   0.000000000000
 -2930.339778903   0.000000000000
 -2930.319590236   0.000000000000
 -2930.313040603   0.000000000000
 -2930.287221853   0.000000000000
 -2930.261603507   0.000000000000
 -2930.260254022   0.000000000000
 -2930.163086495   0.000000000000
 -2930.140944775   0.000000000000
 -2930.138040729   0.000000000000
   CI-PROBLEM SOLVED
   DENSITIES MADE
   E(CAS)= -2930.496951913 Eh DE=   -4.592948e-10
   --- Energy gap subspaces: Ext-Act = 0.130   Act-Int = 0.069
   N(occ)=  1.20000 1.20000 1.20000 1.20000 1.20000
   ||g|| =     9.412380e-04 Max(G)=   -1.260158e-04 Rot=179,145
--------------
CASSCF RESULTS
--------------

Final CASSCF energy       : -2930.496951913 Eh  -79742.8761 eV

----------------
ORBITAL ENERGIES
----------------

  NO   OCC          E(Eh)            E(eV) 
   0   2.0000    -220.579693     -6002.2786 
   1   2.0000     -26.429898      -719.1941 
   2   2.0000     -22.362723      -608.5206 
   3   2.0000     -22.358754      -608.4126 
   4   2.0000     -22.353610      -608.2727 
   5   2.0000      -4.718594      -128.3995 
   6   2.0000      -4.718410      -128.3945 
   7   2.0000      -4.717642      -128.3736 
   8   2.0000      -4.716279      -128.3365 
   9   2.0000      -4.712064      -128.2218 
  10   2.0000      -4.711808      -128.2148 
  11   2.0000      -4.709164      -128.1429 
  12   2.0000      -4.709154      -128.1426 
  13   2.0000      -4.708220      -128.1172 
  14   2.0000      -4.708136      -128.1149 
  15   2.0000      -4.701700      -127.9398 
  16   2.0000      -4.699934      -127.8917 
  17   2.0000      -4.697800      -127.8336 
  18   2.0000      -4.697744      -127.8321 
  19   2.0000      -3.474281       -94.5400 
  20   2.0000      -2.758507       -75.0628 
  21   2.0000      -2.757184       -75.0268 
  22   2.0000      -2.756837       -75.0173 
  23   2.0000      -2.756748       -75.0149 
  24   2.0000      -2.755204       -74.9729 
  25   2.0000      -2.755007       -74.9675 
  26   2.0000      -2.753617       -74.9297 
  27   2.0000      -2.753354       -74.9226 
  28   2.0000      -2.752795       -74.9074 
  29   2.0000      -2.752625       -74.9027 
  30   2.0000      -2.751786       -74.8799 
  31   2.0000      -2.751524       -74.8728 
  32   2.0000      -2.751261       -74.8656 
  33   2.0000      -2.751039       -74.8596 
  34   2.0000      -2.749290       -74.8120 
  35   2.0000      -2.747760       -74.7704 
  36   2.0000      -2.747302       -74.7579 
  37   2.0000      -2.746535       -74.7370 
  38   2.0000      -2.746511       -74.7364 
  39   2.0000      -2.745167       -74.6998 
  40   2.0000      -2.745111       -74.6983 
  41   2.0000      -2.744418       -74.6794 
  42   2.0000      -2.743873       -74.6646 
  43   2.0000      -2.743497       -74.6543 
  44   2.0000      -2.743041       -74.6419 
  45   2.0000      -2.742449       -74.6258 
  46   2.0000      -2.742395       -74.6244 
  47   2.0000      -2.741749       -74.6068 
  48   2.0000      -2.741729       -74.6063 
  49   2.0000      -2.740911       -74.5840 
  50   2.0000      -2.740650       -74.5769 
  51   2.0000      -2.738048       -74.5061 
  52   2.0000      -2.737217       -74.4835 
  53   2.0000      -2.736261       -74.4574 
  54   2.0000      -2.735894       -74.4475 
  55   2.0000      -2.733313       -74.3772 
  56   2.0000      -2.732899       -74.3660 
  57   2.0000      -2.732187       -74.3466 
  58   2.0000      -2.731577       -74.3300 
  59   2.0000      -2.731304       -74.3226 
  60   2.0000      -2.731006       -74.3144 
  61   2.0000      -2.730936       -74.3126 
  62   2.0000      -2.234959       -60.8163 
  63   2.0000      -2.231208       -60.7142 
  64   2.0000      -2.225591       -60.5614 
  65   2.0000      -0.568454       -15.4684 
  66   2.0000      -0.556478       -15.1425 
  67   2.0000      -0.551930       -15.0188 
  68   2.0000      -0.549059       -14.9407 
  69   2.0000      -0.546692       -14.8762 
  70   2.0000      -0.544260       -14.8101 
  71   2.0000      -0.541295       -14.7294 
  72   2.0000      -0.541034       -14.7223 
  73   2.0000      -0.538509       -14.6536 
  74   2.0000      -0.538347       -14.6492 
  75   2.0000      -0.536529       -14.5997 
  76   2.0000      -0.533416       -14.5150 
  77   2.0000      -0.533163       -14.5081 
  78   2.0000      -0.532952       -14.5024 
  79   2.0000      -0.528217       -14.3735 
  80   2.0000      -0.528109       -14.3706 
  81   2.0000      -0.525540       -14.3007 
  82   2.0000      -0.519947       -14.1485 
  83   2.0000      -0.517251       -14.0751 
  84   2.0000      -0.516430       -14.0528 
  85   2.0000      -0.512727       -13.9520 
  86   2.0000      -0.512647       -13.9498 
  87   2.0000      -0.506804       -13.7908 
  88   2.0000      -0.506060       -13.7706 
  89   2.0000      -0.501444       -13.6450 
  90   2.0000      -0.499961       -13.6046 
  91   2.0000      -0.498556       -13.5664 
  92   2.0000      -0.493931       -13.4405 
  93   2.0000      -0.492576       -13.4037 
  94   2.0000      -0.488704       -13.2983 
  95   2.0000      -0.488630       -13.2963 
  96   2.0000      -0.486762       -13.2455 
  97   2.0000      -0.483785       -13.1645 
  98   2.0000      -0.479282       -13.0419 
  99   2.0000      -0.478499       -13.0206 
 100   2.0000      -0.476938       -12.9782 
 101   2.0000      -0.469900       -12.7866 
 102   2.0000      -0.468871       -12.7586 
 103   2.0000      -0.467846       -12.7307 
 104   2.0000      -0.465507       -12.6671 
 105   2.0000      -0.461043       -12.5456 
 106   2.0000      -0.459378       -12.5003 
 107   2.0000      -0.457313       -12.4441 
 108   2.0000      -0.453861       -12.3502 
 109   2.0000      -0.450980       -12.2718 
 110   2.0000      -0.449991       -12.2449 
 111   2.0000      -0.446634       -12.1535 
 112   2.0000      -0.446480       -12.1493 
 113   2.0000      -0.444678       -12.1003 
 114   2.0000      -0.443948       -12.0804 
 115   2.0000      -0.443449       -12.0669 
 116   2.0000      -0.441634       -12.0175 
 117   2.0000      -0.438836       -11.9413 
 118   2.0000      -0.437339       -11.9006 
 119   2.0000      -0.436468       -11.8769 
 120   2.0000      -0.434192       -11.8150 
 121   2.0000      -0.432233       -11.7617 
 122   2.0000      -0.427598       -11.6355 
 123   2.0000      -0.426258       -11.5991 
 124   2.0000      -0.425816       -11.5870 
 125   2.0000      -0.421057       -11.4576 
 126   2.0000      -0.420296       -11.4368 
 127   2.0000      -0.419495       -11.4150 
 128   2.0000      -0.419100       -11.4043 
 129   2.0000      -0.415718       -11.3123 
 130   2.0000      -0.412778       -11.2323 
 131   2.0000      -0.409385       -11.1399 
 132   2.0000      -0.405685       -11.0393 
 133   2.0000      -0.400300       -10.8927 
 134   2.0000      -0.389885       -10.6093 
 135   2.0000      -0.379019       -10.3136 
 136   2.0000      -0.371597       -10.1117 
 137   2.0000      -0.346635        -9.4324 
 138   2.0000      -0.337870        -9.1939 
 139   2.0000      -0.259827        -7.0703 
 140   2.0000      -0.240227        -6.5369 
 141   2.0000      -0.234404        -6.3785 
 142   1.2000      -0.149239        -4.0610 
 143   1.2000      -0.155186        -4.2228 
 144   1.2000      -0.165407        -4.5010 
 145   1.2000      -0.135897        -3.6979 
 146   1.2000      -0.158773        -4.3204 
 147   0.0000      -0.005883        -0.1601 
 148   0.0000      -0.000591        -0.0161 
 149   0.0000       0.005019         0.1366 
 150   0.0000       0.016315         0.4440 
 151   0.0000       0.022552         0.6137 
 152   0.0000       0.030095         0.8189 
 153   0.0000       0.036695         0.9985 
 154   0.0000       0.043044         1.1713 
 155   0.0000       0.046948         1.2775 
 156   0.0000       0.056632         1.5410 
 157   0.0000       0.057419         1.5625 
 158   0.0000       0.061186         1.6649 
 159   0.0000       0.064303         1.7498 
 160   0.0000       0.074841         2.0365 
 161   0.0000       0.084969         2.3121 
 162   0.0000       0.091356         2.4859 
 163   0.0000       0.109622         2.9830 
 164   0.0000       0.113266         3.0821 
 165   0.0000       0.121325         3.3014 
 166   0.0000       0.125689         3.4202 
 167   0.0000       0.129551         3.5253 
 168   0.0000       0.129790         3.5318 
 169   0.0000       0.130704         3.5566 
 170   0.0000       0.138621         3.7721 
 171   0.0000       0.138693         3.7740 
 172   0.0000       0.146846         3.9959 
 173   0.0000       0.147637         4.0174 
 174   0.0000       0.149681         4.0730 
 175   0.0000       0.150547         4.0966 
 176   0.0000       0.152075         4.1382 
 177   0.0000       0.157503         4.2859 
 178   0.0000       0.159272         4.3340 
 179   0.0000       0.167801         4.5661 
 180   0.0000       0.172955         4.7063 
 181   0.0000       0.180364         4.9080 
 182   0.0000       0.183126         4.9831 
 183   0.0000       0.187319         5.0972 
 184   0.0000       0.190742         5.1904 
 185   0.0000       0.193990         5.2787 
 186   0.0000       0.195369         5.3163 
 187   0.0000       0.196932         5.3588 
 188   0.0000       0.206370         5.6156 
 189   0.0000       0.207815         5.6549 
 190   0.0000       0.216737         5.8977 
 191   0.0000       0.229804         6.2533 
 192   0.0000       0.230002         6.2587 
 193   0.0000       0.241129         6.5615 
 194   0.0000       0.241959         6.5840 
 195   0.0000       0.244333         6.6486 
 196   0.0000       0.247814         6.7434 
 197   0.0000       0.251917         6.8550 
 198   0.0000       0.253256         6.8915 
 199   0.0000       0.256900         6.9906 
 200   0.0000       0.260896         7.0993 
 201   0.0000       0.273687         7.4474 
 202   0.0000       0.277247         7.5443 
 203   0.0000       0.285129         7.7587 
 204   0.0000       0.288666         7.8550 
 205   0.0000       0.358383         9.7521 
 206   0.0000       0.364659         9.9229 
 207   0.0000       0.365303         9.9404 
 208   0.0000       0.381097        10.3702 
 209   0.0000       0.382221        10.4008 
 210   0.0000       0.392315        10.6754 
 211   0.0000       0.392592        10.6830 
 212   0.0000       0.396580        10.7915 
 213   0.0000       0.398220        10.8361 
 214   0.0000       0.403777        10.9873 
 215   0.0000       0.410973        11.1832 
 216   0.0000       0.412220        11.2171 
 217   0.0000       0.418288        11.3822 
 218   0.0000       0.421051        11.4574 
 219   0.0000       0.424993        11.5647 
 220   0.0000       0.434343        11.8191 
 221   0.0000       0.435804        11.8588 
[...]
 3 117   68599.3    145.8   0.000000000   0.00002   0.00045   0.00390   0.00146
 3 118   68635.7    145.7   0.000000000   0.00002   0.00165   0.00364   0.00152
 3 119   68663.3    145.6   0.000000000   0.00005   0.00417   0.00523   0.00288
 3 120   68703.9    145.6   0.000000000   0.00012   0.00004   0.01062   0.00288
 3 121   68709.7    145.5   0.000000000   0.00028   0.00029   0.01573   0.00559
 3 122   70318.2    142.2   0.000000000   0.00163   0.02943   0.00681   0.02683
 3 123   70320.6    142.2   0.000000000   0.00002   0.00310   0.00117   0.00229
 3 124   70320.9    142.2   0.000000000   0.00598   0.05705   0.01221   0.05074
 3 125   71338.7    140.2   0.000000000   0.00001   0.00138   0.00111   0.00166
 3 126   71339.2    140.2   0.000000000   0.00001   0.00157   0.00107   0.00229
 3 127   71342.8    140.2   0.000000000   0.00000   0.00028   0.00097   0.00079
 3 128   71346.2    140.2   0.000000000   0.00007   0.00298   0.00790   0.00031
 3 129   71346.8    140.2   0.000000000   0.00002   0.00001   0.00447   0.00175
 3 130   74206.5    134.8   0.000000000   0.00001   0.00009   0.00369   0.00047
 3 131   74214.3    134.7   0.000000000   0.00013   0.00385   0.00373   0.01008
 3 132   74237.3    134.7   0.000000000   0.00000   0.00001   0.00092   0.00027
 3 133   74601.8    134.0   0.000000000   0.00004   0.00205   0.00196   0.00543
 3 134   74633.5    134.0   0.000000000   0.00001   0.00119   0.00193   0.00293
 3 135   74633.8    134.0   0.000000000   0.00161   0.01358   0.01282   0.03552
 3 136   76786.8    130.2   0.000000000   0.00000   0.00006   0.00007   0.00063
 3 137   76790.1    130.2   0.000000000   0.00009   0.00029   0.00858   0.00398
 3 138   76792.6    130.2   0.000000000   0.00001   0.00008   0.00337   0.00152
 3 139   77340.8    129.3   0.000000000   0.00482   0.00229   0.06637   0.02024
 3 140   77341.6    129.3   0.000000000   0.00002   0.00038   0.00408   0.00110
 3 141   77341.7    129.3   0.000000000   0.00225   0.00160   0.04538   0.01387
 3 142   84248.4    118.7   0.000000000   0.00956   0.00155   0.09200   0.03312
 3 143   84248.6    118.7   0.000000000   0.00001   0.00083   0.00345   0.00079
 3 144   84248.9    118.7   0.000000000   0.01308   0.00179   0.10761   0.03864
 3 145  165873.8     60.3   0.000000000   0.00001   0.00042   0.00233   0.00108
 3 146  165873.8     60.3   0.000000000   0.00066   0.01386   0.01361   0.01671
 3 147  165874.0     60.3   0.000000000   0.00005   0.00398   0.00393   0.00482
 3 148  233565.6     42.8   0.000000000   0.14234   0.01374   0.35791   0.11855
 3 149  233565.7     42.8   0.000000000   0.26294   0.01867   0.48645   0.16113
 3 150  233565.7     42.8   0.000000000   0.00000   0.00007   0.00110   0.00036
 3 151  319070.5     31.3   0.000000000   0.00029   0.00084   0.01621   0.00488
 3 152  319070.6     31.3   0.000000000   0.00000   0.00003   0.00098   0.00025
 3 153  319070.8     31.3   0.000000000   0.00013   0.00056   0.01071   0.00322
 3 154  363800.0     27.5   0.000000000   0.00001   0.00133   0.00132   0.00266
 3 155  363800.3     27.5   0.000000000   0.00000   0.00028   0.00043   0.00061
 3 156  363800.3     27.5   0.000000000   0.00001   0.00151   0.00146   0.00300
 3 157  575337.7     17.4   0.000000000   0.00000   0.00027   0.00014   0.00031
 3 158  575337.8     17.4   0.000000000   0.00000   0.00002   0.00019   0.00008
 3 159  575337.8     17.4   0.000000000   0.00035   0.00051   0.01782   0.00587
 4  5       0.5   21659471.0   0.000000000   0.00000   0.00000   0.00001   0.00000
 4  6   27057.2    369.6   0.000000000   0.00000   0.00060   0.00015   0.00075
 4  7   27058.6    369.6   0.000000000   0.00002   0.00128   0.00410   0.00022
 4  8   27059.4    369.6   0.000000000   0.03272   0.00755   0.17017   0.06091
 4  9   31345.6    319.0   0.000000000   0.00000   0.00089   0.00012   0.00071
 4 10   31345.7    319.0   0.000000000   0.00000   0.00002   0.00021   0.00008
 4 11   31346.2    319.0   0.000000000   0.00000   0.00009   0.00092   0.00037
 4 12   31347.0    319.0   0.000000000   0.00000   0.00002   0.00003   0.00006
 4 13   31347.0    319.0   0.000000000   0.00000   0.00013   0.00005   0.00007
 4 14   32443.0    308.2   0.000000000   0.00258   0.00163   0.04639   0.02052
 4 15   32445.2    308.2   0.000000000   0.00016   0.00632   0.00266   0.01072
 4 16   32460.5    308.1   0.000000000   0.00000   0.00022   0.00080   0.00012
 4 17   32978.3    303.2   0.000000000   0.00000   0.00047   0.00025   0.00108
 4 18   32993.8    303.1   0.000000000   0.00013   0.00214   0.00825   0.00777
 4 19   32994.2    303.1   0.000000000   0.00513   0.03743   0.02175   0.05705
 4 20   43499.5    229.9   0.000000000   0.00020   0.00156   0.00315   0.01370
 4 21   43500.0    229.9   0.000000000   0.00084   0.00228   0.02702   0.01005
 4 22   43504.1    229.9   0.000000000   0.00001   0.00002   0.00337   0.00101
 4 23   43657.0    229.1   0.000000000   0.00004   0.00077   0.00054   0.00605
 4 24   43661.8    229.0   0.000000000   0.00597   0.01186   0.02279   0.07284
 4 25   43663.0    229.0   0.000000000   0.00003   0.00006   0.00382   0.00436
 4 26   44730.6    223.6   0.000000000   0.00017   0.00041   0.01232   0.00440
 4 27   44730.8    223.6   0.000000000   0.00001   0.00188   0.00170   0.00265
 4 28   44731.5    223.6   0.000000000   0.00000   0.00021   0.00015   0.00041
 4 29   44770.3    223.4   0.000000000   0.00000   0.00001   0.00022   0.00004
 4 30   44770.9    223.4   0.000000000   0.00000   0.00030   0.00018   0.00060
 4 31   44771.1    223.4   0.000000000   0.00000   0.00000   0.00030   0.00012
 4 32   44773.2    223.3   0.000000000   0.00000   0.00056   0.00010   0.00081
 4 33   44773.2    223.3   0.000000000   0.00000   0.00016   0.00059   0.00006
 4 34   48632.7    205.6   0.000000000   0.00134   0.00305   0.03551   0.00839
 4 35   48632.8    205.6   0.000000000   0.00263   0.03661   0.00877   0.03479
 4 36   48669.0    205.5   0.000000000   0.00000   0.00003   0.00086   0.00062
 4 37   48901.9    204.5   0.000000000   0.00001   0.00248   0.00093   0.00230
 4 38   48938.8    204.3   0.000000000   0.00021   0.00047   0.01349   0.00496
 4 39   48940.7    204.3   0.000000000   0.01945   0.09888   0.03050   0.09349
 4 40   51692.9    193.5   0.000000000   0.01547   0.07547   0.03281   0.09328
 4 41   51694.2    193.4   0.000000000   0.00001   0.00030   0.00230   0.00125
 4 42   51695.0    193.4   0.000000000   0.00001   0.00147   0.00043   0.00226
 4 43   53188.3    188.0   0.000000000   0.00001   0.00112   0.00133   0.00216
 4 44   53188.6    188.0   0.000000000   0.00984   0.00089   0.09411   0.03141
 4 45   53188.8    188.0   0.000000000   0.00000   0.00127   0.00077   0.00071
 4 46   55314.7    180.8   0.000000000   0.00033   0.00997   0.00583   0.01399
 4 47   55316.0    180.8   0.000000000   0.00118   0.00108   0.03140   0.01375
 4 48   55319.5    180.8   0.000000000   0.00001   0.00125   0.00089   0.00208
 4 49   55631.1    179.8   0.000000000   0.00005   0.00347   0.00234   0.00562
 4 50   55635.0    179.7   0.000000000   0.02695   0.08050   0.04669   0.13526
 4 51   55635.1    179.7   0.000000000   0.00030   0.00837   0.00785   0.01297
 4 52   57414.8    174.2   0.000000000   0.00029   0.00235   0.00029   0.01676
 4 53   57415.0    174.2   0.000000000   0.00000   0.00032   0.00062   0.00021
 4 54   57417.4    174.2   0.000000000   0.00000   0.00015   0.00191   0.00031
 4 55   57879.9    172.8   0.000000000   0.00000   0.00207   0.00033   0.00043
 4 56   57882.5    172.8   0.000000000   0.00024   0.00396   0.01218   0.00854
 4 57   57891.1    172.7   0.000000000   0.00000   0.00131   0.00044   0.00050
 4 58   58455.8    171.1   0.000000000   0.00000   0.00017   0.00012   0.00034
 4 59   58463.9    171.0   0.000000000   0.00000   0.00041   0.00141   0.00113
 4 60   58464.6    171.0   0.000000000   0.00043   0.00471   0.00601   0.01924
 4 61   59437.8    168.2   0.000000000   0.00001   0.00031   0.00262   0.00230
 4 62   59438.2    168.2   0.000000000   0.00044   0.00105   0.01985   0.00680
 4 63   59440.3    168.2   0.000000000   0.00001   0.00164   0.00181   0.00253
 4 64   62207.2    160.8   0.000000000   0.00005   0.00131   0.00350   0.00569
 4 65   62210.6    160.7   0.000000000   0.00002   0.00106   0.00220   0.00413
 4 66   62269.6    160.6   0.000000000   0.09107   0.10578   0.09546   0.26602
 4 67   62273.6    160.6   0.000000000   0.01790   0.04334   0.03632   0.12124
 4 68   62330.6    160.4   0.000000000   0.00007   0.00153   0.00797   0.00117
 4 69   62333.1    160.4   0.000000000   0.00002   0.00137   0.00057   0.00415
 4 70   62704.9    159.5   0.000000000   0.00000   0.00014   0.00174   0.00110
 4 71   62706.6    159.5   0.000000000   0.00001   0.00044   0.00242   0.00167
 4 72   62710.9    159.5   0.000000000   0.00005   0.00730   0.00087   0.00034
 4 73   63312.5    157.9   0.000000000   0.00142   0.02222   0.00755   0.02949
 4 74   63322.5    157.9   0.000000000   0.00000   0.00013   0.00113   0.00068
 4 75   63324.1    157.9   0.000000000   0.00000   0.00042   0.00100   0.00099
 4 76   64022.1    156.2   0.000000000   0.00011   0.00660   0.00312   0.00772
 4 77   64024.5    156.2   0.000000000   0.00013   0.00683   0.00366   0.00819
 4 78   64028.4    156.2   0.000000000   0.01846   0.00560   0.12874   0.04308
 4 79   64310.3    155.5   0.000000000   0.00001   0.00377   0.00020   0.00020
 4 80   64311.7    155.5   0.000000000   0.00163   0.00123   0.03785   0.01415
 4 81   64313.8    155.5   0.000000000   0.00005   0.00036   0.00286   0.00636
 4 82   64921.0    154.0   0.000000000   0.00000   0.00155   0.00034   0.00117
 4 83   64923.2    154.0   0.000000000   0.00008   0.00163   0.00823   0.00353
 4 84   64962.3    153.9   0.000000000   0.01870   0.11626   0.02623   0.06704
 4 85   65030.4    153.8   0.000000000   0.00211   0.00255   0.01185   0.04433
 4 86   65072.1    153.7   0.000000000   0.00000   0.00147   0.00043   0.00029
 4 87   65073.5    153.7   0.000000000   0.00004   0.00043   0.00557   0.00315
 4 88   66019.7    151.5   0.000000000   0.00009   0.00007   0.00864   0.00350
 4 89   66020.4    151.5   0.000000000   0.00126   0.01991   0.00850   0.02813
 4 90   66023.1    151.5   0.000000000   0.00000   0.00012   0.00119   0.00010
 4 91   67287.2    148.6   0.000000000   0.00004   0.00352   0.00178   0.00481
 4 92   67289.8    148.6   0.000000000   0.00029   0.00722   0.00585   0.01420
 4 93   67302.3    148.6   0.000000000   0.01571   0.00347   0.11821   0.04151
 4 94   67313.7    148.6   0.000000000   0.00324   0.01719   0.01654   0.05168
 4 95   67316.4    148.6   0.000000000   0.00023   0.00178   0.01494   0.00090
 4 96   67317.9    148.5   0.000000000   0.00023   0.00054   0.01442   0.00485
 4 97   67546.4    148.0   0.000000000   0.00028   0.00005   0.01658   0.00263
 4 98   67546.7    148.0   0.000000000   0.00034   0.00205   0.01819   0.00035
 4 99   67551.8    148.0   0.000000000   0.00013   0.00284   0.00389   0.01021
 4 100   67824.3    147.4   0.000000000   0.00000   0.00090   0.00089   0.00075
 4 101   67824.3    147.4   0.000000000   0.00001   0.00226   0.00067   0.00119
 4 102   67845.9    147.4   0.000000000   0.00007   0.00026   0.00820   0.00258
 4 103   67851.6    147.4   0.000000000   0.00001   0.00035   0.00266   0.00210
 4 104   67859.0    147.4   0.000000000   0.00000   0.00035   0.00043   0.00174
 4 105   67979.1    147.1   0.000000000   0.00417   0.05607   0.00495   0.03166
 4 106   67981.4    147.1   0.000000000   0.00026   0.00527   0.01495   0.00210
 4 107   67990.1    147.1   0.000000000   0.00003   0.00197   0.00411   0.00213
 4 108   68317.0    146.4   0.000000000   0.00047   0.00708   0.01973   0.00515
 4 109   68323.5    146.4   0.000000000   0.00036   0.00302   0.01791   0.00524
 4 110   68331.2    146.3   0.000000000   0.00006   0.00180   0.00722   0.00152
 4 111   68351.1    146.3   0.000000000   0.00001   0.00039   0.00323   0.00174
 4 112   68351.6    146.3   0.000000000   0.00002   0.00140   0.00378   0.00079
 4 113   68532.0    145.9   0.000000000   0.00072   0.00177   0.02567   0.00783
 4 114   68534.8    145.9   0.000000000   0.03075   0.00716   0.16665   0.05410
 4 115   68535.9    145.9   0.000000000   0.00002   0.00003   0.00440   0.00055
 4 116   68595.8    145.8   0.000000000   0.00001   0.00162   0.00055   0.00151
 4 117   68599.1    145.8   0.000000000   0.00002   0.00194   0.00282   0.00227
 4 118   68635.5    145.7   0.000000000   0.00002   0.00043   0.00473   0.00033
 4 119   68663.1    145.6   0.000000000   0.00033   0.00027   0.01718   0.00548
 4 120   68703.7    145.6   0.000000000   0.00001   0.00086   0.00318   0.00191
 4 121   68709.5    145.5   0.000000000   0.00004   0.00530   0.00121   0.00372
 4 122   70318.1    142.2   0.000000000   0.00044   0.01520   0.00065   0.01455
 4 123   70320.4    142.2   0.000000000   0.00698   0.06150   0.01402   0.05478
 4 124   70320.7    142.2   0.000000000   0.00023   0.01121   0.00202   0.01008
 4 125   71338.5    140.2   0.000000000   0.00001   0.00081   0.00287   0.00027
 4 126   71339.0    140.2   0.000000000   0.00000   0.00075   0.00060   0.00105
 4 127   71342.6    140.2   0.000000000   0.00002   0.00111   0.00289   0.00254
 4 128   71346.0    140.2   0.000000000   0.00003   0.00033   0.00466   0.00212
 4 129   71346.6    140.2   0.000000000   0.00009   0.00328   0.00882   0.00037
 4 130   74206.3    134.8   0.000000000   0.00014   0.00398   0.00372   0.01029
 4 131   74214.1    134.7   0.000000000   0.00001   0.00015   0.00383   0.00041
 4 132   74237.1    134.7   0.000000000   0.00000   0.00010   0.00044   0.00032
 4 133   74601.6    134.0   0.000000000   0.00001   0.00104   0.00163   0.00257
 4 134   74633.3    134.0   0.000000000   0.00164   0.01367   0.01291   0.03582
 4 135   74633.6    134.0   0.000000000   0.00001   0.00105   0.00172   0.00258
 4 136   76786.6    130.2   0.000000000   0.00010   0.00031   0.00914   0.00433
 4 137   76789.9    130.2   0.000000000   0.00000   0.00003   0.00020   0.00034
 4 138   76792.4    130.2   0.000000000   0.00000   0.00008   0.00076   0.00113
 4 139   77340.6    129.3   0.000000000   0.00000   0.00039   0.00088   0.00132
 4 140   77341.4    129.3   0.000000000   0.00705   0.00279   0.08026   0.02459
 4 141   77341.5    129.3   0.000000000   0.00004   0.00010   0.00594   0.00001
 4 142   84248.2    118.7   0.000000000   0.00004   0.00069   0.00636   0.00034
 4 143   84248.4    118.7   0.000000000   0.02262   0.00232   0.14148   0.05093
 4 144   84248.7    118.7   0.000000000   0.00000   0.00169   0.00091   0.00078
 4 145  165873.6     60.3   0.000000000   0.00072   0.01442   0.01441   0.01746
 4 146  165873.6     60.3   0.000000000   0.00000   0.00048   0.00055   0.00060
 4 147  165873.8     60.3   0.000000000   0.00005   0.00015   0.00658   0.00183
 4 148  233565.4     42.8   0.000000000   0.00026   0.00030   0.01551   0.00473
 4 149  233565.5     42.8   0.000000000   0.00011   0.00031   0.01005   0.00303
 4 150  233565.5     42.8   0.000000000   0.40486   0.02318   0.60361   0.19995
 4 151  319070.3     31.3   0.000000000   0.00000   0.00001   0.00118   0.00039
 4 152  319070.4     31.3   0.000000000   0.00041   0.00101   0.01942   0.00584
 4 153  319070.6     31.3   0.000000000   0.00000   0.00006   0.00001   0.00013
 4 154  363799.8     27.5   0.000000000   0.00000   0.00002   0.00031   0.00008
 4 155  363800.1     27.5   0.000000000   0.00002   0.00199   0.00199   0.00399
 4 156  363800.1     27.5   0.000000000   0.00000   0.00039   0.00030   0.00074
 4 157  575337.5     17.4   0.000000000   0.00035   0.00052   0.01781   0.00587
 4 158  575337.6     17.4   0.000000000   0.00000   0.00001   0.00067   0.00026
 4 159  575337.6     17.4   0.000000000   0.00000   0.00026   0.00013   0.00031

------------------------------------------------------------------------------
                           SOC CORRECTED DIPOLE MOMENTS
------------------------------------------------------------------------------
      TX        TY        TZ           |T|
   (Debye)   (Debye)   (Debye)      (Debye)
------------------------------------------------------------------------------
  87.81165  -0.06994 -10.70046     88.46124

--------------
CASSCF TIMINGS
--------------

Total time                       ...     4655.5 sec
Sum of individual times          ...     4661.4 sec (100.1%)

Calculation of AO operators
   F(Core) operator              ...       31.9 sec (  0.7%)
   G(Act) operator               ...       30.6 sec (  0.7%)
   J(AO) operators               ...        0.0 sec (  0.0%)
Calculation of MO transformed quantities
   J(MO) operators               ...        3.8 sec (  0.1%)
   (pq|rs) integrals             ...        0.0 sec (  0.0%)
   AO->MO one electron integrals ...        0.1 sec (  0.0%)
Configuration interaction steps
   CI-setup phase                ...        0.0 sec (  0.0%)
   CI-solution phase             ...        0.1 sec (  0.0%)
   Generation of densities       ...        0.0 sec (  0.0%)
Orbital improvement steps
   Orbital gradient              ...        1.5 sec (  0.0%)
PT2 
   NEVPT2 time                   ...     4566.3 sec ( 98.1%)
Properties                       ...       14.3 sec (  0.3%)
   SOC integral calculation      ...       12.9 sec (  0.3%)
   SSC RMEs (incl. integrals)    ...        0.0 sec (  0.0%)
   SOC RMEs                      ...        0.1 sec (  0.0%)

Maximum memory used throughout the entire CASSCF-calculation: 1658.7 MB

-------------------------   --------------------
FINAL SINGLE POINT ENERGY     -2937.575285726912
-------------------------   --------------------


                            ***************************************
                            *     ORCA property calculations      *
                            ***************************************

                                    ---------------------
                                    Active property flags
                                    ---------------------
   (+) Dipole Moment


------------------------------------------------------------------------------
                       ORCA ELECTRIC PROPERTIES CALCULATION
------------------------------------------------------------------------------

Dipole Moment Calculation                       ... on
Quadrupole Moment Calculation                   ... off
Polarizability Calculation                      ... off
GBWName                                         ... nevpt2.gbw
Electron density                                ... nevpt2.scfp
The origin for moment calculation is the CENTER OF MASS  = (16.456434, 15.932638 13.640240)

-------------
DIPOLE MOMENT
-------------
                                X             Y             Z
Electronic contribution:    -34.06166       0.10097       4.36267
Nuclear contribution   :     34.54706      -0.02752      -4.20980
                        -----------------------------------------
Total Dipole Moment    :      0.48540       0.07346       0.15287
                        -----------------------------------------
Magnitude (a.u.)       :      0.51417
Magnitude (Debye)      :      1.30693



--------------------
Rotational spectrum 
--------------------
 
Rotational constants in cm-1:     0.001271     0.000888     0.000839 
Rotational constants in MHz :    38.115682    26.617965    25.162090 

 Dipole components along the rotational axes: 
x,y,z [a.u.] :     0.470540    -0.004060     0.207244 
x,y,z [Debye]:     1.196017    -0.010319     0.526773 

 

Timings for individual modules:

Sum of individual times         ...     4672.338 sec (=  77.872 min)
GTO integral calculation        ...        9.807 sec (=   0.163 min)   0.2 %
SCF iterations                  ...        4.002 sec (=   0.067 min)   0.1 %
CASSCF iterations               ...     4658.528 sec (=  77.642 min)  99.7 %
                             ****ORCA TERMINATED NORMALLY****
TOTAL RUN TIME: 0 days 1 hours 17 minutes 52 seconds 941 msec
