
                                 *****************
                                 * O   R   C   A *
                                 *****************

                                            #,                                       
                                            ###                                      
                                            ####                                     
                                            #####                                    
                                            ######                                   
                                           ########,                                 
                                     ,,################,,,,,                         
                               ,,#################################,,                 
                          ,,##########################################,,             
                       ,#########################################, ''#####,          
                    ,#############################################,,   '####,        
                  ,##################################################,,,,####,       
                ,###########''''           ''''###############################       
              ,#####''   ,,,,##########,,,,          '''####'''          '####       
            ,##' ,,,,###########################,,,                        '##       
           ' ,,###''''                  '''############,,,                           
         ,,##''                                '''############,,,,        ,,,,,,###''
      ,#''                                            '''#######################'''  
     '                                                          ''''####''''         
             ,#######,   #######,   ,#######,      ##                                
            ,#'     '#,  ##    ##  ,#'     '#,    #''#        ######   ,####,        
            ##       ##  ##   ,#'  ##            #'  '#       #        #'  '#        
            ##       ##  #######   ##           ,######,      #####,   #    #        
            '#,     ,#'  ##    ##  '#,     ,#' ,#      #,         ##   #,  ,#        
             '#######'   ##     ##  '#######'  #'      '#     #####' # '####'        



                  #######################################################
                  #                        -***-                        #
                  #          Department of theory and spectroscopy      #
                  #    Directorship and core code : Frank Neese         #
                  #        Max Planck Institute fuer Kohlenforschung    #
                  #                Kaiser Wilhelm Platz 1               #
                  #                 D-45470 Muelheim/Ruhr               #
                  #                      Germany                        #
                  #                                                     #
                  #                  All rights reserved                #
                  #                        -***-                        #
                  #######################################################


                         Program Version 5.0.3 -  RELEASE  -


 With contributions from (in alphabetic order):
   Daniel Aravena         : Magnetic Suceptibility
   Michael Atanasov       : Ab Initio Ligand Field Theory (pilot matlab implementation)
   Alexander A. Auer      : GIAO ZORA, VPT2 properties, NMR spectrum
   Ute Becker             : Parallelization
   Giovanni Bistoni       : ED, misc. LED, open-shell LED, HFLD
   Martin Brehm           : Molecular dynamics
   Dmytro Bykov           : SCF Hessian
   Vijay G. Chilkuri      : MRCI spin determinant printing, contributions to CSF-ICE
   Dipayan Datta          : RHF DLPNO-CCSD density
   Achintya Kumar Dutta   : EOM-CC, STEOM-CC
   Dmitry Ganyushin       : Spin-Orbit,Spin-Spin,Magnetic field MRCI
   Miquel Garcia          : C-PCM and meta-GGA Hessian, CC/C-PCM, Gaussian charge scheme
   Yang Guo               : DLPNO-NEVPT2, F12-NEVPT2, CIM, IAO-localization
   Andreas Hansen         : Spin unrestricted coupled pair/coupled cluster methods
   Benjamin Helmich-Paris : MC-RPA, TRAH-SCF, COSX integrals
   Lee Huntington         : MR-EOM, pCC
   Robert Izsak           : Overlap fitted RIJCOSX, COSX-SCS-MP3, EOM
   Marcus Kettner         : VPT2
   Christian Kollmar      : KDIIS, OOCD, Brueckner-CCSD(T), CCSD density, CASPT2, CASPT2-K
   Simone Kossmann        : Meta GGA functionals, TD-DFT gradient, OOMP2, MP2 Hessian
   Martin Krupicka        : Initial AUTO-CI
   Lucas Lang             : DCDCAS
   Marvin Lechner         : AUTO-CI (C++ implementation), FIC-MRCC
   Dagmar Lenk            : GEPOL surface, SMD
   Dimitrios Liakos       : Extrapolation schemes; Compound Job, initial MDCI parallelization
   Dimitrios Manganas     : Further ROCIS development; embedding schemes
   Dimitrios Pantazis     : SARC Basis sets
   Anastasios Papadopoulos: AUTO-CI, single reference methods and gradients
   Taras Petrenko         : DFT Hessian,TD-DFT gradient, ASA, ECA, R-Raman, ABS, FL, XAS/XES, NRVS
   Peter Pinski           : DLPNO-MP2, DLPNO-MP2 Gradient
   Christoph Reimann      : Effective Core Potentials
   Marius Retegan         : Local ZFS, SOC
   Christoph Riplinger    : Optimizer, TS searches, QM/MM, DLPNO-CCSD(T), (RO)-DLPNO pert. Triples
   Tobias Risthaus        : Range-separated hybrids, TD-DFT gradient, RPA, STAB
   Michael Roemelt        : Original ROCIS implementation
   Masaaki Saitow         : Open-shell DLPNO-CCSD energy and density
   Barbara Sandhoefer     : DKH picture change effects
   Avijit Sen             : IP-ROCIS
   Kantharuban Sivalingam : CASSCF convergence, NEVPT2, FIC-MRCI
   Bernardo de Souza      : ESD, SOC TD-DFT
   Georgi Stoychev        : AutoAux, RI-MP2 NMR, DLPNO-MP2 response
   Willem Van den Heuvel  : Paramagnetic NMR
   Boris Wezisla          : Elementary symmetry handling
   Frank Wennmohs         : Technical directorship


 We gratefully acknowledge several colleagues who have allowed us to
 interface, adapt or use parts of their codes:
   Stefan Grimme, W. Hujo, H. Kruse, P. Pracht,  : VdW corrections, initial TS optimization,
                  C. Bannwarth, S. Ehlert          DFT functionals, gCP, sTDA/sTD-DF
   Ed Valeev, F. Pavosevic, A. Kumar             : LibInt (2-el integral package), F12 methods
   Garnet Chan, S. Sharma, J. Yang, R. Olivares  : DMRG
   Ulf Ekstrom                                   : XCFun DFT Library
   Mihaly Kallay                                 : mrcc  (arbitrary order and MRCC methods)
   Jiri Pittner, Ondrej Demel                    : Mk-CCSD
   Frank Weinhold                                : gennbo (NPA and NBO analysis)
   Christopher J. Cramer and Donald G. Truhlar   : smd solvation model
   Lars Goerigk                                  : TD-DFT with DH, B97 family of functionals
   V. Asgeirsson, H. Jonsson                     : NEB implementation
   FAccTs GmbH                                   : IRC, NEB, NEB-TS, DLPNO-Multilevel, CI-OPT
                                                   MM, QMMM, 2- and 3-layer-ONIOM, Crystal-QMMM,
                                                   LR-CPCM, SF, NACMEs, symmetry and pop. for TD-DFT,
                                                   nearIR, NL-DFT gradient (VV10), updates on ESD,
                                                   ML-optimized integration grids
   S Lehtola, MJT Oliveira, MAL Marques          : LibXC Library
   Liviu Ungur et al                             : ANISO software


 Your calculation uses the libint2 library for the computation of 2-el integrals
 For citations please refer to: http://libint.valeyev.net

 Your ORCA version has been built with support for libXC version: 5.1.0
 For citations please refer to: https://tddft.org/programs/libxc/

 This ORCA versions uses:
   CBLAS   interface :  Fast vector & matrix operations
   LAPACKE interface :  Fast linear algebra routines
   SCALAPACK package :  Parallel linear algebra routines
   Shared memory     :  Shared parallel matrices
   BLAS/LAPACK       :  OpenBLAS 0.3.15  USE64BITINT DYNAMIC_ARCH NO_AFFINITY Haswell SINGLE_THREADED
        Core in use  :  Haswell
   Copyright (c) 2011-2014, The OpenBLAS Project




***************************************
The coordinates will be read from file: pbe.xyz
***************************************


================================================================================

cite the ECPs for Au [Def2-ECP] as follows:
Ce-Yb(ecp-28): M. Dolg, H. Stoll, H.Preuss, J. Chem. Phys., 1989, 90, 1730-1734.
Y-Cd(ecp-28), Hf-Hg(ecp-46): D. Andrae,U. Haeussermann, M. Dolg, H. Stoll, H. Preuss, Theor. Chim. Acta, 1990, 77, 123-141.
In-Sb(ecp-28), Tl-Bi(ecp-46): B. Metz, H. Stoll, M. Dolg, J. Chem. Phys., 2000, 113, 2563-2569.
Te-Xe(ecp-28), Po-Rn(ecp-46): K. A. Peterson, D. Figgen, E. Goll, H. Stoll, M. Dolg, J. Chem. Phys., 2003, 119, 11113-11123.
Rb(ecp-28), Cs(ecp-46): T. Leininger, A. Nicklass, W. Kuechle, H. Stoll, M. Dolg, A. Bergner, Chem. Phys. Lett., 1996, 255, 274-280.
Sr(ecp-28), Ba(ecp-46): M. Kaupp, P. V. Schleyer, H. Stoll and H. Preuss, J. Chem. Phys., 1991, 94, 1360-1366.
La(ecp-46): M. Dolg, H. Stoll, A. Savin, H. Preuss, Theor. Chim. Acta, 1989, 75, 173-194.
Lu(ecp-28): X. Cao, M. Dolg, J. Chem. Phys., 2001, 115, 7348-7355.

ECP parameters for Au [Def2-ECP] have been obtained from:
TURBOMOLE (7.0.2)

----- Orbital basis set information -----
Your calculation utilizes the basis: def2-TZVP
   F. Weigend and R. Ahlrichs, Phys. Chem. Chem. Phys. 7, 3297 (2005).

----- AuxJ basis set information -----
Your calculation utilizes the auxiliary basis: def2/J
   F. Weigend, Phys. Chem. Chem. Phys. 8, 1057 (2006).

----- AuxC basis set information -----
Your calculation utilizes the auxiliary basis: def2-TZVP/C
  H-La, Hf-Rn : A. Hellweg, C. Hattig, S. Hofener and W. Klopper, Theor. Chem. Acc. 117, 587 (2007).
        Ce-Lu : J. Chmela and M. E. Harding, Mol. Phys. (2018).

================================================================================
                                        WARNINGS
                       Please study these warnings very carefully!
================================================================================


WARNING: your system is open-shell and RHF/RKS was chosen
  ===> : WILL SWITCH to UHF/UKS


WARNING: No MP2 level density has been requested!
         To caclulate MP2 level properties use
         %mp2 Density relaxed end
         or
         %mp2 Density unrelaxed end
         Otherwise for double-hybrid DFT only the energy is correct!

WARNING: The frozen-core approximation is turned on by default for 
         the MP2 part of double-hybrid DFT.

INFO   : the flag for use of the SHARK integral package has been found!



***************************************
The coordinates will be read from file: pbe.xyz
***************************************


================================================================================

cite the ECPs for Au [Def2-ECP] as follows:
Ce-Yb(ecp-28): M. Dolg, H. Stoll, H.Preuss, J. Chem. Phys., 1989, 90, 1730-1734.
Y-Cd(ecp-28), Hf-Hg(ecp-46): D. Andrae,U. Haeussermann, M. Dolg, H. Stoll, H. Preuss, Theor. Chim. Acta, 1990, 77, 123-141.
In-Sb(ecp-28), Tl-Bi(ecp-46): B. Metz, H. Stoll, M. Dolg, J. Chem. Phys., 2000, 113, 2563-2569.
Te-Xe(ecp-28), Po-Rn(ecp-46): K. A. Peterson, D. Figgen, E. Goll, H. Stoll, M. Dolg, J. Chem. Phys., 2003, 119, 11113-11123.
Rb(ecp-28), Cs(ecp-46): T. Leininger, A. Nicklass, W. Kuechle, H. Stoll, M. Dolg, A. Bergner, Chem. Phys. Lett., 1996, 255, 274-280.
Sr(ecp-28), Ba(ecp-46): M. Kaupp, P. V. Schleyer, H. Stoll and H. Preuss, J. Chem. Phys., 1991, 94, 1360-1366.
La(ecp-46): M. Dolg, H. Stoll, A. Savin, H. Preuss, Theor. Chim. Acta, 1989, 75, 173-194.
Lu(ecp-28): X. Cao, M. Dolg, J. Chem. Phys., 2001, 115, 7348-7355.

ECP parameters for Au [Def2-ECP] have been obtained from:
TURBOMOLE (7.0.2)

----- Orbital basis set information -----
Your calculation utilizes the basis: def2-TZVP
   F. Weigend and R. Ahlrichs, Phys. Chem. Chem. Phys. 7, 3297 (2005).

----- AuxJ basis set information -----
Your calculation utilizes the auxiliary basis: def2/J
   F. Weigend, Phys. Chem. Chem. Phys. 8, 1057 (2006).

----- AuxC basis set information -----
Your calculation utilizes the auxiliary basis: def2-TZVP/C
  H-La, Hf-Rn : A. Hellweg, C. Hattig, S. Hofener and W. Klopper, Theor. Chem. Acc. 117, 587 (2007).
        Ce-Lu : J. Chmela and M. E. Harding, Mol. Phys. (2018).

================================================================================
                                        WARNINGS
                       Please study these warnings very carefully!
================================================================================


WARNING: No MP2 level density has been requested!
         To caclulate MP2 level properties use
         %mp2 Density relaxed end
         or
         %mp2 Density unrelaxed end
         Otherwise for double-hybrid DFT only the energy is correct!

WARNING: The frozen-core approximation is turned on by default for 
         the MP2 part of double-hybrid DFT.

INFO   : the flag for use of the SHARK integral package has been found!

================================================================================
                                       INPUT FILE
================================================================================
NAME = b2plyp.inp
|  1> !RI-B2PLYP def2-TZVP def2-TZVP/C
|  2> !RIJCOSX VERYSLOWCONV
|  3> 
|  4> %scf
|  5>   AutoTRAHIter 200
|  6>   maxiter 400
|  7> end
|  8> 
|  9> 
| 10> %pal nprocs 6 end 
| 11> 
| 12> *xyzfile 0 5 pbe.xyz
| 13> 
| 14> $new_job
| 15> 
| 16> !RI-B2PLYP def2-TZVP def2-TZVP/C
| 17> !RIJCOSX VERYSLOWCONV
| 18> 
| 19> %scf
| 20>   AutoTRAHIter 200
| 21>   maxiter 400
| 22> end
| 23> 
| 24> 
| 25> %pal nprocs 6 end 
| 26> 
| 27> *xyzfile 0 3 pbe.xyz
| 28> 
| 29> 
| 30> 
| 31> 
| 32> 
| 33>                          ****END OF INPUT****
================================================================================


                 $$$$$$$$$$$$$$$$$$$$$$$$$$$$$$$$$$$$$$$$$$$$$$ 
                 $ THERE ARE  2 JOBS TO BE PROCESSED THIS RUN $
                 $$$$$$$$$$$$$$$$$$$$$$$$$$$$$$$$$$$$$$$$$$$$$$ 




                 $$$$$$$$$$$$$$$$  JOB NUMBER  1 $$$$$$$$$$$$$$


                       ****************************
                       * Single Point Calculation *
                       ****************************

---------------------------------
CARTESIAN COORDINATES (ANGSTROEM)
---------------------------------
  Au     5.723739    9.711842    5.624374
  Au     6.877820   11.069235    7.734958
  Au     6.592071    7.929789    7.660662
  Au     7.301171    9.466338    9.945309
  Au     8.689548    7.173842    9.341445
  Au     9.460643   10.176891    8.329743
  Au     8.437302   10.341853    5.532006
  Au    11.099851    9.767958    6.112818
  Au    11.257956    8.052449    8.461215
  Au     9.162686    5.668897    5.114955
  Au    11.587964    7.039506    5.780494
  Au     9.643062    8.308694    4.057440
  Au     7.084830    7.417730    4.960884
  Au    10.093365    5.520294    7.700469
  Cr     9.112415    7.923639    6.735275

----------------------------
CARTESIAN COORDINATES (A.U.)
----------------------------
  NO LB      ZA    FRAG     MASS         X           Y           Z
   0 Au   19.0000*   0   196.966   10.816300   18.352721   10.628526
   1 Au   19.0000*   0   196.966   12.997196   20.917822   14.616952
   2 Au   19.0000*   0   196.966   12.457209   14.985129   14.476554
   3 Au   19.0000*   0   196.966   13.797213   17.888786   18.793911
   4 Au   19.0000*   0   196.966   16.420866   13.556596   17.652772
   5 Au   19.0000*   0   196.966   17.878024   19.231536   15.740932
   6 Au   19.0000*   0   196.966   15.944190   19.543269   10.453976
   7 Au   19.0000*   0   196.966   20.975679   18.458765   11.551552
   8 Au   19.0000*   0   196.966   21.274454   15.216924   15.989379
   9 Au   19.0000*   0   196.966   17.314966   10.712662    9.665864
  10 Au   19.0000*   0   196.966   21.898078   13.302738   10.923551
  11 Au   19.0000*   0   196.966   18.222746   15.701157    7.667450
  12 Au   19.0000*   0   196.966   13.388389   14.017479    9.374712
  13 Au   19.0000*   0   196.966   19.073696   10.431844   14.551777
  14 Cr   24.0000    0    52.000   17.219968   14.973507   12.727824
* core charge reduced due to ECP

--------------------------------
INTERNAL COORDINATES (ANGSTROEM)
--------------------------------
 Au     0   0   0     0.000000000000     0.00000000     0.00000000
 Au     1   0   0     2.762061359574     0.00000000     0.00000000
 Au     1   2   0     2.841863069161    68.46765137     0.00000000
 Au     2   1   3     2.762997989240   112.96788094   348.95234123
 Au     4   2   1     2.747322908887   112.68607511    52.47892004
 Au     4   2   1     2.788953379288    60.49020965   104.32834389
 Au     1   2   3     2.787268852524    60.49215593   266.54485026
 Au     7   1   2     2.784935971900   151.31625562    86.50508956
 Au     6   4   2     2.785833988580   106.13612600   211.09020384
 Au     3   1   2     4.266182820734    95.09826592   237.54117539
 Au     8   7   1     2.791620378685   110.10528864    39.39639244
 Au     7   1   2     2.786025222700   105.89840580   148.96235042
 Au    10   3   1     2.720227727938    39.89904202   342.38717602
 Au     5   4   2     2.719875859901   154.25616985     6.35539593
 Cr     3   1   2     2.684867286330    92.36681924   276.95692752

---------------------------
INTERNAL COORDINATES (A.U.)
---------------------------
 Au     0   0   0     0.000000000000     0.00000000     0.00000000
 Au     1   0   0     5.219539534681     0.00000000     0.00000000
 Au     1   2   0     5.370342910820    68.46765137     0.00000000
 Au     2   1   3     5.221309508239   112.96788094   348.95234123
 Au     4   2   1     5.191687899244   112.68607511    52.47892004
 Au     4   2   1     5.270358087128    60.49020965   104.32834389
 Au     1   2   3     5.267174792880    60.49215593   266.54485026
 Au     7   1   2     5.262766287396   151.31625562    86.50508956
 Au     6   4   2     5.264463292986   106.13612600   211.09020384
 Au     3   1   2     8.061917168427    95.09826592   237.54117539
 Au     8   7   1     5.275397985588   110.10528864    39.39639244
 Au     7   1   2     5.264824673101   105.89840580   148.96235042
 Au    10   3   1     5.140485427702    39.89904202   342.38717602
 Au     5   4   2     5.139820493477   154.25616985     6.35539593
 Cr     3   1   2     5.073663877087    92.36681924   276.95692752

---------------------
BASIS SET INFORMATION
---------------------
There are 2 groups of distinct atoms

 Group   1 Type Au  : 8s7p6d1f contracted to 6s4p3d1f pattern {311111/4111/411/1}
 Group   2 Type Cr  : 17s11p7d1f contracted to 6s4p4d1f pattern {842111/6311/4111/1}

Atom   0Au   basis set group =>   1
Atom   1Au   basis set group =>   1
Atom   2Au   basis set group =>   1
Atom   3Au   basis set group =>   1
Atom   4Au   basis set group =>   1
Atom   5Au   basis set group =>   1
Atom   6Au   basis set group =>   1
Atom   7Au   basis set group =>   1
Atom   8Au   basis set group =>   1
Atom   9Au   basis set group =>   1
Atom  10Au   basis set group =>   1
Atom  11Au   basis set group =>   1
Atom  12Au   basis set group =>   1
Atom  13Au   basis set group =>   1
Atom  14Cr   basis set group =>   2
---------------------------------
AUXILIARY/J BASIS SET INFORMATION
---------------------------------
There are 2 groups of distinct atoms

 Group   1 Type Au  : 11s5p5d3f3g contracted to 8s5p5d2f3g pattern {41111111/11111/11111/21/111}
 Group   2 Type Cr  : 19s5p5d3f3g contracted to 8s5p5d2f3g pattern {121111111/11111/11111/21/111}

Atom   0Au   basis set group =>   1
Atom   1Au   basis set group =>   1
Atom   2Au   basis set group =>   1
Atom   3Au   basis set group =>   1
Atom   4Au   basis set group =>   1
Atom   5Au   basis set group =>   1
Atom   6Au   basis set group =>   1
Atom   7Au   basis set group =>   1
Atom   8Au   basis set group =>   1
Atom   9Au   basis set group =>   1
Atom  10Au   basis set group =>   1
Atom  11Au   basis set group =>   1
Atom  12Au   basis set group =>   1
Atom  13Au   basis set group =>   1
Atom  14Cr   basis set group =>   2
---------------------------------
AUXILIARY/C BASIS SET INFORMATION
---------------------------------
There are 2 groups of distinct atoms

 Group   1 Type Au  : 8s8p7d5f3g2h contracted to 8s8p7d5f3g2h pattern {11111111/11111111/1111111/11111/111/11}
 Group   2 Type Cr  : 11s9p8d6f5g2h contracted to 9s8p8d6f5g2h pattern {311111111/21111111/11111111/111111/11111/11}

Atom   0Au   basis set group =>   1
Atom   1Au   basis set group =>   1
Atom   2Au   basis set group =>   1
Atom   3Au   basis set group =>   1
Atom   4Au   basis set group =>   1
Atom   5Au   basis set group =>   1
Atom   6Au   basis set group =>   1
Atom   7Au   basis set group =>   1
Atom   8Au   basis set group =>   1
Atom   9Au   basis set group =>   1
Atom  10Au   basis set group =>   1
Atom  11Au   basis set group =>   1
Atom  12Au   basis set group =>   1
Atom  13Au   basis set group =>   1
Atom  14Cr   basis set group =>   2
-------------------------
ECP PARAMETER INFORMATION
-------------------------

 Group 1, Type Au ECP Def2-ECP (replacing 60 core electrons, lmax=3)

Atom   0Au   ECP group =>   1
Atom   1Au   ECP group =>   1
Atom   2Au   ECP group =>   1
Atom   3Au   ECP group =>   1
Atom   4Au   ECP group =>   1
Atom   5Au   ECP group =>   1
Atom   6Au   ECP group =>   1
Atom   7Au   ECP group =>   1
Atom   8Au   ECP group =>   1
Atom   9Au   ECP group =>   1
Atom  10Au   ECP group =>   1
Atom  11Au   ECP group =>   1
Atom  12Au   ECP group =>   1
Atom  13Au   ECP group =>   1



           ************************************************************
           *        Program running with 6 parallel MPI-processes     *
           *              working on a common directory               *
           ************************************************************
------------------------------------------------------------------------------
                           ORCA GTO INTEGRAL CALCULATION
                           -- RI-GTO INTEGRALS CHOSEN --
------------------------------------------------------------------------------
------------------------------------------------------------------------------
                   ___                                                        
                  /   \      - P O W E R E D   B Y -                         
                 /     \                                                     
                 |  |  |   _    _      __       _____    __    __             
                 |  |  |  | |  | |    /  \     |  _  \  |  |  /  |          
                  \  \/   | |  | |   /    \    | | | |  |  | /  /          
                 / \  \   | |__| |  /  /\  \   | |_| |  |  |/  /          
                |  |  |   |  __  | /  /__\  \  |    /   |      \           
                |  |  |   | |  | | |   __   |  |    \   |  |\   \          
                \     /   | |  | | |  |  |  |  | |\  \  |  | \   \       
                 \___/    |_|  |_| |__|  |__|  |_| \__\ |__|  \__/        
                                                                              
                      - O R C A' S   B I G   F R I E N D -                    
                                      &                                       
                       - I N T E G R A L  F E E D E R -                       
                                                                              
 v1 FN, 2020, v2 2021                                                         
------------------------------------------------------------------------------


Reading SHARK input file b2plyp.SHARKINP.tmp ... ok
----------------------
SHARK INTEGRAL PACKAGE
----------------------

Number of atoms                             ...     15
Number of basis functions                   ...    605
Number of shells                            ...    211
Maximum angular momentum                    ...      3
Integral batch strategy                     ... SHARK/LIBINT Hybrid
RI-J (if used) integral strategy            ... SPLIT-RIJ (Revised 2003 algorithm where possible)
Printlevel                                  ...      1
Contraction scheme used                     ... SEGMENTED contraction
Coulomb Range Separation                    ... NOT USED
Exchange Range Separation                   ... NOT USED
Finite Nucleus Model                        ... NOT USED
Auxiliary Coulomb fitting basis             ... AVAILABLE
   # of basis functions in Aux-J            ...   1335
   # of shells in Aux-J                     ...    345
   Maximum angular momentum in Aux-J        ...      4
Auxiliary J/K fitting basis                 ... NOT available
Auxiliary Correlation fitting basis         ... AVAILABLE
   # of basis functions in Aux-C            ...   2296
   # of shells in Aux-C                     ...    500
   Maximum angular momentum in Aux-C        ...      5
Auxiliary 'external' fitting basis          ... NOT available
Integral threshold                          ...     1.000000e-10
Primitive cut-off                           ...     1.000000e-11
Primitive pair pre-selection threshold      ...     1.000000e-11

Calculating pre-screening integrals         ... done (  0.3 sec) Dimension = 211
Organizing shell pair data                  ... done (  0.8 sec)
Shell pair information
Total number of shell pairs                 ...     22366
Shell pairs after pre-screening             ...     17900
Total number of primitive shell pairs       ...     59609
Primitive shell pairs kept                  ...     34665
          la=0 lb=0:   2815 shell pairs
          la=1 lb=0:   4094 shell pairs
          la=1 lb=1:   1529 shell pairs
          la=2 lb=0:   3555 shell pairs
          la=2 lb=1:   2495 shell pairs
          la=2 lb=2:   1025 shell pairs
          la=3 lb=0:    951 shell pairs
          la=3 lb=1:    716 shell pairs
          la=3 lb=2:    622 shell pairs
          la=3 lb=3:     98 shell pairs

Calculating one electron integrals          ... done (  0.3 sec)
Calculating ECP integrals                   ... done ( 21.4 sec)
Calculating RI/J V-Matrix + Cholesky decomp.... done (  3.2 sec)
Calculating RI/C V-Matrix + Cholesky decomp.... done (  4.8 sec)
Calculating Nuclear repulsion               ... done (  0.0 sec) ENN=   5609.511308975802 Eh

SHARK setup successfully completed in  32.2 seconds

Maximum memory used throughout the entire GTOINT-calculation: 49.5 MB


           ************************************************************
           *        Program running with 6 parallel MPI-processes     *
           *              working on a common directory               *
           ************************************************************
-------------------------------------------------------------------------------
                                 ORCA SCF
-------------------------------------------------------------------------------

------------
SCF SETTINGS
------------
Hamiltonian:
 Density Functional     Method          .... DFT(GTOs)
 Exchange Functional    Exchange        .... B88
   X-Alpha parameter    XAlpha          ....  0.666667
   Becke's b parameter  XBeta           ....  0.004200
 Correlation Functional Correlation     .... LYP
 LDA part of GGA corr.  LDAOpt          .... VWN-3
 Gradients option       PostSCFGGA      .... off
 Hybrid DFT is turned on
   Fraction HF Exchange ScalHFX         ....  0.530000
   Scaling of DF-GGA-X  ScalDFX         ....  0.470000
   Scaling of DF-GGA-C  ScalDFC         ....  0.730000
   Scaling of DF-LDA-C  ScalLDAC        ....  0.730000
   Perturbative correction              ....  0.270000
   Density functional embedding theory  .... OFF
   NL short-range parameter             ....  7.800000
 RI-approximation to the Coulomb term is turned on
   Number of AuxJ basis functions       .... 1335
   RIJ-COSX (HFX calculated with COS-X)).... on


General Settings:
 Integral files         IntName         .... b2plyp
 Hartree-Fock type      HFTyp           .... UHF
 Total Charge           Charge          ....    0
 Multiplicity           Mult            ....    5
 Number of Electrons    NEL             ....  290
 Basis Dimension        Dim             ....  605
 Nuclear Repulsion      ENuc            ....   5609.5113089758 Eh

Convergence Acceleration:
 DIIS                   CNVDIIS         .... on
   Start iteration      DIISMaxIt       ....     0
   Startup error        DIISStart       ....  0.200000
   # of expansion vecs  DIISMaxEq       ....     5
   Bias factor          DIISBfac        ....   1.050
   Max. coefficient     DIISMaxC        ....  10.000
 Trust-Rad. Augm. Hess. CNVTRAH         .... auto
   Auto Start mean grad. ratio tolernc. ....  1.125000
   Auto Start start iteration           ....   200
   Auto Start num. interpolation iter.  ....    10
   Max. Number of Micro iterations      ....    16
   Max. Number of Macro iterations      .... Maxiter - #DIIS iter
   Number of Davidson start vectors     ....     2
   Converg. threshold I  (grad. norm)   ....   5.000e-05
   Converg. threshold II (energy diff.) ....   1.000e-06
   Grad. Scal. Fac. for Micro threshold ....   0.100
   Minimum threshold for Micro iter.    ....   0.010
   NR start threshold (gradient norm)   ....   0.001
   Initial trust radius                 ....   0.400
   Minimum AH scaling param. (alpha)    ....   1.000
   Maximum AH scaling param. (alpha)    .... 1000.000
   Orbital update algorithm             .... Taylor
   White noise on init. David. guess    .... on
   Maximum white noise                  ....   0.010
   Quad. conv. algorithm                .... NR
 SOSCF                  CNVSOSCF        .... off
 Level Shifting         CNVShift        .... on
   Level shift para.    LevelShift      ....    0.2500
   Turn off err/grad.   ShiftErr        ....    0.0000
 Zerner damping         CNVZerner       .... off
 Static damping         CNVDamp         .... on
   Fraction old density DampFac         ....    0.9200
   Max. Damping (<1)    DampMax         ....    0.9800
   Min. Damping (>=0)   DampMin         ....    0.0000
   Turn off err/grad.   DampErr         ....    0.0030
 Fernandez-Rico         CNVRico         .... off

SCF Procedure:
 Maximum # iterations   MaxIter         ....   400
 SCF integral mode      SCFMode         .... Direct
   Integral package                     .... SHARK and LIBINT hybrid scheme
 Reset frequency        DirectResetFreq ....    20
 Integral Threshold     Thresh          ....  1.000e-10 Eh
 Primitive CutOff       TCut            ....  1.000e-11 Eh

Convergence Tolerance:
 Convergence Check Mode ConvCheckMode   .... Total+1el-Energy
 Convergence forced     ConvForced      .... 0
 Energy Change          TolE            ....  1.000e-06 Eh
 1-El. energy change                    ....  1.000e-03 Eh
 DIIS Error             TolErr          ....  1.000e-06


Diagonalization of the overlap matrix:
Smallest eigenvalue                        ... 1.081e-04
Time for diagonalization                   ...    0.156 sec
Threshold for overlap eigenvalues          ... 1.000e-08
Number of eigenvalues below threshold      ... 0
Time for construction of square roots      ...    0.445 sec
Total time needed                          ...    0.988 sec

Time for model grid setup =    2.755 sec

------------------------------
INITIAL GUESS: MODEL POTENTIAL
------------------------------
Loading Hartree-Fock densities                     ... done
  calling /media/Programs/ORCA501/orca b2plyp_atom79.inp > b2plyp_atom79.out in order to generate an atomic fitting density for atom 0 (Au with ECP) on-the-fly... 
    atom 0 (Au), assumed electronic state with S=2: 1s2 2s2 2p6 3s2 3p6 4s2 3d10 4p6 5s2 4d10 5p6 6s1 4f14 5d10           ... done
Calculating cut-offs                               ... done
Initializing the effective Hamiltonian             ... done
Setting up the integral package (SHARK)            ... done
Starting the Coulomb interaction                   ... done (   1.9 sec)
Reading the grid                                   ... done
Mapping shells                                     ... done
Starting the XC term evaluation                    ... done (   1.2 sec)
  promolecular density results
     # of electrons  =   1130.014044347
     EX              =  -5190.755681527
     EC              =    -22.967156046
     EX+EC           =  -5213.722837574
Transforming the Hamiltonian                       ... done (   0.6 sec)
Diagonalizing the Hamiltonian                      ... done (   0.7 sec)
Back transforming the eigenvectors                 ... done (   0.1 sec)
Now organizing SCF variables                       ... done
                      ------------------
                      INITIAL GUESS DONE (   8.9 sec)
                      ------------------
-------------------
DFT GRID GENERATION
-------------------

General Integration Accuracy     IntAcc      ... 4.388
Radial Grid Type                 RadialGrid  ... OptM3 with GC (2021)
Angular Grid (max. ang.)         AngularGrid ... 4 (Lebedev-302)
Angular grid pruning method      GridPruning ... 4 (adaptive)
Weight generation scheme         WeightScheme... Becke
Basis function cutoff            BFCut       ... 1.0000e-10
Integration weight cutoff        WCut        ... 1.0000e-14
Angular grids for H and He will be reduced by one unit
Partially contracted basis set               ... off
Rotationally invariant grid construction     ... off

Total number of grid points                  ...   165722
Total number of batches                      ...     2598
Average number of points per batch           ...       63
Average number of grid points per atom       ...    11048
Time for grid setup =    4.896 sec

--------------------
COSX GRID GENERATION
--------------------

GRIDX 1
-------
General Integration Accuracy     IntAcc      ... 3.816
Radial Grid Type                 RadialGrid  ... OptM3 with GC (2021)
Angular Grid (max. ang.)         AngularGrid ... 1 (Lebedev-50)
Angular grid pruning method      GridPruning ... 4 (adaptive)
Weight generation scheme         WeightScheme... Becke
Basis function cutoff            BFCut       ... 1.0000e-10
Integration weight cutoff        WCut        ... 1.0000e-14
Angular grids for H and He will be reduced by one unit
Partially contracted basis set               ... on
Rotationally invariant grid construction     ... off

Total number of grid points                  ...    17353
Total number of batches                      ...      278
Average number of points per batch           ...       62
Average number of grid points per atom       ...     1157
UseSFitting                                  ... on

GRIDX 2
-------
General Integration Accuracy     IntAcc      ... 4.020
Radial Grid Type                 RadialGrid  ... OptM3 with GC (2021)
Angular Grid (max. ang.)         AngularGrid ... 2 (Lebedev-110)
Angular grid pruning method      GridPruning ... 4 (adaptive)
Weight generation scheme         WeightScheme... Becke
Basis function cutoff            BFCut       ... 1.0000e-10
Integration weight cutoff        WCut        ... 1.0000e-14
Angular grids for H and He will be reduced by one unit
Partially contracted basis set               ... on
Rotationally invariant grid construction     ... off

Total number of grid points                  ...    52627
Total number of batches                      ...      831
Average number of points per batch           ...       63
Average number of grid points per atom       ...     3508
UseSFitting                                  ... on

GRIDX 3
-------
General Integration Accuracy     IntAcc      ... 4.338
Radial Grid Type                 RadialGrid  ... OptM3 with GC (2021)
Angular Grid (max. ang.)         AngularGrid ... 3 (Lebedev-194)
Angular grid pruning method      GridPruning ... 4 (adaptive)
Weight generation scheme         WeightScheme... Becke
Basis function cutoff            BFCut       ... 1.0000e-10
Integration weight cutoff        WCut        ... 1.0000e-14
Angular grids for H and He will be reduced by one unit
Partially contracted basis set               ... on
Rotationally invariant grid construction     ... off

Total number of grid points                  ...    95695
Total number of batches                      ...     1503
Average number of points per batch           ...       63
Average number of grid points per atom       ...     6380
UseSFitting                                  ... on

Time for X-Grid setup             =    8.508 sec

--------------
SCF ITERATIONS
--------------
ITER       Energy         Delta-E        Max-DP      RMS-DP      [F,P]     Damp
               ***  Starting incremental Fock matrix formation  ***
  0  -2938.1803714879   0.000000000000 0.05397766  0.00049089  0.3451108 0.9200
  1  -2938.6120887725  -0.431717284579 0.05854149  0.00047076  0.2524261 0.9200
                               ***Turning on DIIS***
  2  -2938.8673829036  -0.255294131130 0.06950592  0.00041396  0.2320310 0.9200
  3  -2938.9946694336  -0.127286529936 0.05828215  0.00030769  0.2132877 0.9200
  4  -2939.0730131741  -0.078343740578 0.03656048  0.00025189  0.1960693 0.9200
  5  -2939.1453077322  -0.072294558046 0.04353152  0.00024197  0.1802353 0.9200
  6  -2939.2034131675  -0.058105435304 0.05771606  0.00023320  0.1657950 0.9200
  7  -2939.2599829822  -0.056569814747 0.05536108  0.00022673  0.1526528 0.9200
  8  -2939.3285757029  -0.068592720630 0.03847232  0.00021550  0.1405383 0.9200
  9  -2939.3919060972  -0.063330394296 0.04808034  0.00019117  0.1293207 0.9200
 10  -2939.4493894526  -0.057483355471 0.04279226  0.00017454  0.1189651 0.9200
 11  -2939.5007855530  -0.051396100346 0.04376920  0.00016630  0.1094084 0.9200
 12  -2939.5482256750  -0.047440122024 0.04598212  0.00015978  0.1006487 0.9200
 13  -2939.5951039787  -0.046878303722 0.04215188  0.00015141  0.0926081 0.9200
 14  -2939.6396480068  -0.044544028104 0.03641427  0.00013618  0.0852190 0.9200
 15  -2939.6808579273  -0.041209920474 0.03027912  0.00012375  0.0784161 0.9200
 16  -2939.7189242098  -0.038066282485 0.02817522  0.00011591  0.0721526 0.9200
 17  -2939.7543287773  -0.035404567479 0.02865149  0.00010987  0.0663866 0.9200
 18  -2939.7877976430  -0.033468865735 0.02735459  0.00010345  0.0610815 0.9200
 19  -2939.8192838580  -0.031486214959 0.02299194  0.00009474  0.0562025 0.9200
               *** Restarting incremental Fock matrix formation ***
                                   *** Resetting DIIS ***
 20  -2939.8482024484  -0.028918590395 0.01926772  0.00008363  0.0517097 0.9200
 21  -2939.8760274937  -0.027825045360 0.01763019  0.00007603  0.0475958 0.9200
 22  -2939.9019356997  -0.025908205945 0.01672100  0.00007091  0.0438075 0.9200
 23  -2939.9259816548  -0.024045955102 0.01633531  0.00006779  0.0403173 0.9200
 24  -2939.9482898999  -0.022308245154 0.01574365  0.00006506  0.0371028 0.9200
 25  -2939.9690101162  -0.020720216321 0.01456588  0.00006173  0.0341433 0.9200
 26  -2939.9882977739  -0.019287657648 0.01261173  0.00005780  0.0314198 0.9200
 27  -2940.0062387131  -0.017940939174 0.01064268  0.00005395  0.0289128 0.9200
 28  -2940.0229259837  -0.016687270667 0.00930693  0.00005057  0.0266044 0.9200
 29  -2940.0384510083  -0.015525024529 0.00849883  0.00004751  0.0244795 0.9200
 30  -2940.0528999636  -0.014448955324 0.00779356  0.00004462  0.0225240 0.9200
 31  -2940.0663473519  -0.013447388345 0.00688314  0.00004178  0.0207250 0.9200
 32  -2940.0788588015  -0.012511449592 0.00588010  0.00003906  0.0190702 0.9200
 33  -2940.0904962576  -0.011637456070 0.00504944  0.00003657  0.0175476 0.9200
 34  -2940.1013179368  -0.010821679205 0.00444586  0.00003429  0.0161465 0.9200
 35  -2940.1113782165  -0.010060279751 0.00394913  0.00003216  0.0148570 0.9200
 36  -2940.1207276325  -0.009349415955 0.00345391  0.00003016  0.0136703 0.9200
 37  -2940.1294132345  -0.008685602031 0.00295751  0.00002828  0.0125786 0.9200
 38  -2940.1374792791  -0.008066044597 0.00253676  0.00002654  0.0115741 0.9200
 39  -2940.1449672966  -0.007488017432 0.00296506  0.00002490  0.0106498 0.9200
               *** Restarting incremental Fock matrix formation ***
                                   *** Resetting DIIS ***
 40  -2940.1519143691  -0.006947072515 0.00248694  0.00002048  0.0097993 0.9200
 41  -2940.1584197619  -0.006505392775 0.00243735  0.00001819  0.0090203 0.9200
 42  -2940.1644472403  -0.006027478420 0.00207287  0.00001715  0.0083030 0.9200
 43  -2940.1700202777  -0.005573037412 0.00171776  0.00001684  0.0076427 0.9200
 44  -2940.1751686305  -0.005148352845 0.00150437  0.00001672  0.0070344 0.9200
 45  -2940.1799227967  -0.004754166168 0.00144111  0.00001627  0.0064740 0.9200
 46  -2940.1843169265  -0.004394129755 0.00139349  0.00001572  0.0059739 0.9200
 47  -2940.1883795011  -0.004062574676 0.00136860  0.00001513  0.0055955 0.9200
 48  -2940.1921362949  -0.003756793797 0.00135585  0.00001453  0.0052355 0.9200
 49  -2940.1956109254  -0.003474630425 0.00132947  0.00001391  0.0048953 0.9200
 50  -2940.1988249648  -0.003214039442 0.00129386  0.00001330  0.0045719 0.9200
 51  -2940.2017981156  -0.002973150842 0.00125355  0.00001270  0.0042636 0.9200
 52  -2940.2045484331  -0.002750317479 0.00121100  0.00001213  0.0039715 0.9200
 53  -2940.2070925568  -0.002544123718 0.00116677  0.00001159  0.0036972 0.9200
 54  -2940.2094458087  -0.002353251899 0.00112122  0.00001105  0.0034403 0.9200
 55  -2940.2116223726  -0.002176563896 0.00107516  0.00001054  0.0031992 0.9200
 56  -2940.2136353326  -0.002012959998 0.01287007  0.00012576  0.0029726 0.0000
 57  -2940.2378235611  -0.024188228504 0.00261837  0.00001730  0.0010121 0.0000
 58  -2940.2379013774  -0.000077816303 0.00228643  0.00001452  0.0008706 0.0000
               *** Restarting incremental Fock matrix formation ***
                                   *** Resetting DIIS ***
 59  -2940.2381577241  -0.000256346694 0.00972327  0.00012818  0.0010629 0.0000
 60  -2940.2383708990  -0.000213174861 0.00450425  0.00004218  0.0008415 0.0000
 61  -2940.2384220920  -0.000051192964 0.00164836  0.00001789  0.0006474 0.0000
 62  -2940.2384571135  -0.000035021540 0.00189663  0.00001255  0.0005777 0.0000
 63  -2940.2384877831  -0.000030669559 0.00131266  0.00001052  0.0005624 0.0000
 64  -2940.2385157439  -0.000027960885 0.00151332  0.00001155  0.0005320 0.0000
 65  -2940.2385443323  -0.000028588383 0.00104688  0.00001189  0.0004771 0.0000
 66  -2940.2385712595  -0.000026927201 0.00214811  0.00001255  0.0004216 0.0000
 67  -2940.2385953599  -0.000024100402 0.00100791  0.00001190  0.0003659 0.0000
 68  -2940.2386153658  -0.000020005831 0.00107842  0.00000889  0.0003270 0.0000
 69  -2940.2386293238  -0.000013957999 0.00122169  0.00001285  0.0002449 0.0000
 70  -2940.2386416419  -0.000012318175 0.00064283  0.00000732  0.0004811 0.0000
 71  -2940.2386510542  -0.000009412237 0.00101397  0.00000924  0.0002455 0.0000
 72  -2940.2386583288  -0.000007274654 0.00150358  0.00000541  0.0003741 0.0000
 73  -2940.2386632109  -0.000004882035 0.00059446  0.00000692  0.0001887 0.0000
 74  -2940.2386668335  -0.000003622679 0.00099227  0.00000590  0.0003284 0.0000
 75  -2940.2386700074  -0.000003173899 0.00053038  0.00000528  0.0002502 0.0000
 76  -2940.2386727069  -0.000002699480 0.00066710  0.00000390  0.0001963 0.0000
 77  -2940.2386745318  -0.000001824898 0.00082259  0.00000430  0.0001588 0.0000
 78  -2940.2386762171  -0.000001685302 0.01953416  0.00003354  0.0001487 0.0000
               *** Restarting incremental Fock matrix formation ***
                                   *** Resetting DIIS ***
 79  -2940.2386759157   0.000000301439 0.00138626  0.00000356  0.0001363 0.0000
 80  -2940.2386766498  -0.000000734104 0.00103411  0.00000208  0.0001680 0.0000
 81  -2940.2386776432  -0.000000993453 0.00080910  0.00000209  0.0000953 0.0000
 82  -2940.2386784167  -0.000000773496 0.00076454  0.00000238  0.0000908 0.0000
 83  -2940.2386789903  -0.000000573605 0.00082275  0.00000285  0.0000850 0.0000
 84  -2940.2386798130  -0.000000822630 0.00069647  0.00000291  0.0000780 0.0000
 85  -2940.2386804077  -0.000000594779 0.00012760  0.00000127  0.0000744 0.0000
 86  -2940.2386808952  -0.000000487435 0.00056993  0.00000280  0.0000673 0.0000
 87  -2940.2386813647  -0.000000469555 0.00024228  0.00000248  0.0000647 0.0000
 88  -2940.2386817408  -0.000000376082 0.00046461  0.00000213  0.0000606 0.0000
 89  -2940.2386820282  -0.000000287362 0.00023231  0.00000165  0.0000560 0.0000
 90  -2940.2386822759  -0.000000247764 0.00020413  0.00000154  0.0000516 0.0000
 91  -2940.2386825451  -0.000000269171 0.00024101  0.00000215  0.0000474 0.0000
 92  -2940.2386826282  -0.000000083092 0.00021171  0.00000174  0.0000540 0.0000
 93  -2940.2386828476  -0.000000219397 0.00024620  0.00000191  0.0000410 0.0000
 94  -2940.2386829120  -0.000000064435 0.00013648  0.00000097  0.0000486 0.0000
 95  -2940.2386832634  -0.000000351391 0.00014582  0.00000090  0.0000341 0.0000
 96  -2940.2386834032  -0.000000139818 0.00022485  0.00000169  0.0000316 0.0000
                 **** Energy Check signals convergence ****

               *****************************************************
               *                     SUCCESS                       *
               *           SCF CONVERGED AFTER  97 CYCLES          *
               *****************************************************

Old exchange energy                            =   -113.742128917 Eh
New exchange energy                            =   -113.742125584 Eh
Exchange energy change after final integration =      0.000003333 Eh
Total energy after final integration           =  -2940.238680207 Eh
Final COS-X integration done in                =    51.426 sec

----------------
TOTAL SCF ENERGY
----------------

Total Energy       :        -2940.23868021 Eh          -80007.96201 eV

Components:
Nuclear Repulsion  :         5609.51130898 Eh          152642.56292 eV
Electronic Energy  :        -8549.74998918 Eh         -232650.52493 eV
One Electron Energy:       -15991.84278474 Eh         -435160.16529 eV
Two Electron Energy:         7442.09279555 Eh          202509.64036 eV
Max COSX asymmetry :            0.00000982 Eh               0.00027 eV

Virial components:
Potential Energy   :        -4626.91221235 Eh         -125904.68217 eV
Kinetic Energy     :         1686.67353215 Eh           45896.72015 eV
Virial Ratio       :            2.74321742


DFT components:
N(Alpha)           :      146.999995708920 electrons
N(Beta)            :      142.999995898018 electrons
N(Total)           :      289.999991606938 electrons
E(X)               :     -102.501732372213 Eh       
E(C)               :       -7.973798370427 Eh       
E(XC)              :     -110.475530742639 Eh       
DFET-embed. en.    :        0.000000000000 Eh       

---------------
SCF CONVERGENCE
---------------

  Last Energy change         ...   -1.3616e-07  Tolerance :   1.0000e-06
  Last MAX-Density change    ...    0.0000e+00  Tolerance :   1.0000e-05
  Last RMS-Density change    ...    0.0000e+00  Tolerance :   1.0000e-06
  Last DIIS Error            ...    3.1406e-05  Tolerance :   1.0000e-06

             **** THE GBW FILE WAS UPDATED (b2plyp.gbw) ****
             **** DENSITY b2plyp.scfp WAS UPDATED ****
             **** ENERGY FILE WAS UPDATED (b2plyp.en.tmp) ****
----------------------
UHF SPIN CONTAMINATION
----------------------

Warning: in a DFT calculation there is little theoretical justification to 
         calculate <S**2> as in Hartree-Fock theory. We will do it anyways
         but you should keep in mind that the values have only limited relevance

Expectation value of <S**2>     :     6.190878
Ideal value S*(S+1) for S=2.0   :     6.000000
Deviation                       :     0.190878

             **** THE GBW FILE WAS UPDATED (b2plyp.gbw) ****
             **** DENSITY b2plyp.scfp WAS UPDATED ****
----------------
ORBITAL ENERGIES
----------------
                 SPIN UP ORBITALS
  NO   OCC          E(Eh)            E(eV) 
   0   1.0000    -217.751788     -5925.3274 
   1   1.0000     -25.436759      -692.1694 
   2   1.0000     -21.576280      -587.1204 
   3   1.0000     -21.576235      -587.1192 
   4   1.0000     -21.570063      -586.9513 
   5   1.0000      -4.402616      -119.8013 
   6   1.0000      -4.402554      -119.7996 
   7   1.0000      -4.402347      -119.7940 
   8   1.0000      -4.401714      -119.7767 
   9   1.0000      -4.399964      -119.7291 
  10   1.0000      -4.399860      -119.7263 
  11   1.0000      -4.399172      -119.7076 
  12   1.0000      -4.399047      -119.7041 
  13   1.0000      -4.392717      -119.5319 
  14   1.0000      -4.392504      -119.5261 
  15   1.0000      -4.391773      -119.5062 
  16   1.0000      -4.391635      -119.5025 
  17   1.0000      -4.386994      -119.3762 
  18   1.0000      -4.386868      -119.3728 
  19   1.0000      -3.228947       -87.8641 
  20   1.0000      -2.524108       -68.6845 
  21   1.0000      -2.523305       -68.6626 
  22   1.0000      -2.523271       -68.6617 
  23   1.0000      -2.522834       -68.6498 
  24   1.0000      -2.522654       -68.6449 
  25   1.0000      -2.521940       -68.6255 
  26   1.0000      -2.520495       -68.5861 
  27   1.0000      -2.520324       -68.5815 
  28   1.0000      -2.519752       -68.5659 
  29   1.0000      -2.519158       -68.5498 
  30   1.0000      -2.518758       -68.5389 
  31   1.0000      -2.518068       -68.5201 
  32   1.0000      -2.517931       -68.5164 
  33   1.0000      -2.517258       -68.4981 
  34   1.0000      -2.516730       -68.4837 
  35   1.0000      -2.516629       -68.4809 
  36   1.0000      -2.516524       -68.4781 
  37   1.0000      -2.516269       -68.4712 
  38   1.0000      -2.515389       -68.4472 
  39   1.0000      -2.515070       -68.4385 
  40   1.0000      -2.514635       -68.4267 
  41   1.0000      -2.514372       -68.4195 
  42   1.0000      -2.514066       -68.4112 
  43   1.0000      -2.513210       -68.3879 
  44   1.0000      -2.512934       -68.3804 
  45   1.0000      -2.511224       -68.3339 
  46   1.0000      -2.511079       -68.3299 
  47   1.0000      -2.510515       -68.3146 
  48   1.0000      -2.509397       -68.2842 
  49   1.0000      -2.509376       -68.2836 
  50   1.0000      -2.509211       -68.2791 
  51   1.0000      -2.507678       -68.2374 
  52   1.0000      -2.507559       -68.2342 
  53   1.0000      -2.506946       -68.2175 
  54   1.0000      -2.506789       -68.2132 
  55   1.0000      -2.506525       -68.2060 
  56   1.0000      -2.504836       -68.1601 
  57   1.0000      -2.504393       -68.1480 
  58   1.0000      -2.504151       -68.1414 
  59   1.0000      -2.502666       -68.1010 
  60   1.0000      -2.502515       -68.0969 
  61   1.0000      -2.501030       -68.0565 
  62   1.0000      -2.121574       -57.7310 
  63   1.0000      -2.111383       -57.4536 
  64   1.0000      -2.111145       -57.4472 
  65   1.0000      -0.503470       -13.7001 
  66   1.0000      -0.483326       -13.1520 
  67   1.0000      -0.478011       -13.0073 
  68   1.0000      -0.476103       -12.9554 
  69   1.0000      -0.472318       -12.8524 
  70   1.0000      -0.470129       -12.7929 
  71   1.0000      -0.467895       -12.7321 
  72   1.0000      -0.463569       -12.6143 
  73   1.0000      -0.462314       -12.5802 
  74   1.0000      -0.456740       -12.4285 
  75   1.0000      -0.453720       -12.3463 
  76   1.0000      -0.453253       -12.3337 
  77   1.0000      -0.450377       -12.2554 
  78   1.0000      -0.449768       -12.2388 
  79   1.0000      -0.447756       -12.1840 
  80   1.0000      -0.447658       -12.1814 
  81   1.0000      -0.445740       -12.1292 
  82   1.0000      -0.444825       -12.1043 
  83   1.0000      -0.441574       -12.0158 
  84   1.0000      -0.440249       -11.9798 
  85   1.0000      -0.438288       -11.9264 
  86   1.0000      -0.434962       -11.8359 
  87   1.0000      -0.433398       -11.7934 
  88   1.0000      -0.431906       -11.7528 
  89   1.0000      -0.429975       -11.7002 
  90   1.0000      -0.426969       -11.6184 
  91   1.0000      -0.425140       -11.5687 
  92   1.0000      -0.421987       -11.4828 
  93   1.0000      -0.419206       -11.4072 
  94   1.0000      -0.415926       -11.3179 
  95   1.0000      -0.411316       -11.1925 
  96   1.0000      -0.408460       -11.1148 
  97   1.0000      -0.406640       -11.0652 
  98   1.0000      -0.401817       -10.9340 
  99   1.0000      -0.399787       -10.8788 
 100   1.0000      -0.398531       -10.8446 
 101   1.0000      -0.395931       -10.7738 
 102   1.0000      -0.394356       -10.7310 
 103   1.0000      -0.386098       -10.5063 
 104   1.0000      -0.385599       -10.4927 
 105   1.0000      -0.380765       -10.3611 
 106   1.0000      -0.379978       -10.3397 
 107   1.0000      -0.379849       -10.3362 
 108   1.0000      -0.378296       -10.2940 
 109   1.0000      -0.374249       -10.1838 
 110   1.0000      -0.374227       -10.1832 
 111   1.0000      -0.372532       -10.1371 
 112   1.0000      -0.369844       -10.0640 
 113   1.0000      -0.368242       -10.0204 
 114   1.0000      -0.367810       -10.0086 
 115   1.0000      -0.365351        -9.9417 
 116   1.0000      -0.363537        -9.8924 
 117   1.0000      -0.363063        -9.8795 
 118   1.0000      -0.362024        -9.8512 
 119   1.0000      -0.361321        -9.8320 
 120   1.0000      -0.359302        -9.7771 
 121   1.0000      -0.356489        -9.7006 
 122   1.0000      -0.355465        -9.6727 
 123   1.0000      -0.354676        -9.6512 
 124   1.0000      -0.352556        -9.5935 
 125   1.0000      -0.352340        -9.5877 
 126   1.0000      -0.350771        -9.5450 
 127   1.0000      -0.348010        -9.4698 
 128   1.0000      -0.346052        -9.4166 
 129   1.0000      -0.344989        -9.3876 
 130   1.0000      -0.343431        -9.3452 
 131   1.0000      -0.338412        -9.2087 
 132   1.0000      -0.338259        -9.2045 
 133   1.0000      -0.334820        -9.1109 
 134   1.0000      -0.330475        -8.9927 
 135   1.0000      -0.329061        -8.9542 
 136   1.0000      -0.328839        -8.9482 
 137   1.0000      -0.326065        -8.8727 
 138   1.0000      -0.325479        -8.8567 
 139   1.0000      -0.322824        -8.7845 
 140   1.0000      -0.312499        -8.5035 
 141   1.0000      -0.311111        -8.4658 
 142   1.0000      -0.296974        -8.0811 
 143   1.0000      -0.240961        -6.5569 
 144   1.0000      -0.229743        -6.2516 
 145   1.0000      -0.229096        -6.2340 
 146   1.0000      -0.203080        -5.5261 
 147   0.0000      -0.115005        -3.1295 
 148   0.0000      -0.075837        -2.0636 
 149   0.0000      -0.075221        -2.0469 
 150   0.0000      -0.068147        -1.8544 
 151   0.0000      -0.064876        -1.7654 
 152   0.0000      -0.050141        -1.3644 
 153   0.0000      -0.049501        -1.3470 
 154   0.0000      -0.038926        -1.0592 
 155   0.0000      -0.009099        -0.2476 
 156   0.0000      -0.007618        -0.2073 
 157   0.0000      -0.005258        -0.1431 
 158   0.0000       0.001695         0.0461 
 159   0.0000       0.019332         0.5261 
 160   0.0000       0.029760         0.8098 
 161   0.0000       0.033540         0.9127 
 162   0.0000       0.037495         1.0203 
 163   0.0000       0.043221         1.1761 
 164   0.0000       0.049193         1.3386 
 165   0.0000       0.054949         1.4952 
 166   0.0000       0.057559         1.5663 
 167   0.0000       0.079108         2.1526 
 168   0.0000       0.080111         2.1799 
 169   0.0000       0.080428         2.1886 
 170   0.0000       0.086495         2.3536 
 171   0.0000       0.088010         2.3949 
 172   0.0000       0.092564         2.5188 
 173   0.0000       0.102782         2.7968 
 174   0.0000       0.103395         2.8135 
 175   0.0000       0.105161         2.8616 
 176   0.0000       0.105200         2.8626 
 177   0.0000       0.108326         2.9477 
 178   0.0000       0.110245         2.9999 
 179   0.0000       0.113094         3.0774 
 180   0.0000       0.124364         3.3841 
 181   0.0000       0.128153         3.4872 
 182   0.0000       0.133792         3.6407 
 183   0.0000       0.136632         3.7179 
 184   0.0000       0.138391         3.7658 
 185   0.0000       0.142486         3.8772 
 186   0.0000       0.144240         3.9250 
 187   0.0000       0.153679         4.1818 
 188   0.0000       0.157390         4.2828 
 189   0.0000       0.170252         4.6328 
 190   0.0000       0.171060         4.6548 
 191   0.0000       0.177719         4.8360 
 192   0.0000       0.179525         4.8851 
 193   0.0000       0.180395         4.9088 
 194   0.0000       0.186127         5.0648 
 195   0.0000       0.190192         5.1754 
 196   0.0000       0.191396         5.2081 
 197   0.0000       0.194794         5.3006 
 198   0.0000       0.198116         5.3910 
 199   0.0000       0.202101         5.4995 
 200   0.0000       0.209464         5.6998 
 201   0.0000       0.215511         5.8644 
 202   0.0000       0.216663         5.8957 
 203   0.0000       0.219123         5.9627 
 204   0.0000       0.236922         6.4470 
 205   0.0000       0.274551         7.4709 
 206   0.0000       0.278565         7.5802 
 207   0.0000       0.278939         7.5903 
 208   0.0000       0.289564         7.8794 
 209   0.0000       0.296028         8.0553 
 210   0.0000       0.297849         8.1049 
 211   0.0000       0.300091         8.1659 
 212   0.0000       0.301961         8.2168 
 213   0.0000       0.308745         8.4014 
 214   0.0000       0.309774         8.4294 
 215   0.0000       0.312527         8.5043 
 216   0.0000       0.316071         8.6007 
 217   0.0000       0.329549         8.9675 
 218   0.0000       0.332605         9.0506 
 219   0.0000       0.334942         9.1142 
 220   0.0000       0.339450         9.2369 
 221   0.0000       0.342488         9.3196 
 222   0.0000       0.347503         9.4560 
 223   0.0000       0.360361         9.8059 
 224   0.0000       0.361568         9.8388 
 225   0.0000       0.365215         9.9380 
 226   0.0000       0.367927        10.0118 
 227   0.0000       0.380606        10.3568 
 228   0.0000       0.389754        10.6058 
 229   0.0000       0.394562        10.7366 
 230   0.0000       0.397035        10.8039 
 231   0.0000       0.399531        10.8718 
 232   0.0000       0.407100        11.0778 
 233   0.0000       0.407116        11.0782 
 234   0.0000       0.413372        11.2484 
 235   0.0000       0.414270        11.2729 
 236   0.0000       0.421652        11.4737 
 237   0.0000       0.427305        11.6276 
 238   0.0000       0.428748        11.6668 
 239   0.0000       0.435681        11.8555 
 240   0.0000       0.435989        11.8639 
 241   0.0000       0.437092        11.8939 
 242   0.0000       0.442769        12.0483 
 243   0.0000       0.450180        12.2500 
 244   0.0000       0.462369        12.5817 
 245   0.0000       0.465181        12.6582 
 246   0.0000       0.471080        12.8187 
 247   0.0000       0.473447        12.8832 
 248   0.0000       0.481736        13.1087 
 249   0.0000       0.484107        13.1732 
 250   0.0000       0.493698        13.4342 
 251   0.0000       0.496155        13.5011 
 252   0.0000       0.498403        13.5622 
 253   0.0000       0.501092        13.6354 
 254   0.0000       0.507040        13.7973 
 255   0.0000       0.508542        13.8381 
 256   0.0000       0.510057        13.8794 
 257   0.0000       0.519477        14.1357 
 258   0.0000       0.523191        14.2367 
 259   0.0000       0.525245        14.2926 
 260   0.0000       0.531561        14.4645 
 261   0.0000       0.539480        14.6800 
 262   0.0000       0.548438        14.9238 
 263   0.0000       0.556764        15.1503 
 264   0.0000       0.561821        15.2879 
 265   0.0000       0.565608        15.3910 
 266   0.0000       0.566744        15.4219 
 267   0.0000       0.572775        15.5860 
 268   0.0000       0.576633        15.6910 
 269   0.0000       0.577135        15.7046 
 270   0.0000       0.584439        15.9034 
 271   0.0000       0.591655        16.0998 
 272   0.0000       0.594967        16.1899 
 273   0.0000       0.600756        16.3474 
 274   0.0000       0.603969        16.4348 
 275   0.0000       0.604591        16.4518 
 276   0.0000       0.608189        16.5497 
 277   0.0000       0.609466        16.5844 
 278   0.0000       0.618714        16.8361 
 279   0.0000       0.622068        16.9273 
 280   0.0000       0.628454        17.1011 
 281   0.0000       0.629606        17.1325 
 282   0.0000       0.634014        17.2524 
 283   0.0000       0.635480        17.2923 
 284   0.0000       0.639544        17.4029 
 285   0.0000       0.639936        17.4135 
 286   0.0000       0.648010        17.6333 
 287   0.0000       0.656297        17.8588 
 288   0.0000       0.658142        17.9090 
 289   0.0000       0.664255        18.0753 
 290   0.0000       0.666996        18.1499 
 291   0.0000       0.678319        18.4580 
 292   0.0000       0.684225        18.6187 
 293   0.0000       0.704273        19.1642 
 294   0.0000       0.713183        19.4067 
 295   0.0000       0.796126        21.6637 
 296   0.0000       0.816488        22.2178 
 297   0.0000       0.822654        22.3855 
 298   0.0000       0.828735        22.5510 
 299   0.0000       0.831813        22.6348 
 300   0.0000       0.843191        22.9444 
 301   0.0000       0.856313        23.3015 
 302   0.0000       0.859879        23.3985 
 303   0.0000       0.872501        23.7420 
 304   0.0000       0.882691        24.0192 
 305   0.0000       0.897482        24.4217 
 306   0.0000       0.907375        24.6909 
 307   0.0000       0.922804        25.1108 
 308   0.0000       0.931769        25.3547 
 309   0.0000       0.940250        25.5855 
 310   0.0000       0.942019        25.6336 
 311   0.0000       0.956900        26.0386 
 312   0.0000       0.966768        26.3071 
 313   0.0000       0.977797        26.6072 
 314   0.0000       0.993327        27.0298 
 315   0.0000       1.003718        27.3126 
 316   0.0000       1.009343        27.4656 
 317   0.0000       1.015729        27.6394 
 318   0.0000       1.031584        28.0708 
 319   0.0000       1.050081        28.5741 
 320   0.0000       1.051338        28.6084 
 321   0.0000       1.063122        28.9290 
 322   0.0000       1.064003        28.9530 
 323   0.0000       1.072730        29.1905 
 324   0.0000       1.079326        29.3700 
 325   0.0000       1.088105        29.6088 
 326   0.0000       1.096083        29.8259 
 327   0.0000       1.114362        30.3233 
 328   0.0000       1.136176        30.9169 
 329   0.0000       1.145770        31.1780 
 330   0.0000       1.172331        31.9007 
 331   0.0000       1.190344        32.3909 
 332   0.0000       1.247404        33.9436 
 333   0.0000       1.273573        34.6557 
 334   0.0000       1.294683        35.2301 
 335   0.0000       1.323726        36.0204 
 336   0.0000       1.341930        36.5158 
 337   0.0000       1.366038        37.1718 
 338   0.0000       1.386780        37.7362 
 339   0.0000       1.387331        37.7512 
 340   0.0000       1.417843        38.5815 
 341   0.0000       1.432535        38.9813 
 342   0.0000       1.449963        39.4555 
 343   0.0000       1.456134        39.6234 
 344   0.0000       1.463077        39.8124 
 345   0.0000       1.478011        40.2187 
 346   0.0000       1.483210        40.3602 
 347   0.0000       1.484105        40.3846 
 348   0.0000       1.490187        40.5501 
 349   0.0000       1.499846        40.8129 
 350   0.0000       1.500571        40.8326 
 351   0.0000       1.508727        41.0545 
 352   0.0000       1.518666        41.3250 
 353   0.0000       1.522120        41.4190 
 354   0.0000       1.526994        41.5516 
 355   0.0000       1.546665        42.0869 
 356   0.0000       1.548663        42.1413 
 357   0.0000       1.561902        42.5015 
 358   0.0000       1.575202        42.8634 
 359   0.0000       1.576643        42.9026 
 360   0.0000       1.582658        43.0663 
 361   0.0000       1.585863        43.1535 
 362   0.0000       1.588585        43.2276 
 363   0.0000       1.591599        43.3096 
 364   0.0000       1.597078        43.4587 
 365   0.0000       1.601776        43.5865 
 366   0.0000       1.605768        43.6952 
 367   0.0000       1.608356        43.7656 
 368   0.0000       1.618234        44.0344 
 369   0.0000       1.618576        44.0437 
 370   0.0000       1.621192        44.1149 
 371   0.0000       1.627244        44.2796 
 372   0.0000       1.628950        44.3260 
 373   0.0000       1.631297        44.3899 
 374   0.0000       1.632093        44.4115 
 375   0.0000       1.638072        44.5742 
 376   0.0000       1.639037        44.6005 
 377   0.0000       1.650007        44.8990 
 378   0.0000       1.651553        44.9411 
 379   0.0000       1.654335        45.0168 
 380   0.0000       1.656812        45.0841 
 381   0.0000       1.659733        45.1636 
 382   0.0000       1.660386        45.1814 
 383   0.0000       1.664049        45.2811 
 384   0.0000       1.665254        45.3139 
 385   0.0000       1.668906        45.4132 
 386   0.0000       1.669372        45.4259 
 387   0.0000       1.671685        45.4889 
 388   0.0000       1.673548        45.5396 
 389   0.0000       1.675524        45.5933 
 390   0.0000       1.677128        45.6370 
 391   0.0000       1.681426        45.7539 
 392   0.0000       1.684704        45.8431 
 393   0.0000       1.684979        45.8506 
 394   0.0000       1.685370        45.8613 
 395   0.0000       1.686427        45.8900 
 396   0.0000       1.687485        45.9188 
 397   0.0000       1.688966        45.9591 
 398   0.0000       1.691290        46.0223 
 399   0.0000       1.694525        46.1104 
 400   0.0000       1.696508        46.1643 
 401   0.0000       1.697064        46.1795 
 402   0.0000       1.697424        46.1892 
 403   0.0000       1.699227        46.2383 
 404   0.0000       1.700681        46.2779 
 405   0.0000       1.701770        46.3075 
 406   0.0000       1.706083        46.4249 
 407   0.0000       1.707896        46.4742 
 408   0.0000       1.708909        46.5018 
 409   0.0000       1.709788        46.5257 
 410   0.0000       1.710798        46.5532 
 411   0.0000       1.713107        46.6160 
 412   0.0000       1.713303        46.6214 
 413   0.0000       1.714259        46.6473 
 414   0.0000       1.715006        46.6677 
 415   0.0000       1.716514        46.7087 
 416   0.0000       1.718198        46.7546 
 417   0.0000       1.719052        46.7778 
 418   0.0000       1.723830        46.9078 
 419   0.0000       1.725330        46.9486 
 420   0.0000       1.727840        47.0169 
 421   0.0000       1.728808        47.0432 
 422   0.0000       1.730218        47.0816 
 423   0.0000       1.731020        47.1035 
 424   0.0000       1.731496        47.1164 
 425   0.0000       1.735049        47.2131 
 426   0.0000       1.737490        47.2795 
 427   0.0000       1.740916        47.3727 
 428   0.0000       1.741685        47.3937 
 429   0.0000       1.743275        47.4369 
 430   0.0000       1.743526        47.4437 
 431   0.0000       1.746767        47.5319 
 432   0.0000       1.749834        47.6154 
 433   0.0000       1.751552        47.6622 
 434   0.0000       1.752112        47.6774 
 435   0.0000       1.757372        47.8205 
 436   0.0000       1.758258        47.8446 
 437   0.0000       1.760806        47.9140 
 438   0.0000       1.762012        47.9468 
 439   0.0000       1.764383        48.0113 
 440   0.0000       1.769822        48.1593 
 441   0.0000       1.770431        48.1759 
 442   0.0000       1.774096        48.2756 
 443   0.0000       1.776327        48.3363 
 444   0.0000       1.777111        48.3576 
 445   0.0000       1.779959        48.4351 
 446   0.0000       1.781536        48.4781 
 447   0.0000       1.784872        48.5688 
 448   0.0000       1.787862        48.6502 
 449   0.0000       1.788855        48.6772 
 450   0.0000       1.791275        48.7431 
 451   0.0000       1.794365        48.8272 
 452   0.0000       1.797053        48.9003 
 453   0.0000       1.802614        49.0516 
 454   0.0000       1.804569        49.1048 
 455   0.0000       1.804904        49.1139 
 456   0.0000       1.809504        49.2391 
 457   0.0000       1.809724        49.2451 
 458   0.0000       1.810234        49.2590 
 459   0.0000       1.814972        49.3879 
 460   0.0000       1.815590        49.4047 
 461   0.0000       1.820761        49.5454 
 462   0.0000       1.824512        49.6475 
 463   0.0000       1.829723        49.7893 
 464   0.0000       1.844844        50.2008 
 465   0.0000       1.845593        50.2211 
 466   0.0000       1.849125        50.3173 
 467   0.0000       1.850661        50.3591 
 468   0.0000       1.855658        50.4950 
 469   0.0000       1.858170        50.5634 
 470   0.0000       1.868379        50.8412 
 471   0.0000       1.877983        51.1025 
 472   0.0000       1.878457        51.1154 
 473   0.0000       1.893957        51.5372 
 474   0.0000       1.897243        51.6266 
 475   0.0000       1.906769        51.8858 
 476   0.0000       1.924751        52.3751 
 477   0.0000       1.929924        52.5159 
 478   0.0000       1.933621        52.6165 
 479   0.0000       1.937947        52.7342 
 480   0.0000       1.944845        52.9219 
 481   0.0000       1.958790        53.3014 
 482   0.0000       1.960783        53.3556 
 483   0.0000       1.969758        53.5998 
 484   0.0000       1.971552        53.6487 
 485   0.0000       1.980712        53.8979 
 486   0.0000       1.983346        53.9696 
 487   0.0000       1.987715        54.0885 
 488   0.0000       1.994608        54.2760 
 489   0.0000       1.997583        54.3570 
 490   0.0000       2.011515        54.7361 
 491   0.0000       2.013077        54.7786 
 492   0.0000       2.027447        55.1696 
 493   0.0000       2.028291        55.1926 
 494   0.0000       2.040037        55.5122 
 495   0.0000       2.040820        55.5335 
 496   0.0000       2.052765        55.8586 
 497   0.0000       2.059470        56.0410 
 498   0.0000       2.081439        56.6388 
 499   0.0000       2.084177        56.7133 
 500   0.0000       2.111559        57.4585 
 501   0.0000       2.113336        57.5068 
 502   0.0000       2.123114        57.7729 
 503   0.0000       2.130397        57.9711 
 504   0.0000       2.154829        58.6359 
 505   0.0000       2.283335        62.1327 
 506   0.0000       2.394148        65.1481 
 507   0.0000       2.506275        68.1992 
 508   0.0000       2.526969        68.7623 
 509   0.0000       2.564107        69.7729 
 510   0.0000       2.587435        70.4077 
 511   0.0000       2.592028        70.5327 
 512   0.0000       2.650905        72.1348 
 513   0.0000       2.664075        72.4932 
 514   0.0000       2.681522        72.9679 
 515   0.0000       2.688037        73.1452 
 516   0.0000       2.693587        73.2962 
 517   0.0000       2.711684        73.7887 
 518   0.0000       2.732587        74.3575 
 519   0.0000       2.744561        74.6833 
 520   0.0000       2.781637        75.6922 
 521   0.0000       2.782828        75.7246 
 522   0.0000       2.783784        75.7506 
 523   0.0000       2.825030        76.8730 
 524   0.0000       2.831871        77.0591 
 525   0.0000       2.844442        77.4012 
 526   0.0000       2.871757        78.1445 
 527   0.0000       3.064576        83.3914 
 528   0.0000       3.069710        83.5310 
 529   0.0000       3.075955        83.7010 
 530   0.0000       3.082662        83.8835 
 531   0.0000       3.083019        83.8932 
 532   0.0000       3.109559        84.6154 
 533   0.0000       3.115824        84.7859 
 534   0.0000       3.183955        86.6398 
 535   0.0000      24.125327       656.4835 
 536   0.0000      24.207044       658.7072 
 537   0.0000      24.284733       660.8212 
 538   0.0000      24.388371       663.6413 
 539   0.0000      24.440884       665.0703 
 540   0.0000      24.735434       673.0854 
 541   0.0000      24.833288       675.7481 
 542   0.0000      25.153503       684.4616 
 543   0.0000      25.278378       687.8596 
 544   0.0000      25.364585       690.2055 
 545   0.0000      25.522469       694.5017 
 546   0.0000      25.635795       697.5855 
 547   0.0000      25.671350       698.5529 
 548   0.0000      25.896973       704.6925 
 549   0.0000      25.933902       705.6974 
 550   0.0000      26.039920       708.5823 
 551   0.0000      26.091685       709.9908 
 552   0.0000      26.360086       717.2944 
 553   0.0000      26.436430       719.3718 
 554   0.0000      26.464464       720.1347 
 555   0.0000      26.536213       722.0871 
 556   0.0000      26.713064       726.8994 
 557   0.0000      26.771985       728.5028 
 558   0.0000      26.848042       730.5724 
 559   0.0000      26.947990       733.2921 
 560   0.0000      26.992587       734.5056 
 561   0.0000      27.027118       735.4453 
 562   0.0000      27.204502       740.2721 
 563   0.0000      27.223974       740.8020 
 564   0.0000      27.378066       744.9951 
 565   0.0000      27.387176       745.2429 
 566   0.0000      27.470668       747.5149 
 567   0.0000      27.742221       754.9042 
 568   0.0000      28.052286       763.3415 
 569   0.0000      28.079511       764.0823 
 570   0.0000      28.121973       765.2378 
 571   0.0000      28.418107       773.2960 
 572   0.0000      28.434623       773.7454 
 573   0.0000      28.679659       780.4132 
 574   0.0000      28.769898       782.8687 
 575   0.0000      28.941055       787.5261 
 576   0.0000      29.847248       812.1849 
 577   0.0000      44.124747      1200.6954 
 578   0.0000      44.227449      1203.4901 
 579   0.0000      44.263987      1204.4843 
 580   0.0000      44.294347      1205.3104 
 581   0.0000      44.327362      1206.2088 
 582   0.0000      44.349377      1206.8079 
 583   0.0000      44.352722      1206.8989 
 584   0.0000      44.359905      1207.0944 
 585   0.0000      44.370976      1207.3956 
 586   0.0000      44.385640      1207.7947 
 587   0.0000      44.392220      1207.9737 
 588   0.0000      44.410547      1208.4724 
 589   0.0000      44.451812      1209.5953 
 590   0.0000      44.486595      1210.5418 
 591   0.0000     202.680110      5515.2062 
 592   0.0000     202.723147      5516.3773 
 593   0.0000     202.734618      5516.6894 
 594   0.0000     202.748440      5517.0655 
 595   0.0000     202.761543      5517.4221 
 596   0.0000     202.773955      5517.7598 
 597   0.0000     202.778613      5517.8866 
 598   0.0000     202.778819      5517.8922 
 599   0.0000     202.784122      5518.0365 
 600   0.0000     202.788073      5518.1440 
 601   0.0000     202.789799      5518.1910 
 602   0.0000     202.794829      5518.3279 
 603   0.0000     202.813355      5518.8320 
 604   0.0000     202.825026      5519.1495 

                 SPIN DOWN ORBITALS
  NO   OCC          E(Eh)            E(eV) 
   0   1.0000    -217.750510     -5925.2926 
   1   1.0000     -25.365952      -690.2426 
   2   1.0000     -21.516264      -585.4873 
   3   1.0000     -21.515532      -585.4674 
   4   1.0000     -21.494635      -584.8988 
   5   1.0000      -4.402033      -119.7854 
   6   1.0000      -4.402000      -119.7845 
   7   1.0000      -4.400893      -119.7544 
   8   1.0000      -4.400627      -119.7471 
   9   1.0000      -4.399223      -119.7089 
  10   1.0000      -4.399110      -119.7059 
  11   1.0000      -4.398345      -119.6851 
  12   1.0000      -4.398188      -119.6808 
  13   1.0000      -4.391883      -119.5092 
  14   1.0000      -4.391670      -119.5034 
  15   1.0000      -4.391512      -119.4991 
  16   1.0000      -4.391377      -119.4954 
  17   1.0000      -4.386630      -119.3663 
  18   1.0000      -4.385969      -119.3483 
  19   1.0000      -3.012080       -81.9629 
  20   1.0000      -2.522813       -68.6492 
  21   1.0000      -2.521754       -68.6204 
  22   1.0000      -2.521575       -68.6156 
  23   1.0000      -2.521513       -68.6139 
  24   1.0000      -2.521013       -68.6002 
  25   1.0000      -2.520788       -68.5941 
  26   1.0000      -2.519548       -68.5604 
  27   1.0000      -2.518985       -68.5451 
  28   1.0000      -2.518068       -68.5201 
  29   1.0000      -2.517649       -68.5087 
  30   1.0000      -2.517619       -68.5079 
  31   1.0000      -2.517066       -68.4928 
  32   1.0000      -2.516916       -68.4888 
  33   1.0000      -2.516284       -68.4716 
  34   1.0000      -2.515806       -68.4586 
  35   1.0000      -2.515306       -68.4450 
  36   1.0000      -2.515298       -68.4447 
  37   1.0000      -2.515166       -68.4412 
  38   1.0000      -2.514466       -68.4221 
  39   1.0000      -2.513984       -68.4090 
  40   1.0000      -2.513766       -68.4031 
  41   1.0000      -2.513516       -68.3962 
  42   1.0000      -2.513264       -68.3894 
  43   1.0000      -2.512367       -68.3650 
  44   1.0000      -2.511612       -68.3444 
  45   1.0000      -2.510325       -68.3094 
  46   1.0000      -2.510208       -68.3062 
  47   1.0000      -2.509788       -68.2948 
  48   1.0000      -2.509146       -68.2773 
  49   1.0000      -2.509063       -68.2751 
  50   1.0000      -2.508951       -68.2720 
  51   1.0000      -2.506958       -68.2178 
  52   1.0000      -2.506865       -68.2153 
  53   1.0000      -2.506764       -68.2125 
  54   1.0000      -2.506709       -68.2110 
  55   1.0000      -2.505463       -68.1771 
  56   1.0000      -2.504159       -68.1416 
  57   1.0000      -2.503520       -68.1242 
  58   1.0000      -2.503258       -68.1171 
  59   1.0000      -2.501771       -68.0767 
  60   1.0000      -2.501555       -68.0708 
  61   1.0000      -2.501067       -68.0575 
  62   1.0000      -1.881991       -51.2116 
  63   1.0000      -1.880284       -51.1651 
  64   1.0000      -1.833731       -49.8984 
  65   1.0000      -0.495329       -13.4786 
  66   1.0000      -0.471783       -12.8379 
  67   1.0000      -0.468893       -12.7592 
  68   1.0000      -0.466452       -12.6928 
  69   1.0000      -0.461861       -12.5679 
  70   1.0000      -0.461312       -12.5529 
  71   1.0000      -0.461078       -12.5466 
  72   1.0000      -0.458886       -12.4869 
  73   1.0000      -0.455817       -12.4034 
  74   1.0000      -0.453087       -12.3291 
  75   1.0000      -0.451661       -12.2903 
  76   1.0000      -0.450416       -12.2564 
  77   1.0000      -0.448151       -12.1948 
  78   1.0000      -0.447561       -12.1788 
  79   1.0000      -0.446279       -12.1439 
  80   1.0000      -0.446176       -12.1411 
  81   1.0000      -0.443462       -12.0672 
  82   1.0000      -0.442255       -12.0344 
  83   1.0000      -0.439479       -11.9588 
  84   1.0000      -0.437930       -11.9167 
  85   1.0000      -0.435690       -11.8557 
  86   1.0000      -0.432931       -11.7807 
  87   1.0000      -0.432756       -11.7759 
  88   1.0000      -0.431005       -11.7282 
  89   1.0000      -0.429288       -11.6815 
  90   1.0000      -0.425594       -11.5810 
  91   1.0000      -0.419476       -11.4145 
  92   1.0000      -0.417691       -11.3659 
  93   1.0000      -0.416092       -11.3224 
  94   1.0000      -0.412038       -11.2121 
  95   1.0000      -0.404519       -11.0075 
[...]
      pz      :    -0.019388  p :    -0.092625
      px      :    -0.051658
      py      :    -0.021579
      dz2     :    -0.003312  d :     0.001213
      dxz     :    -0.000352
      dyz     :     0.007106
      dx2y2   :    -0.000727
      dxy     :    -0.001502
      f0      :     0.000147  f :     0.000275
      f+1     :     0.000071
      f-1     :     0.000139
      f+2     :    -0.000011
      f-2     :    -0.000012
      f+3     :    -0.000060
      f-3     :     0.000000
  5 Aus       :    -0.055023  s :    -0.055023
      pz      :    -0.040357  p :    -0.052467
      px      :    -0.005086
      py      :    -0.007024
      dz2     :     0.002090  d :     0.006526
      dxz     :     0.000630
      dyz     :     0.001056
      dx2y2   :     0.000334
      dxy     :     0.002416
      f0      :     0.000055  f :     0.000260
      f+1     :    -0.000030
      f-1     :     0.000059
      f+2     :     0.000093
      f-2     :     0.000042
      f+3     :     0.000027
      f-3     :     0.000013
  6 Aus       :    -0.050862  s :    -0.050862
      pz      :    -0.032647  p :    -0.053396
      px      :    -0.017559
      py      :    -0.003190
      dz2     :    -0.000896  d :     0.005303
      dxz     :    -0.000737
      dyz     :     0.000655
      dx2y2   :     0.003210
      dxy     :     0.003071
      f0      :     0.000029  f :     0.000247
      f+1     :     0.000001
      f-1     :     0.000044
      f+2     :     0.000114
      f-2     :     0.000022
      f+3     :     0.000006
      f-3     :     0.000032
  7 Aus       :    -0.056466  s :    -0.056466
      pz      :    -0.023847  p :    -0.101946
      px      :    -0.032676
      py      :    -0.045423
      dz2     :     0.001345  d :     0.007122
      dxz     :     0.000694
      dyz     :     0.003814
      dx2y2   :    -0.004192
      dxy     :     0.005461
      f0      :     0.000023  f :     0.000314
      f+1     :     0.000042
      f-1     :     0.000019
      f+2     :    -0.000009
      f-2     :     0.000051
      f+3     :     0.000093
      f-3     :     0.000095
  8 Aus       :    -0.072214  s :    -0.072214
      pz      :    -0.037849  p :    -0.066579
      px      :    -0.014956
      py      :    -0.013773
      dz2     :    -0.008060  d :    -0.005840
      dxz     :    -0.001671
      dyz     :     0.001099
      dx2y2   :     0.000004
      dxy     :     0.002788
      f0      :     0.000005  f :     0.000297
      f+1     :     0.000094
      f-1     :    -0.000007
      f+2     :     0.000138
      f-2     :     0.000022
      f+3     :     0.000024
      f-3     :     0.000020
  9 Aus       :    -0.050849  s :    -0.050849
      pz      :    -0.027014  p :    -0.060413
      px      :    -0.015217
      py      :    -0.018181
      dz2     :    -0.000253  d :     0.000633
      dxz     :     0.001691
      dyz     :     0.001263
      dx2y2   :     0.000661
      dxy     :    -0.002728
      f0      :     0.000039  f :     0.000302
      f+1     :    -0.000012
      f-1     :     0.000060
      f+2     :     0.000119
      f-2     :     0.000030
      f+3     :     0.000013
      f-3     :     0.000053
 10 Aus       :    -0.105569  s :    -0.105569
      pz      :    -0.002763  p :    -0.034496
      px      :    -0.018046
      py      :    -0.013687
      dz2     :    -0.003975  d :    -0.001847
      dxz     :     0.001058
      dyz     :    -0.000656
      dx2y2   :    -0.000267
      dxy     :     0.001993
      f0      :     0.000032  f :     0.000301
      f+1     :     0.000027
      f-1     :     0.000006
      f+2     :     0.000055
      f-2     :     0.000059
      f+3     :     0.000039
      f-3     :     0.000083
 11 Aus       :    -0.073114  s :    -0.073114
      pz      :    -0.013716  p :    -0.066954
      px      :    -0.040850
      py      :    -0.012387
      dz2     :     0.002153  d :    -0.005440
      dxz     :    -0.002592
      dyz     :     0.003956
      dx2y2   :    -0.007768
      dxy     :    -0.001189
      f0      :     0.000199  f :     0.000301
      f+1     :     0.000087
      f-1     :     0.000066
      f+2     :    -0.000047
      f-2     :     0.000003
      f+3     :    -0.000001
      f-3     :    -0.000005
 12 Aus       :    -0.029886  s :    -0.029886
      pz      :    -0.053092  p :    -0.093300
      px      :    -0.014036
      py      :    -0.026172
      dz2     :    -0.006050  d :     0.001273
      dxz     :    -0.001545
      dyz     :     0.001405
      dx2y2   :     0.001897
      dxy     :     0.005567
      f0      :     0.000033  f :     0.000276
      f+1     :     0.000078
      f-1     :    -0.000007
      f+2     :     0.000077
      f-2     :     0.000085
      f+3     :    -0.000019
      f-3     :     0.000028
 13 Aus       :    -0.049187  s :    -0.049187
      pz      :    -0.024779  p :    -0.058701
      px      :    -0.019702
      py      :    -0.014220
      dz2     :     0.000869  d :     0.000630
      dxz     :    -0.000677
      dyz     :    -0.000476
      dx2y2   :     0.001528
      dxy     :    -0.000613
      f0      :     0.000049  f :     0.000307
      f+1     :    -0.000010
      f-1     :     0.000020
      f+2     :     0.000047
      f-2     :     0.000058
      f+3     :     0.000083
      f-3     :     0.000059
 14 Crs       :     0.015440  s :     0.015440
      pz      :     0.019285  p :     0.049780
      px      :     0.014768
      py      :     0.015727
      dz2     :     0.760409  d :     3.520948
      dxz     :     0.701713
      dyz     :     0.507104
      dx2y2   :     0.688981
      dxy     :     0.862741
      f0      :     0.000024  f :     0.000094
      f+1     :     0.000016
      f-1     :     0.000021
      f+2     :     0.000015
      f-2     :     0.000014
      f+3     :     0.000001
      f-3     :     0.000004


                      *****************************
                      * MAYER POPULATION ANALYSIS *
                      *****************************

  NA   - Mulliken gross atomic population
  ZA   - Total nuclear charge
  QA   - Mulliken gross atomic charge
  VA   - Mayer's total valence
  BVA  - Mayer's bonded valence
  FA   - Mayer's free valence

  ATOM       NA         ZA         QA         VA         BVA        FA
  0 Au    18.6894    19.0000     0.3106     1.2593     1.2527     0.0065
  1 Au    18.8718    19.0000     0.1282     1.3886     1.3815     0.0071
  2 Au    18.9485    19.0000     0.0515     1.6391     1.5713     0.0678
  3 Au    18.6899    19.0000     0.3101     1.2611     1.2546     0.0065
  4 Au    18.6957    19.0000     0.3043     1.7333     1.7268     0.0065
  5 Au    18.8630    19.0000     0.1370     1.8084     1.7931     0.0154
  6 Au    18.8612    19.0000     0.1388     1.8099     1.7965     0.0134
  7 Au    18.5078    19.0000     0.4922     1.4177     1.4057     0.0120
  8 Au    18.3771    19.0000     0.6229     1.3495     1.3356     0.0140
  9 Au    18.5433    19.0000     0.4567     1.4120     1.4038     0.0083
 10 Au    18.4341    19.0000     0.5659     1.2747     1.2415     0.0332
 11 Au    18.3788    19.0000     0.6212     1.3478     1.3337     0.0141
 12 Au    18.6968    19.0000     0.3032     1.7317     1.7250     0.0067
 13 Au    18.5466    19.0000     0.4534     1.4175     1.4101     0.0074
 14 Cr    28.8960    24.0000    -4.8960    10.7156     6.7388     3.9768

  Mayer bond orders larger than 0.100000
B(  0-Au,  1-Au) :   0.2305 B(  0-Au,  2-Au) :   0.1721 B(  0-Au,  6-Au) :   0.2279 
B(  0-Au, 12-Au) :   0.1629 B(  0-Au, 14-Cr) :   0.3948 B(  1-Au,  3-Au) :   0.2288 
B(  1-Au,  5-Au) :   0.2158 B(  1-Au,  6-Au) :   0.2168 B(  1-Au, 14-Cr) :   0.4258 
B(  2-Au,  3-Au) :   0.1725 B(  2-Au,  4-Au) :   0.2282 B(  2-Au, 10-Au) :   0.1056 
B(  2-Au, 12-Au) :   0.2303 B(  2-Au, 14-Cr) :   0.4378 B(  3-Au,  4-Au) :   0.1651 
B(  3-Au,  5-Au) :   0.2303 B(  3-Au, 14-Cr) :   0.3932 B(  4-Au,  8-Au) :   0.1585 
B(  4-Au, 13-Au) :   0.2819 B(  4-Au, 14-Cr) :   0.6059 B(  5-Au,  7-Au) :   0.2345 
B(  5-Au,  8-Au) :   0.1898 B(  5-Au, 14-Cr) :   0.5924 B(  6-Au,  7-Au) :   0.2340 
B(  6-Au, 11-Au) :   0.1901 B(  6-Au, 14-Cr) :   0.6014 B(  7-Au, 10-Au) :   0.1211 
B(  7-Au, 14-Cr) :   0.5024 B(  8-Au, 10-Au) :   0.1162 B(  8-Au, 13-Au) :   0.1181 
B(  8-Au, 14-Cr) :   0.4868 B(  9-Au, 10-Au) :   0.1420 B(  9-Au, 11-Au) :   0.1193 
B(  9-Au, 12-Au) :   0.2803 B(  9-Au, 13-Au) :   0.2255 B(  9-Au, 14-Cr) :   0.4178 
B( 10-Au, 11-Au) :   0.1145 B( 10-Au, 13-Au) :   0.1404 B( 10-Au, 14-Cr) :   0.3641 
B( 11-Au, 12-Au) :   0.1579 B( 11-Au, 14-Cr) :   0.4847 B( 12-Au, 14-Cr) :   0.6063 
B( 13-Au, 14-Cr) :   0.4253 

-------
TIMINGS
-------

Total SCF time: 0 days 0 hours 24 min 18 sec 

Total time                  ....    1458.380 sec
Sum of individual times     ....    1431.072 sec  ( 98.1%)

Fock matrix formation       ....    1145.260 sec  ( 78.5%)
  Split-RI-J                ....     103.749 sec  (  9.1% of F)
  Chain of spheres X        ....     846.516 sec  ( 73.9% of F)
  XC integration            ....     122.179 sec  ( 10.7% of F)
    Basis function eval.    ....      14.073 sec  ( 11.5% of XC)
    Density eval.           ....      51.538 sec  ( 42.2% of XC)
    XC-Functional eval.     ....       2.227 sec  (  1.8% of XC)
    XC-Potential eval.      ....      34.144 sec  ( 27.9% of XC)
Diagonalization             ....     115.643 sec  (  7.9%)
Density matrix formation    ....       5.252 sec  (  0.4%)
Population analysis         ....       2.951 sec  (  0.2%)
Initial guess               ....       0.695 sec  (  0.0%)
Orbital Transformation      ....       0.000 sec  (  0.0%)
Orbital Orthonormalization  ....       0.384 sec  (  0.0%)
DIIS solution               ....     150.069 sec  ( 10.3%)
Grid generation             ....      11.202 sec  (  0.8%)

Maximum memory used throughout the entire SCF-calculation: 148.0 MB


           ************************************************************
           *        Program running with 6 parallel MPI-processes     *
           *              working on a common directory               *
           ************************************************************

------------------------------------------------------------------------------
                                ORCA  MP2 
------------------------------------------------------------------------------

Freezing NCore=10 chemical core electrons

   <<< Use J-auxbasis for calculation of Separable RI-J derivative contributions (Dim=1335) >>> 


-------------
RI-MP2 ENERGY
-------------
Dimension of the basis                    ...  605
Memory devoted to MP2                     ...  256 MB   
Data format for buffers                   ... DOUBLE
Compression type for matrix containers    ... UNCOMPRESSED
Overall scaling of the MP2 energy         ...   2.700e-01
Calculating two index integrals           ... done (    0.087 sec)
Cholesky decomposition of V**-1           ... done (   28.653 sec)

-----------------
RI-TRANSFORMATION (AUX index driven)
-----------------

Dimension of the orbital-basis         ... 605
Dimension of the aux-basis             ... 2296
Transformation of internal/external MOs...    5- 145 to  146- 604
Number Format for Storage              ... Double (8 Byte)
Integral mode                          ... Direct

First Phase: integral generation and transformation of MO indices
  Aux angular momentum 0               ... done (    0.466 sec)
  Aux angular momentum 1               ... done (    1.092 sec)
  Aux angular momentum 2               ... done (    1.785 sec)
  Aux angular momentum 3               ... done (    1.444 sec)
  Aux angular momentum 4               ... done (    1.065 sec)
  Aux angular momentum 5               ... done (    1.276 sec)
Closing buffer VIA ( 1.11 GB; CompressionRatio= 1.00)
  Phase 1 completed in     8.016 sec
Second Phase: sorting and transformation of aux index

IA-Transformation
Memory available                       ... 164 MB 
Max. # MO pairs treated in a batch     ... 19    
# of internal orbitals                 ... 141
# batches for internal orbitals        ... 2
Closing buffer IAV ( 1.11 GB; CompressionRatio= 1.00)
(ia|v) transformation done in     6.816 sec

  Phase 2 completed in     7.163 sec
RI-Integral transformation completed in    15.327 sec

-----------------
RI-TRANSFORMATION (AUX index driven)
-----------------

Dimension of the orbital-basis         ... 605
Dimension of the aux-basis             ... 2296
Transformation of internal/external MOs...    5- 143 to  144- 604
Number Format for Storage              ... Double (8 Byte)
Integral mode                          ... Direct

First Phase: integral generation and transformation of MO indices
  Aux angular momentum 0               ... done (    0.529 sec)
  Aux angular momentum 1               ... done (    1.205 sec)
  Aux angular momentum 2               ... done (    1.518 sec)
  Aux angular momentum 3               ... done (    1.502 sec)
  Aux angular momentum 4               ... done (    1.392 sec)
  Aux angular momentum 5               ... done (    1.089 sec)
Closing buffer VIA ( 1.10 GB; CompressionRatio= 1.00)
  Phase 1 completed in     7.788 sec
Second Phase: sorting and transformation of aux index

IA-Transformation
Memory available                       ... 164 MB 
Max. # MO pairs treated in a batch     ... 19    
# of internal orbitals                 ... 139
# batches for internal orbitals        ... 2
Closing buffer IAV ( 1.10 GB; CompressionRatio= 1.00)
(ia|v) transformation done in     7.035 sec

  Phase 2 completed in     7.337 sec
RI-Integral transformation completed in    15.216 sec
Opening buffers                              ... done

Starting loop over batches of integrals:

Operator 0  - window                       ... (  5-145)x(146-604)
Operator 0  - Memory available             ...   256 MB
Operator 0  - Memory needed per MO         ...   8.0 MB
Operator 0  - Number of orbitals per batch ... 22
Operator 0  - Number of batches            ... 2

OPERATOR  0   PASS   0:  MOs     5 ...   26 +   27 ...   48 +   49 ...   70 +   71 ...   92
                            +   93 ...  114 +  115 ...  136
  Reading integrals       ... ok
  Internal MO   7
  Internal MO  10
  Internal MO  13
  Internal MO  16
  Internal MO  19
  Internal MO  22
  Internal MO  25
OPERATOR  0   PASS   1:  MOs   137 ...  138 +  139 ...  140 +  141 ...  142 +  143 ...  143
                            +  144 ...  144 +  145 ...  145
  Reading integrals       ... ok
  Internal MO 145

Operator 1  - window                       ... (  5-143)x(144-604)
Operator 1  - Memory available             ...   256 MB
Operator 1  - Memory needed per MO         ...   8.1 MB
Operator 1  - Number of orbitals per batch ... 22
Operator 1  - Number of batches            ... 2

OPERATOR  1   PASS   0:  MOs     5 ...   26 +   27 ...   48 +   49 ...   70 +   71 ...   92
                            +   93 ...  114 +  115 ...  136
  Reading integrals       ... ok
  Internal MO   7
  Internal MO  10
  Internal MO  13
  Internal MO  16
  Internal MO  19
  Internal MO  22
  Internal MO  25
OPERATOR  1   PASS   1:  MOs   137 ...  138 +  139 ...  139 +  140 ...  140 +  141 ...  141
                            +  142 ...  142 +  143 ...  143
  Reading integrals       ... ok
Time spent in pair loops =   658.293 sec
Deleting buffer (Ka|jb)[aa] ...done
Deleting buffer (Ka|jb)[ba] ...done
Deleting buffer (Ka|jb)[ab] ...done
Deleting buffer (Ka|jb)[bb] ...done

Correlation energy components}
 E2 and T2 for alpha/alpha pairs :     -0.433755034 Eh      0.000000000
 E2 and T2 for beta/beta   pairs :     -0.418196567 Eh      0.000000000
 E2 and T2 for alpha/beta  pairs :     -1.425279782 Eh      0.000000000


-----------------------------------------------
 RI-MP2 CORRELATION ENERGY:     -2.277231383 Eh
-----------------------------------------------


-------
TIMINGS
-------

Total time                :  731.746 sec
Integral trafo            :   30.570 sec (  4.2%)
I/O of integrals          :    0.339 sec (  0.0%)
K(i,j) Operators          :  354.649 sec ( 48.5%)
T(i,j) pair energies      :    8.876 sec (  1.2%)
V-calculation             :    0.087 sec (  0.0%)
V**(-1/2)                 :   28.653 sec (  3.9%)
Gamma(ia|P)               :    0.000 sec (  0.0%)
Gamma-Trafo               :    0.000 sec (  0.0%)
D(virtual)                :    0.000 sec (  0.0%)
D(internal)               :    0.000 sec (  0.0%)
W(virtual)                :    0.000 sec (  0.0%)
W(internal)               :    0.000 sec (  0.0%)
L(virtual)                :    0.000 sec (  0.0%)
L(internal)               :    0.000 sec (  0.0%)
G(D)                      :    0.000 sec (  0.0%)
G(Z)                      :    0.000 sec (  0.0%)
Z-Vector Solution         :    0.000 sec (  0.0%)
3-Index Derivative        :    0.000 sec (  0.0%)
2-Index Derivative        :    0.000 sec (  0.0%)
Separable Gradient (RIJ)  :    0.000 sec (  0.0%)
Separable Gradient (COSX) :    0.000 sec (  0.0%)


---------------------------------------
MP2 TOTAL ENERGY:    -2942.511596368 Eh
---------------------------------------

Maximum memory used throughout the entire MP2-calculation: 300.2 MB

-------------------------   --------------------
FINAL SINGLE POINT ENERGY     -2942.511596368060
-------------------------   --------------------


                            ***************************************
                            *     ORCA property calculations      *
                            ***************************************


  WARNING: The energy has been calculated at the MP2 level but the densities
           used in the property calculations are still SCF densities
           MP2 response densities have not been calculated 
           use %mp2 Density relaxed end
           or  %mp2 Density unrelaxed end

                                    ---------------------
                                    Active property flags
                                    ---------------------
   (+) Dipole Moment


------------------------------------------------------------------------------
                       ORCA ELECTRIC PROPERTIES CALCULATION
------------------------------------------------------------------------------

Dipole Moment Calculation                       ... on
Quadrupole Moment Calculation                   ... off
Polarizability Calculation                      ... off
GBWName                                         ... b2plyp_job2.gbw
Electron density                                ... b2plyp_job2.scfp
The origin for moment calculation is the CENTER OF MASS  = (16.615611, 15.863042 13.001125)

-------------
DIPOLE MOMENT
-------------
                                X             Y             Z
Electronic contribution:    -11.48172      16.91390       5.19129
Nuclear contribution   :     11.47306     -16.88686      -5.18832
                        -----------------------------------------
Total Dipole Moment    :     -0.00865       0.02705       0.00297
                        -----------------------------------------
Magnitude (a.u.)       :      0.02855
Magnitude (Debye)      :      0.07257



--------------------
Rotational spectrum 
--------------------
 
Rotational constants in cm-1:     0.001247     0.000996     0.000865 
Rotational constants in MHz :    37.384559    29.852951    25.943672 

 Dipole components along the rotational axes: 
x,y,z [a.u.] :     0.023795    -0.001731    -0.015685 
x,y,z [Debye]:     0.060482    -0.004400    -0.039867 

 

Timings for individual modules:

Sum of individual times         ...     2223.557 sec (=  37.059 min)
GTO integral calculation        ...       30.955 sec (=   0.516 min)   1.4 %
SCF iterations                  ...     1459.355 sec (=  24.323 min)  65.6 %
MP2 module                      ...      733.247 sec (=  12.221 min)  33.0 %



                             ****ORCA TERMINATED NORMALLY****
TOTAL RUN TIME: 0 days 1 hours 45 minutes 2 seconds 446 msec
