
                                 *****************
                                 * O   R   C   A *
                                 *****************

                                            #,                                       
                                            ###                                      
                                            ####                                     
                                            #####                                    
                                            ######                                   
                                           ########,                                 
                                     ,,################,,,,,                         
                               ,,#################################,,                 
                          ,,##########################################,,             
                       ,#########################################, ''#####,          
                    ,#############################################,,   '####,        
                  ,##################################################,,,,####,       
                ,###########''''           ''''###############################       
              ,#####''   ,,,,##########,,,,          '''####'''          '####       
            ,##' ,,,,###########################,,,                        '##       
           ' ,,###''''                  '''############,,,                           
         ,,##''                                '''############,,,,        ,,,,,,###''
      ,#''                                            '''#######################'''  
     '                                                          ''''####''''         
             ,#######,   #######,   ,#######,      ##                                
            ,#'     '#,  ##    ##  ,#'     '#,    #''#        ######   ,####,        
            ##       ##  ##   ,#'  ##            #'  '#       #        #'  '#        
            ##       ##  #######   ##           ,######,      #####,   #    #        
            '#,     ,#'  ##    ##  '#,     ,#' ,#      #,         ##   #,  ,#        
             '#######'   ##     ##  '#######'  #'      '#     #####' # '####'        



                  #######################################################
                  #                        -***-                        #
                  #          Department of theory and spectroscopy      #
                  #    Directorship and core code : Frank Neese         #
                  #        Max Planck Institute fuer Kohlenforschung    #
                  #                Kaiser Wilhelm Platz 1               #
                  #                 D-45470 Muelheim/Ruhr               #
                  #                      Germany                        #
                  #                                                     #
                  #                  All rights reserved                #
                  #                        -***-                        #
                  #######################################################


                         Program Version 5.0.3 -  RELEASE  -


 With contributions from (in alphabetic order):
   Daniel Aravena         : Magnetic Suceptibility
   Michael Atanasov       : Ab Initio Ligand Field Theory (pilot matlab implementation)
   Alexander A. Auer      : GIAO ZORA, VPT2 properties, NMR spectrum
   Ute Becker             : Parallelization
   Giovanni Bistoni       : ED, misc. LED, open-shell LED, HFLD
   Martin Brehm           : Molecular dynamics
   Dmytro Bykov           : SCF Hessian
   Vijay G. Chilkuri      : MRCI spin determinant printing, contributions to CSF-ICE
   Dipayan Datta          : RHF DLPNO-CCSD density
   Achintya Kumar Dutta   : EOM-CC, STEOM-CC
   Dmitry Ganyushin       : Spin-Orbit,Spin-Spin,Magnetic field MRCI
   Miquel Garcia          : C-PCM and meta-GGA Hessian, CC/C-PCM, Gaussian charge scheme
   Yang Guo               : DLPNO-NEVPT2, F12-NEVPT2, CIM, IAO-localization
   Andreas Hansen         : Spin unrestricted coupled pair/coupled cluster methods
   Benjamin Helmich-Paris : MC-RPA, TRAH-SCF, COSX integrals
   Lee Huntington         : MR-EOM, pCC
   Robert Izsak           : Overlap fitted RIJCOSX, COSX-SCS-MP3, EOM
   Marcus Kettner         : VPT2
   Christian Kollmar      : KDIIS, OOCD, Brueckner-CCSD(T), CCSD density, CASPT2, CASPT2-K
   Simone Kossmann        : Meta GGA functionals, TD-DFT gradient, OOMP2, MP2 Hessian
   Martin Krupicka        : Initial AUTO-CI
   Lucas Lang             : DCDCAS
   Marvin Lechner         : AUTO-CI (C++ implementation), FIC-MRCC
   Dagmar Lenk            : GEPOL surface, SMD
   Dimitrios Liakos       : Extrapolation schemes; Compound Job, initial MDCI parallelization
   Dimitrios Manganas     : Further ROCIS development; embedding schemes
   Dimitrios Pantazis     : SARC Basis sets
   Anastasios Papadopoulos: AUTO-CI, single reference methods and gradients
   Taras Petrenko         : DFT Hessian,TD-DFT gradient, ASA, ECA, R-Raman, ABS, FL, XAS/XES, NRVS
   Peter Pinski           : DLPNO-MP2, DLPNO-MP2 Gradient
   Christoph Reimann      : Effective Core Potentials
   Marius Retegan         : Local ZFS, SOC
   Christoph Riplinger    : Optimizer, TS searches, QM/MM, DLPNO-CCSD(T), (RO)-DLPNO pert. Triples
   Tobias Risthaus        : Range-separated hybrids, TD-DFT gradient, RPA, STAB
   Michael Roemelt        : Original ROCIS implementation
   Masaaki Saitow         : Open-shell DLPNO-CCSD energy and density
   Barbara Sandhoefer     : DKH picture change effects
   Avijit Sen             : IP-ROCIS
   Kantharuban Sivalingam : CASSCF convergence, NEVPT2, FIC-MRCI
   Bernardo de Souza      : ESD, SOC TD-DFT
   Georgi Stoychev        : AutoAux, RI-MP2 NMR, DLPNO-MP2 response
   Willem Van den Heuvel  : Paramagnetic NMR
   Boris Wezisla          : Elementary symmetry handling
   Frank Wennmohs         : Technical directorship


 We gratefully acknowledge several colleagues who have allowed us to
 interface, adapt or use parts of their codes:
   Stefan Grimme, W. Hujo, H. Kruse, P. Pracht,  : VdW corrections, initial TS optimization,
                  C. Bannwarth, S. Ehlert          DFT functionals, gCP, sTDA/sTD-DF
   Ed Valeev, F. Pavosevic, A. Kumar             : LibInt (2-el integral package), F12 methods
   Garnet Chan, S. Sharma, J. Yang, R. Olivares  : DMRG
   Ulf Ekstrom                                   : XCFun DFT Library
   Mihaly Kallay                                 : mrcc  (arbitrary order and MRCC methods)
   Jiri Pittner, Ondrej Demel                    : Mk-CCSD
   Frank Weinhold                                : gennbo (NPA and NBO analysis)
   Christopher J. Cramer and Donald G. Truhlar   : smd solvation model
   Lars Goerigk                                  : TD-DFT with DH, B97 family of functionals
   V. Asgeirsson, H. Jonsson                     : NEB implementation
   FAccTs GmbH                                   : IRC, NEB, NEB-TS, DLPNO-Multilevel, CI-OPT
                                                   MM, QMMM, 2- and 3-layer-ONIOM, Crystal-QMMM,
                                                   LR-CPCM, SF, NACMEs, symmetry and pop. for TD-DFT,
                                                   nearIR, NL-DFT gradient (VV10), updates on ESD,
                                                   ML-optimized integration grids
   S Lehtola, MJT Oliveira, MAL Marques          : LibXC Library
   Liviu Ungur et al                             : ANISO software


 Your calculation uses the libint2 library for the computation of 2-el integrals
 For citations please refer to: http://libint.valeyev.net

 Your ORCA version has been built with support for libXC version: 5.1.0
 For citations please refer to: https://tddft.org/programs/libxc/

 This ORCA versions uses:
   CBLAS   interface :  Fast vector & matrix operations
   LAPACKE interface :  Fast linear algebra routines
   SCALAPACK package :  Parallel linear algebra routines
   Shared memory     :  Shared parallel matrices
   BLAS/LAPACK       :  OpenBLAS 0.3.15  USE64BITINT DYNAMIC_ARCH NO_AFFINITY Sandybridge SINGLE_THREADED
        Core in use  :  Sandybridge
   Copyright (c) 2011-2014, The OpenBLAS Project




***************************************
The coordinates will be read from file: pbe.xyz
***************************************


================================================================================

cite the ECPs for Au [Def2-ECP] as follows:
Ce-Yb(ecp-28): M. Dolg, H. Stoll, H.Preuss, J. Chem. Phys., 1989, 90, 1730-1734.
Y-Cd(ecp-28), Hf-Hg(ecp-46): D. Andrae,U. Haeussermann, M. Dolg, H. Stoll, H. Preuss, Theor. Chim. Acta, 1990, 77, 123-141.
In-Sb(ecp-28), Tl-Bi(ecp-46): B. Metz, H. Stoll, M. Dolg, J. Chem. Phys., 2000, 113, 2563-2569.
Te-Xe(ecp-28), Po-Rn(ecp-46): K. A. Peterson, D. Figgen, E. Goll, H. Stoll, M. Dolg, J. Chem. Phys., 2003, 119, 11113-11123.
Rb(ecp-28), Cs(ecp-46): T. Leininger, A. Nicklass, W. Kuechle, H. Stoll, M. Dolg, A. Bergner, Chem. Phys. Lett., 1996, 255, 274-280.
Sr(ecp-28), Ba(ecp-46): M. Kaupp, P. V. Schleyer, H. Stoll and H. Preuss, J. Chem. Phys., 1991, 94, 1360-1366.
La(ecp-46): M. Dolg, H. Stoll, A. Savin, H. Preuss, Theor. Chim. Acta, 1989, 75, 173-194.
Lu(ecp-28): X. Cao, M. Dolg, J. Chem. Phys., 2001, 115, 7348-7355.

ECP parameters for Au [Def2-ECP] have been obtained from:
TURBOMOLE (7.0.2)

----- Orbital basis set information -----
Your calculation utilizes the basis: def2-TZVP
   F. Weigend and R. Ahlrichs, Phys. Chem. Chem. Phys. 7, 3297 (2005).

----- AuxJ basis set information -----
Your calculation utilizes the auxiliary basis: def2/J
   F. Weigend, Phys. Chem. Chem. Phys. 8, 1057 (2006).

----- AuxC basis set information -----
Your calculation utilizes the auxiliary basis: def2-TZVP/C
  H-La, Hf-Rn : A. Hellweg, C. Hattig, S. Hofener and W. Klopper, Theor. Chem. Acc. 117, 587 (2007).
        Ce-Lu : J. Chmela and M. E. Harding, Mol. Phys. (2018).

================================================================================
                                        WARNINGS
                       Please study these warnings very carefully!
================================================================================


INFO   : the flag for use of the SHARK integral package has been found!

================================================================================
                                       INPUT FILE
================================================================================
NAME = casscf.inp
|  1> !CASSCF def2-TZVP def2-TZVP/C
|  2> !MOREAD RIJCOSX
|  3> %maxcore 6000
|  4> %moinp "pbe.qro"
|  5> %pal nprocs 16 end 
|  6> 
|  7> %casscf
|  8>  mult 6,4
|  9>  bweight 1,1
| 10>  nroots 1,24
| 11>  nel 5
| 12>  norb 5
| 13> end
| 14> 
| 15> 
| 16> *xyzfile 0 6 pbe.xyz
| 17> 
| 18> 
| 19>                          ****END OF INPUT****
================================================================================

                       ****************************
                       * Single Point Calculation *
                       ****************************

---------------------------------
CARTESIAN COORDINATES (ANGSTROEM)
---------------------------------
  Au     6.325335    7.391827    9.838669
  Au    10.556593    9.405341    9.467113
  Au     9.189663    7.078552    8.983180
  Au     9.786278    9.203624    6.830432
  Au     7.875629    9.756794    9.499126
  Au     7.416584   10.692633    6.779212
  Au     5.351721    9.799354    8.525262
  Au     3.126037    8.862164    7.310100
  Au     7.171486    5.417867    7.958444
  Au     4.738814    6.653025    7.652980
  Au     7.970837    8.669067    4.841815
  Au     9.184331    6.425365    6.243661
  Au     5.289380    8.905788    5.628248
  Au     6.422448    6.348046    5.306814
  Mn     7.217861    8.060074    7.370086

----------------------------
CARTESIAN COORDINATES (A.U.)
----------------------------
  NO LB      ZA    FRAG     MASS         X           Y           Z
   0 Au   19.0000*   0   196.966   11.953151   13.968528   18.592389
   1 Au   19.0000*   0   196.966   19.949070   17.773519   17.890251
   2 Au   19.0000*   0   196.966   17.365946   13.376525   16.975749
   3 Au   19.0000*   0   196.966   18.493385   17.392328   12.907646
   4 Au   19.0000*   0   196.966   14.882782   18.437668   17.950746
   5 Au   19.0000*   0   196.966   14.015312   20.206149   12.810854
   6 Au   19.0000*   0   196.966   10.113286   18.518095   16.110410
   7 Au   19.0000*   0   196.966    5.907353   16.747064   13.814086
   8 Au   19.0000*   0   196.966   13.552145   10.238284   15.039280
   9 Au   19.0000*   0   196.966    8.955061   12.572396   14.462036
  10 Au   19.0000*   0   196.966   15.062700   16.382162    9.149704
  11 Au   19.0000*   0   196.966   17.355870   12.142181   11.798809
  12 Au   19.0000*   0   196.966    9.995480   16.829500   10.635847
  13 Au   19.0000*   0   196.966   12.136667   11.996068   10.028425
  14 Mn   25.0000    0    54.940   13.639781   15.231333   13.927444
* core charge reduced due to ECP

--------------------------------
INTERNAL COORDINATES (ANGSTROEM)
--------------------------------
 Au     0   0   0     0.000000000000     0.00000000     0.00000000
 Au     1   0   0     4.700620892571     0.00000000     0.00000000
 Au     2   1   0     2.741648228413    37.02457200     0.00000000
 Au     2   1   3     2.754298809880    78.02680941    69.63992143
 Au     2   1   3     2.704091836007    33.10064173   150.74038293
 Au     4   2   1     2.799146700029   102.43471335    59.27580528
 Au     5   2   1     2.705611655113   157.31613939   278.62791516
 Au     7   5   2     2.703444563343   157.56657770    53.77645983
 Au     3   2   1     2.807311181800   157.65393824    54.41101805
 Au     9   3   2     2.745326623966   114.29866908   330.29654538
 Au     4   2   1     2.745209161345   153.21152606     8.33052049
 Au     3   2   1     2.816317602606   111.68335928   118.94667525
 Au     8   7   5     2.740544385909    67.69395160   297.75173169
 Au    13   8   7     2.815884460408   111.91499892   101.87223472
 Mn     6   4   2     2.705363286864    62.64857054   271.21158831

---------------------------
INTERNAL COORDINATES (A.U.)
---------------------------
 Au     0   0   0     0.000000000000     0.00000000     0.00000000
 Au     1   0   0     8.882886146347     0.00000000     0.00000000
 Au     2   1   0     5.180964307250    37.02457200     0.00000000
 Au     2   1   3     5.204870441658    78.02680941    69.63992143
 Au     2   1   3     5.109993011025    33.10064173   150.74038293
 Au     4   2   1     5.289620671724   102.43471335    59.27580528
 Au     5   2   1     5.112865052910   157.31613939   278.62791516
 Au     7   5   2     5.108769842956   157.56657770    53.77645983
 Au     3   2   1     5.305049306297   157.65393824    54.41101805
 Au     9   3   2     5.187915467458   114.29866908   330.29654538
 Au     4   2   1     5.187693495273   153.21152606     8.33052049
 Au     3   2   1     5.322068975068   111.68335928   118.94667525
 Au     8   7   5     5.178878347223    67.69395160   297.75173169
 Au    13   8   7     5.321250454935   111.91499892   101.87223472
 Mn     6   4   2     5.112395704939    62.64857054   271.21158831

---------------------
BASIS SET INFORMATION
---------------------
There are 2 groups of distinct atoms

 Group   1 Type Au  : 8s7p6d1f contracted to 6s4p3d1f pattern {311111/4111/411/1}
 Group   2 Type Mn  : 17s11p7d1f contracted to 6s4p4d1f pattern {842111/6311/4111/1}

Atom   0Au   basis set group =>   1
Atom   1Au   basis set group =>   1
Atom   2Au   basis set group =>   1
Atom   3Au   basis set group =>   1
Atom   4Au   basis set group =>   1
Atom   5Au   basis set group =>   1
Atom   6Au   basis set group =>   1
Atom   7Au   basis set group =>   1
Atom   8Au   basis set group =>   1
Atom   9Au   basis set group =>   1
Atom  10Au   basis set group =>   1
Atom  11Au   basis set group =>   1
Atom  12Au   basis set group =>   1
Atom  13Au   basis set group =>   1
Atom  14Mn   basis set group =>   2
---------------------------------
AUXILIARY/J BASIS SET INFORMATION
---------------------------------
There are 2 groups of distinct atoms

 Group   1 Type Au  : 11s5p5d3f3g contracted to 8s5p5d2f3g pattern {41111111/11111/11111/21/111}
 Group   2 Type Mn  : 19s5p5d3f3g contracted to 8s5p5d2f3g pattern {121111111/11111/11111/21/111}

Atom   0Au   basis set group =>   1
Atom   1Au   basis set group =>   1
Atom   2Au   basis set group =>   1
Atom   3Au   basis set group =>   1
Atom   4Au   basis set group =>   1
Atom   5Au   basis set group =>   1
Atom   6Au   basis set group =>   1
Atom   7Au   basis set group =>   1
Atom   8Au   basis set group =>   1
Atom   9Au   basis set group =>   1
Atom  10Au   basis set group =>   1
Atom  11Au   basis set group =>   1
Atom  12Au   basis set group =>   1
Atom  13Au   basis set group =>   1
Atom  14Mn   basis set group =>   2
---------------------------------
AUXILIARY/C BASIS SET INFORMATION
---------------------------------
There are 2 groups of distinct atoms

 Group   1 Type Au  : 8s8p7d5f3g2h contracted to 8s8p7d5f3g2h pattern {11111111/11111111/1111111/11111/111/11}
 Group   2 Type Mn  : 11s9p8d6f5g2h contracted to 9s8p8d6f5g2h pattern {311111111/21111111/11111111/111111/11111/11}

Atom   0Au   basis set group =>   1
Atom   1Au   basis set group =>   1
Atom   2Au   basis set group =>   1
Atom   3Au   basis set group =>   1
Atom   4Au   basis set group =>   1
Atom   5Au   basis set group =>   1
Atom   6Au   basis set group =>   1
Atom   7Au   basis set group =>   1
Atom   8Au   basis set group =>   1
Atom   9Au   basis set group =>   1
Atom  10Au   basis set group =>   1
Atom  11Au   basis set group =>   1
Atom  12Au   basis set group =>   1
Atom  13Au   basis set group =>   1
Atom  14Mn   basis set group =>   2
-------------------------
ECP PARAMETER INFORMATION
-------------------------

 Group 1, Type Au ECP Def2-ECP (replacing 60 core electrons, lmax=3)

Atom   0Au   ECP group =>   1
Atom   1Au   ECP group =>   1
Atom   2Au   ECP group =>   1
Atom   3Au   ECP group =>   1
Atom   4Au   ECP group =>   1
Atom   5Au   ECP group =>   1
Atom   6Au   ECP group =>   1
Atom   7Au   ECP group =>   1
Atom   8Au   ECP group =>   1
Atom   9Au   ECP group =>   1
Atom  10Au   ECP group =>   1
Atom  11Au   ECP group =>   1
Atom  12Au   ECP group =>   1
Atom  13Au   ECP group =>   1



           ************************************************************
           *        Program running with 16 parallel MPI-processes    *
           *              working on a common directory               *
           ************************************************************
------------------------------------------------------------------------------
                           ORCA GTO INTEGRAL CALCULATION
                           -- RI-GTO INTEGRALS CHOSEN --
------------------------------------------------------------------------------
------------------------------------------------------------------------------
                   ___                                                        
                  /   \      - P O W E R E D   B Y -                         
                 /     \                                                     
                 |  |  |   _    _      __       _____    __    __             
                 |  |  |  | |  | |    /  \     |  _  \  |  |  /  |          
                  \  \/   | |  | |   /    \    | | | |  |  | /  /          
                 / \  \   | |__| |  /  /\  \   | |_| |  |  |/  /          
                |  |  |   |  __  | /  /__\  \  |    /   |      \           
                |  |  |   | |  | | |   __   |  |    \   |  |\   \          
                \     /   | |  | | |  |  |  |  | |\  \  |  | \   \       
                 \___/    |_|  |_| |__|  |__|  |_| \__\ |__|  \__/        
                                                                              
                      - O R C A' S   B I G   F R I E N D -                    
                                      &                                       
                       - I N T E G R A L  F E E D E R -                       
                                                                              
 v1 FN, 2020, v2 2021                                                         
------------------------------------------------------------------------------


Reading SHARK input file casscf.SHARKINP.tmp ... ok
----------------------
SHARK INTEGRAL PACKAGE
----------------------

Number of atoms                             ...     15
Number of basis functions                   ...    605
Number of shells                            ...    211
Maximum angular momentum                    ...      3
Integral batch strategy                     ... SHARK/LIBINT Hybrid
RI-J (if used) integral strategy            ... SPLIT-RIJ (Revised 2003 algorithm where possible)
Printlevel                                  ...      1
Contraction scheme used                     ... SEGMENTED contraction
Coulomb Range Separation                    ... NOT USED
Exchange Range Separation                   ... NOT USED
Finite Nucleus Model                        ... NOT USED
Auxiliary Coulomb fitting basis             ... AVAILABLE
   # of basis functions in Aux-J            ...   1335
   # of shells in Aux-J                     ...    345
   Maximum angular momentum in Aux-J        ...      4
Auxiliary J/K fitting basis                 ... NOT available
Auxiliary Correlation fitting basis         ... AVAILABLE
   # of basis functions in Aux-C            ...   2296
   # of shells in Aux-C                     ...    500
   Maximum angular momentum in Aux-C        ...      5
Auxiliary 'external' fitting basis          ... NOT available
Integral threshold                          ...     1.000000e-10
Primitive cut-off                           ...     1.000000e-11
Primitive pair pre-selection threshold      ...     1.000000e-11

Calculating pre-screening integrals         ... done (  0.1 sec) Dimension = 211
Organizing shell pair data                  ... done (  0.7 sec)
Shell pair information
Total number of shell pairs                 ...     22366
Shell pairs after pre-screening             ...     17942
Total number of primitive shell pairs       ...     59609
Primitive shell pairs kept                  ...     34808
          la=0 lb=0:   2821 shell pairs
          la=1 lb=0:   4070 shell pairs
          la=1 lb=1:   1537 shell pairs
          la=2 lb=0:   3586 shell pairs
          la=2 lb=1:   2488 shell pairs
          la=2 lb=2:   1025 shell pairs
          la=3 lb=0:    956 shell pairs
          la=3 lb=1:    726 shell pairs
          la=3 lb=2:    632 shell pairs
          la=3 lb=3:    101 shell pairs

Calculating one electron integrals          ... done (  0.0 sec)
Calculating ECP integrals                   ... done ( 11.8 sec)
Calculating RI/J V-Matrix + Cholesky decomp.... done (  0.4 sec)
Calculating RI/C V-Matrix + Cholesky decomp.... done (  0.3 sec)
Calculating Nuclear repulsion               ... done (  0.0 sec) ENN=   5692.942792672414 Eh

SHARK setup successfully completed in  14.7 seconds

Maximum memory used throughout the entire GTOINT-calculation: 38.1 MB


           ************************************************************
           *        Program running with 16 parallel MPI-processes    *
           *              working on a common directory               *
           ************************************************************
-------------------------------------------------------------------------------
                                 ORCA SCF
-------------------------------------------------------------------------------

------------
SCF SETTINGS
------------
Hamiltonian:
 Ab initio Hamiltonian  Method          .... Hartree-Fock(GTOs)
 RI-approximation to the Coulomb term is turned on
   Number of AuxJ basis functions       .... 1335
   RIJ-COSX (HFX calculated with COS-X)).... on


General Settings:
 Integral files         IntName         .... casscf
 Hartree-Fock type      HFTyp           .... CASSCF
 Total Charge           Charge          ....    0
 Multiplicity           Mult            ....    6
 Number of Electrons    NEL             ....  291
 Basis Dimension        Dim             ....  605
 Nuclear Repulsion      ENuc            ....   5692.9427926724 Eh


Diagonalization of the overlap matrix:
Smallest eigenvalue                        ... 1.844e-04
Time for diagonalization                   ...    0.139 sec
Threshold for overlap eigenvalues          ... 1.000e-08
Number of eigenvalues below threshold      ... 0
Time for construction of square roots      ...    0.065 sec
Total time needed                          ...    0.207 sec

---------------------
INITIAL GUESS: MOREAD
---------------------
Guess MOs are being read from file: pbe.qro
Input Geometry matches current geometry (good)
Input basis set matches current basis set (good)
MOs were renormalized
Gram-Schmidt orthogonalization of all MOs with pivot on actives
                      ------------------
                      INITIAL GUESS DONE (   7.8 sec)
                      ------------------
--------------------
COSX GRID GENERATION
--------------------

GRIDX 1
-------
General Integration Accuracy     IntAcc      ... 3.816
Radial Grid Type                 RadialGrid  ... OptM3 with GC (2021)
Angular Grid (max. ang.)         AngularGrid ... 1 (Lebedev-50)
Angular grid pruning method      GridPruning ... 4 (adaptive)
Weight generation scheme         WeightScheme... Becke
Basis function cutoff            BFCut       ... 1.0000e-10
Integration weight cutoff        WCut        ... 1.0000e-14
Angular grids for H and He will be reduced by one unit
Partially contracted basis set               ... on
Rotationally invariant grid construction     ... off

Total number of grid points                  ...    17380
Total number of batches                      ...      280
Average number of points per batch           ...       62
Average number of grid points per atom       ...     1159
UseSFitting                                  ... on

GRIDX 2
-------
General Integration Accuracy     IntAcc      ... 4.020
Radial Grid Type                 RadialGrid  ... OptM3 with GC (2021)
Angular Grid (max. ang.)         AngularGrid ... 2 (Lebedev-110)
Angular grid pruning method      GridPruning ... 4 (adaptive)
Weight generation scheme         WeightScheme... Becke
Basis function cutoff            BFCut       ... 1.0000e-10
Integration weight cutoff        WCut        ... 1.0000e-14
Angular grids for H and He will be reduced by one unit
Partially contracted basis set               ... on
Rotationally invariant grid construction     ... off

Total number of grid points                  ...    52577
Total number of batches                      ...      828
Average number of points per batch           ...       63
Average number of grid points per atom       ...     3505
UseSFitting                                  ... on

GRIDX 3
-------
General Integration Accuracy     IntAcc      ... 4.338
Radial Grid Type                 RadialGrid  ... OptM3 with GC (2021)
Angular Grid (max. ang.)         AngularGrid ... 3 (Lebedev-194)
Angular grid pruning method      GridPruning ... 4 (adaptive)
Weight generation scheme         WeightScheme... Becke
Basis function cutoff            BFCut       ... 1.0000e-10
Integration weight cutoff        WCut        ... 1.0000e-14
Angular grids for H and He will be reduced by one unit
Partially contracted basis set               ... on
Rotationally invariant grid construction     ... off

Total number of grid points                  ...    95667
Total number of batches                      ...     1503
Average number of points per batch           ...       63
Average number of grid points per atom       ...     6378
UseSFitting                                  ... on

Time for X-Grid setup             =    1.358 sec



 ... the calculation is a CASSCF calculation -I'm leaving here GOOD LUCK!!!



           ************************************************************
           *        Program running with 16 parallel MPI-processes    *
           *              working on a common directory               *
           ************************************************************
-------------------------------------------------------------------------------
                              ORCA-CASSCF
-------------------------------------------------------------------------------

Setting up the integral package       ... done
Setting up the integral package (RI)  ... done
Building the CAS space                ... done (1 configurations for Mult=6)
Building the CAS space                ... done (21 configurations for Mult=4)

SYSTEM-SPECIFIC SETTINGS:
Number of active electrons          ...    5
Number of active orbitals           ...    5
Total number of electrons           ...  291
Total number of orbitals            ...  605
Total number aux. functions         ... 2296

Determined orbital ranges:
   Internal       0 -  142 ( 143 orbitals)
   Active       143 -  147 (   5 orbitals)
   External     148 -  604 ( 457 orbitals)
Number of rotation parameters      ...  68351

CI-STEP:
CI strategy                         ... General CI
Number of multiplicity blocks       ...    2
BLOCK  1 WEIGHT=   0.5000
  Multiplicity                      ...    6
  #(Configurations)                 ...    1
  #(CSFs)                           ...    1
  #(Roots)                          ...    1
    ROOT=0 WEIGHT=    0.500000

BLOCK  2 WEIGHT=   0.5000
  Multiplicity                      ...    4
  #(Configurations)                 ...   21
  #(CSFs)                           ...   24
  #(Roots)                          ...   24
    ROOT=0 WEIGHT=    0.020833
    ROOT=1 WEIGHT=    0.020833
    ROOT=2 WEIGHT=    0.020833
    ROOT=3 WEIGHT=    0.020833
    ROOT=4 WEIGHT=    0.020833
    ROOT=5 WEIGHT=    0.020833
    ROOT=6 WEIGHT=    0.020833
    ROOT=7 WEIGHT=    0.020833
    ROOT=8 WEIGHT=    0.020833
    ROOT=9 WEIGHT=    0.020833
    ROOT=10 WEIGHT=    0.020833
    ROOT=11 WEIGHT=    0.020833
    ROOT=12 WEIGHT=    0.020833
    ROOT=13 WEIGHT=    0.020833
    ROOT=14 WEIGHT=    0.020833
    ROOT=15 WEIGHT=    0.020833
    ROOT=16 WEIGHT=    0.020833
    ROOT=17 WEIGHT=    0.020833
    ROOT=18 WEIGHT=    0.020833
    ROOT=19 WEIGHT=    0.020833
    ROOT=20 WEIGHT=    0.020833
    ROOT=21 WEIGHT=    0.020833
    ROOT=22 WEIGHT=    0.020833
    ROOT=23 WEIGHT=    0.020833

  PrintLevel                        ...    1
  N(GuessMat)                       ...       512
  MaxDim(CI)                        ...        10
  MaxIter(CI)                       ...        64
  Energy Tolerance CI               ...  1.00e-08
  Residual Tolerance CI             ...  1.00e-08
  Shift(CI)                         ...  1.00e-04

INTEGRAL-TRANSFORMATION-STEP:
  Algorithm                         ... RI-MO

ORBITAL-IMPROVEMENT-STEP:
  Algorithm                         ... SuperCI(PT)
  Default Parametrization           ... CAYLEY
  Act-Act rotations                 ... depends on algorithm used

  Note: SuperCI(PT) will ignore FreezeIE, FreezeAct and FreezeGrad. In general Default settings are encouraged.
        In conjunction with ShiftUp, ShiftDn or GradScaling the performance of SuperCI(PT) is less optimal.  

  MaxRot                            ... 2.00e-01 
  Max. no of vectors (DIIS)         ... 15
  DThresh (cut-off) metric          ... 1.00e-06
  Switch step at gradient           ...  3.00e-02 
  Switch step at iteration          ...        50   
  Switch step to                    ... SuperCI(PT)    

SCF-SETTINGS:
  Incremental                       ... off
  RIJCOSX approximation             ... on
  UseFinalGrid                      ... on
  RI-JK approximation               ... off
  AO integral handling              ... DIRECT
  Integral Neglect Thresh           ...  1.00e-10
  Primitive cutoff TCut             ...  1.00e-11
  Energy convergence tolerance      ...  1.00e-07
  Orbital gradient convergence      ...  1.00e-03
  Max. number of iterations         ...        75  


FINAL ORBITALS:
  Active   Orbitals                 ... natural 
  Internal Orbitals                 ... canonical 
  External Orbitals                 ... canonical 

------------------
CAS-SCF ITERATIONS
------------------


MACRO-ITERATION   1: 
   --- Inactive Energy E0 = -3030.18120843 Eh
CI-ITERATION   0: 
 -3036.611746086   0.000000000000 (    0.00)
   CI-PROBLEM SOLVED
   DENSITIES MADE
CI-ITERATION   0: 
 -3036.567082263   0.000000000000 (    0.00)
 -3036.563271262   0.000000000000
 -3036.552513791   0.000000000000
 -3036.546770636   0.000000000000
 -3036.531761714   0.000000000000
 -3036.530440974   0.000000000000
 -3036.525338355   0.000000000000
 -3036.521518820   0.000000000000
 -3036.520474746   0.000000000000
 -3036.512457982   0.000000000000
 -3036.509144944   0.000000000000
 -3036.504095799   0.000000000000
 -3036.496663615   0.000000000000
 -3036.492159712   0.000000000000
 -3036.489898540   0.000000000000
 -3036.480428447   0.000000000000
 -3036.479356837   0.000000000000
 -3036.464102819   0.000000000000
 -3036.455436462   0.000000000000
 -3036.443114072   0.000000000000
 -3036.441027176   0.000000000000
 -3036.434805188   0.000000000000
 -3036.430278693   0.000000000000
 -3036.424637517   0.000000000000
   CI-PROBLEM SOLVED
   DENSITIES MADE

                 <<<<<<<<<<<<<<<<<<INITIAL CI STATE CHECK>>>>>>>>>>>>>>>>>>

BLOCK  1 MULT= 6 NROOTS= 1 
ROOT   0:  E=   -3036.6117460863 Eh
      1.00000 [     0]: 11111

BLOCK  2 MULT= 4 NROOTS=24 
ROOT   0:  E=   -3036.5670822630 Eh
      0.64543 [    20]: 01112
      0.26677 [    10]: 11111
      0.06619 [     0]: 21110
      0.01204 [    13]: 11012
      0.00262 [    19]: 01121
      0.00260 [    14]: 10211
ROOT   1:  E=   -3036.5632712621 Eh  0.104 eV    836.4 cm**-1
      0.73965 [    10]: 11111
      0.19887 [    20]: 01112
      0.04817 [     0]: 21110
      0.00426 [    13]: 11012
      0.00290 [     2]: 21011
ROOT   2:  E=   -3036.5525137913 Eh  0.396 eV   3197.4 cm**-1
      0.86028 [    10]: 11111
      0.04177 [     0]: 21110
      0.03849 [    20]: 01112
      0.02766 [    11]: 11102
      0.00906 [    16]: 10112
      0.00850 [     5]: 12101
      0.00452 [    15]: 10121
      0.00375 [    18]: 01211
      0.00297 [    13]: 11012
ROOT   3:  E=   -3036.5467706358 Eh  0.553 eV   4457.9 cm**-1
      0.82428 [     0]: 21110
      0.07746 [    20]: 01112
      0.06502 [    10]: 11111
      0.01131 [    13]: 11012
      0.01032 [     6]: 12011
      0.00353 [    11]: 11102
ROOT   4:  E=   -3036.5317617140 Eh  0.961 eV   7752.0 cm**-1
      0.62409 [    10]: 11111
      0.27709 [    15]: 10121
      0.07326 [     5]: 12101
      0.00755 [     2]: 21011
      0.00716 [    11]: 11102
      0.00312 [    16]: 10112
      0.00269 [    14]: 10211
ROOT   5:  E=   -3036.5304409737 Eh  0.997 eV   8041.8 cm**-1
      0.35719 [     6]: 12011
      0.35509 [    14]: 10211
      0.17186 [    12]: 11021
      0.06252 [     8]: 11201
      0.02768 [     3]: 20111
      0.01120 [    13]: 11012
      0.00410 [     0]: 21110
      0.00352 [    10]: 11111
ROOT   6:  E=   -3036.5253383547 Eh  1.136 eV   9161.7 cm**-1
      0.63797 [    10]: 11111
      0.14678 [     5]: 12101
      0.06472 [    16]: 10112
      0.03994 [    11]: 11102
      0.03908 [    15]: 10121
      0.03502 [     2]: 21011
      0.01059 [     9]: 11120
      0.00614 [    12]: 11021
      0.00568 [     1]: 21101
      0.00335 [    13]: 11012
      0.00333 [     8]: 11201
ROOT   7:  E=   -3036.5215188195 Eh  1.240 eV  10000.0 cm**-1
      0.37951 [    10]: 11111
      0.35326 [    15]: 10121
      0.11558 [    16]: 10112
      0.10228 [     5]: 12101
      0.01780 [     2]: 21011
      0.01116 [     4]: 12110
      0.00590 [     3]: 20111
      0.00387 [    12]: 11021
      0.00261 [    13]: 11012
ROOT   8:  E=   -3036.5204747460 Eh  1.268 eV  10229.2 cm**-1
      0.35756 [    12]: 11021
      0.27358 [     8]: 11201
      0.18945 [    14]: 10211
      0.06357 [     1]: 21101
      0.04193 [     6]: 12011
      0.02793 [    10]: 11111
      0.01990 [    13]: 11012
      0.00780 [    20]: 01112
      0.00710 [    19]: 01121
      0.00301 [    17]: 02111
      0.00259 [     0]: 21110
ROOT   9:  E=   -3036.5124579824 Eh  1.486 eV  11988.6 cm**-1
      0.30369 [    11]: 11102
      0.18202 [    16]: 10112
      0.17954 [    10]: 11111
      0.15010 [     1]: 21101
      0.07372 [    14]: 10211
      0.03094 [    12]: 11021
      0.02107 [    13]: 11012
      0.01856 [     5]: 12101
      0.01159 [     8]: 11201
      0.00761 [     3]: 20111
      0.00710 [     9]: 11120
      0.00660 [     6]: 12011
ROOT  10:  E=   -3036.5091449438 Eh  1.577 eV  12715.8 cm**-1
      0.16403 [     1]: 21101
      0.15801 [    13]: 11012
      0.13914 [     6]: 12011
      0.12622 [    14]: 10211
      0.09212 [     8]: 11201
      0.09041 [    16]: 10112
      0.08735 [    10]: 11111
      0.04930 [    11]: 11102
      0.04098 [     3]: 20111
      0.01667 [    12]: 11021
      0.00710 [     5]: 12101
      0.00673 [    20]: 01112
      0.00599 [     0]: 21110
      0.00509 [     2]: 21011
      0.00489 [    17]: 02111
      0.00292 [    19]: 01121
ROOT  11:  E=   -3036.5040957987 Eh  1.714 eV  13823.9 cm**-1
      0.38788 [    13]: 11012
      0.26295 [     1]: 21101
      0.10835 [     3]: 20111
      0.05406 [    16]: 10112
      0.05275 [    12]: 11021
      0.02806 [     2]: 21011
      0.02772 [     7]: 11210
      0.01850 [    11]: 11102
      0.01344 [    14]: 10211
      0.01160 [    19]: 01121
      0.00919 [    17]: 02111
      0.00841 [    20]: 01112
      0.00600 [    18]: 01211
      0.00312 [     8]: 11201
ROOT  12:  E=   -3036.4966636147 Eh  1.916 eV  15455.1 cm**-1
      0.26627 [     2]: 21011
      0.18709 [     3]: 20111
      0.13205 [    11]: 11102
      0.11184 [    16]: 10112
      0.07152 [    15]: 10121
      0.04690 [     6]: 12011
      0.03896 [     5]: 12101
      0.03837 [     4]: 12110
      0.03266 [    13]: 11012
      0.02892 [     1]: 21101
      0.01482 [    17]: 02111
      0.01355 [    10]: 11111
      0.00658 [    18]: 01211
      0.00366 [     7]: 11210
      0.00254 [    19]: 01121
ROOT  13:  E=   -3036.4921597123 Eh  2.039 eV  16443.6 cm**-1
      0.28042 [    16]: 10112
      0.24137 [    11]: 11102
      0.09288 [     6]: 12011
      0.08785 [     2]: 21011
      0.06097 [     9]: 11120
      0.05462 [    10]: 11111
      0.03585 [    14]: 10211
      0.03199 [    19]: 01121
      0.03075 [    13]: 11012
      0.01771 [     8]: 11201
      0.01716 [     3]: 20111
      0.01704 [     1]: 21101
      0.01003 [     5]: 12101
      0.00790 [     7]: 11210
      0.00458 [    18]: 01211
      0.00364 [    15]: 10121
      0.00337 [     4]: 12110
ROOT  14:  E=   -3036.4898985396 Eh  2.100 eV  16939.9 cm**-1
      0.24870 [     2]: 21011
      0.22464 [    13]: 11012
      0.16701 [     3]: 20111
      0.07635 [     5]: 12101
      0.07227 [     6]: 12011
      0.03742 [    15]: 10121
      0.03468 [    11]: 11102
      0.02916 [     9]: 11120
      0.02097 [     4]: 12110
      0.02087 [    10]: 11111
      0.01963 [     7]: 11210
      0.01473 [     1]: 21101
      0.01321 [    14]: 10211
      0.00808 [    16]: 10112
      0.00447 [    17]: 02111
      0.00287 [    18]: 01211
ROOT  15:  E=   -3036.4804284474 Eh  2.358 eV  19018.3 cm**-1
      0.24894 [     5]: 12101
      0.17347 [     2]: 21011
      0.11522 [     3]: 20111
      0.09890 [    15]: 10121
      0.07458 [    19]: 01121
      0.05430 [    18]: 01211
      0.04533 [     1]: 21101
      0.04001 [     6]: 12011
      0.03718 [     4]: 12110
      0.02760 [    14]: 10211
      0.02283 [     9]: 11120
      0.02139 [    13]: 11012
      0.01603 [    16]: 10112
      0.00847 [     8]: 11201
      0.00664 [    10]: 11111
      0.00296 [    17]: 02111
      0.00266 [    12]: 11021
ROOT  16:  E=   -3036.4793568375 Eh  2.387 eV  19253.5 cm**-1
      0.24258 [     3]: 20111
      0.13533 [     5]: 12101
      0.10917 [     1]: 21101
      0.06969 [    19]: 01121
      0.06732 [     6]: 12011
      0.05437 [     2]: 21011
      0.05195 [    14]: 10211
      0.05011 [    11]: 11102
      0.04972 [    15]: 10121
      0.03392 [    18]: 01211
      0.02318 [     9]: 11120
      0.02290 [    17]: 02111
      0.02166 [     8]: 11201
      0.02102 [    16]: 10112
      0.01789 [    12]: 11021
      0.01438 [     4]: 12110
      0.00845 [     7]: 11210
      0.00371 [    13]: 11012
ROOT  17:  E=   -3036.4641028188 Eh  2.802 eV  22601.4 cm**-1
      0.27603 [     8]: 11201
      0.23669 [    12]: 11021
      0.22038 [    19]: 01121
      0.09574 [     6]: 12011
      0.05904 [     7]: 11210
      0.05900 [    14]: 10211
      0.01103 [    13]: 11012
      0.00703 [    20]: 01112
      0.00676 [     5]: 12101
      0.00511 [     3]: 20111
      0.00493 [     9]: 11120
      0.00482 [    11]: 11102
      0.00327 [    18]: 01211
      0.00251 [    15]: 10121
ROOT  18:  E=   -3036.4554364623 Eh  3.038 eV  24503.4 cm**-1
      0.45141 [    19]: 01121
      0.20433 [     8]: 11201
      0.12076 [     1]: 21101
      0.08851 [    12]: 11021
      0.08253 [     9]: 11120
      0.01165 [    11]: 11102
      0.01076 [     3]: 20111
      0.00999 [     5]: 12101
      0.00701 [    15]: 10121
      0.00445 [    14]: 10211
ROOT  19:  E=   -3036.4431140723 Eh  3.373 eV  27207.9 cm**-1
      0.69454 [     9]: 11120
      0.10916 [    19]: 01121
      0.06518 [    11]: 11102
      0.03636 [     5]: 12101
      0.02391 [    15]: 10121
      0.02019 [    18]: 01211
      0.01340 [    10]: 11111
      0.00955 [     1]: 21101
      0.00469 [     8]: 11201
      0.00387 [     4]: 12110
      0.00384 [    14]: 10211
      0.00296 [    17]: 02111
      0.00280 [     3]: 20111
      0.00260 [    16]: 10112
ROOT  20:  E=   -3036.4410271759 Eh  3.430 eV  27665.9 cm**-1
      0.41858 [    18]: 01211
      0.27811 [     7]: 11210
      0.06266 [    17]: 02111
      0.05461 [     9]: 11120
      0.03786 [     2]: 21011
      0.03289 [     4]: 12110
      0.02011 [     5]: 12101
      0.01901 [    14]: 10211
      0.01608 [    13]: 11012
      0.01299 [    15]: 10121
      0.01149 [     3]: 20111
      0.01011 [     8]: 11201
      0.00994 [     6]: 12011
      0.00548 [    11]: 11102
      0.00386 [    10]: 11111
      0.00308 [    12]: 11021
ROOT  21:  E=   -3036.4348051885 Eh  3.599 eV  29031.5 cm**-1
      0.50469 [    17]: 02111
      0.27789 [     4]: 12110
      0.10440 [    18]: 01211
      0.02927 [     3]: 20111
      0.02172 [     7]: 11210
      0.01818 [     5]: 12101
      0.01558 [    16]: 10112
      0.01107 [     2]: 21011
      0.00450 [    19]: 01121
      0.00385 [     6]: 12011
      0.00320 [    10]: 11111
ROOT  22:  E=   -3036.4302786930 Eh  3.723 eV  30024.9 cm**-1
      0.54560 [     7]: 11210
      0.31844 [    18]: 01211
      0.02816 [     4]: 12110
      0.02291 [    13]: 11012
      0.01652 [     2]: 21011
      0.01548 [    14]: 10211
      0.01213 [     5]: 12101
      0.00965 [     6]: 12011
      0.00765 [    15]: 10121
      0.00712 [     8]: 11201
      0.00394 [     9]: 11120
      0.00382 [    19]: 01121
ROOT  23:  E=   -3036.4246375172 Eh  3.876 eV  31263.0 cm**-1
      0.52940 [     4]: 12110
      0.36287 [    17]: 02111
      0.02641 [     5]: 12101
      0.01967 [    16]: 10112
      0.01779 [     7]: 11210
      0.01573 [     3]: 20111
      0.01489 [    18]: 01211
      0.00383 [    15]: 10121
      0.00279 [     2]: 21011

                 <<<<<<<<<<<<<<<<<<INITIAL CI STATE CHECK>>>>>>>>>>>>>>>>>>

   E(CAS)= -3036.554139300 Eh DE=    0.000000e+00
   --- Energy gap subspaces: Ext-Act = 0.146   Act-Int = 0.170
   N(occ)=  1.00000 1.00000 1.00000 1.00000 1.00000
   ||g|| =     2.612420e+00 Max(G)=   -4.290907e-01 Rot=522,1
   --- Orbital Update [SuperCI(PT)]
   --- Canonicalize Internal Space
   --- Canonicalize External Space
   --- SX_PT (Skipped TA=0 IT=0): ||X|| =      0.527944894 Max(X)(147,139) =     -0.125966614 
   --- SFit(Active Orbitals)

MACRO-ITERATION   2: 
   --- Inactive Energy E0 = -3028.91343172 Eh
CI-ITERATION   0: 
 -3037.014937528   0.000000000000 (    0.00)
   CI-PROBLEM SOLVED
   DENSITIES MADE
CI-ITERATION   0: 
 -3036.987693406   0.000000000000 (    0.00)
 -3036.955267432   0.000000000000
 -3036.952920870   0.000000000000
 -3036.945224543   0.000000000000
 -3036.935380123   0.000000000000
 -3036.929397364   0.000000000000
 -3036.920589876   0.000000000000
 -3036.919328469   0.000000000000
 -3036.917900850   0.000000000000
 -3036.914640494   0.000000000000
 -3036.911977592   0.000000000000
 -3036.903063381   0.000000000000
 -3036.898887671   0.000000000000
 -3036.894512657   0.000000000000
 -3036.889098420   0.000000000000
 -3036.875449017   0.000000000000
 -3036.860453735   0.000000000000
 -3036.838015861   0.000000000000
 -3036.828844362   0.000000000000
 -3036.822642226   0.000000000000
 -3036.813067360   0.000000000000
 -3036.774379256   0.000000000000
 -3036.762852505   0.000000000000
 -3036.758770920   0.000000000000
   CI-PROBLEM SOLVED
   DENSITIES MADE
   E(CAS)= -3036.949351230 Eh DE=   -3.952119e-01
   --- Energy gap subspaces: Ext-Act = 0.171   Act-Int = 0.048
   N(occ)=  1.00000 1.00000 1.00000 1.00000 1.00000
   ||g|| =     1.072399e+00 Max(G)=   -2.384406e-01 Rot=148,143
   --- Orbital Update [SuperCI(PT)]
   --- Canonicalize Internal Space
   --- Canonicalize External Space
   --- SX_PT (Skipped TA=0 IT=0): ||X|| =      0.411683127 Max(X)(148,143) =      0.308738758 
   --- SFit(Active Orbitals)

MACRO-ITERATION   3: 
   --- Inactive Energy E0 = -3029.57470063 Eh
CI-ITERATION   0: 
 -3037.072204672   0.000000000000 (    0.00)
   CI-PROBLEM SOLVED
   DENSITIES MADE
CI-ITERATION   0: 
 -3037.019996607   0.000000000000 (    0.00)
 -3036.998206705   0.000000000000
 -3036.991831900   0.000000000000
 -3036.980043745   0.000000000000
 -3036.977025670   0.000000000000
 -3036.970803057   0.000000000000
 -3036.969770154   0.000000000000
 -3036.967706805   0.000000000000
 -3036.966033459   0.000000000000
 -3036.958094783   0.000000000000
 -3036.952965315   0.000000000000
 -3036.950875087   0.000000000000
 -3036.948513726   0.000000000000
 -3036.943735870   0.000000000000
 -3036.942209698   0.000000000000
 -3036.922610292   0.000000000000
 -3036.910158383   0.000000000000
 -3036.891658630   0.000000000000
 -3036.879497824   0.000000000000
 -3036.872053055   0.000000000000
 -3036.867531674   0.000000000000
 -3036.849424390   0.000000000000
 -3036.838619445   0.000000000000
 -3036.833130659   0.000000000000
   CI-PROBLEM SOLVED
   DENSITIES MADE
   E(CAS)= -3037.002821022 Eh DE=   -5.346979e-02
   --- Energy gap subspaces: Ext-Act = 0.050   Act-Int = 0.186
   N(occ)=  1.00000 1.00000 1.00000 1.00000 1.00000
   ||g|| =     8.164111e-01 Max(G)=   -2.106483e-01 Rot=147,142
   --- Orbital Update [SuperCI(PT)]
   --- Canonicalize Internal Space
   --- Canonicalize External Space
   --- SX_PT (Skipped TA=0 IT=0): ||X|| =      0.356793813 Max(X)(147,140) =     -0.255520461 
   --- SFit(Active Orbitals)

MACRO-ITERATION   4: 
   --- Inactive Energy E0 = -3028.40380328 Eh
CI-ITERATION   0: 
 -3037.128944259   0.000000000000 (    0.00)
   CI-PROBLEM SOLVED
   DENSITIES MADE
CI-ITERATION   0: 
 -3037.045482798   0.000000000000 (    0.00)
 -3037.041027844   0.000000000000
 -3037.027784145   0.000000000000
 -3037.016199864   0.000000000000
 -3037.014481826   0.000000000000
 -3037.013271162   0.000000000000
 -3037.012208378   0.000000000000
 -3037.009832500   0.000000000000
 -3037.007786269   0.000000000000
 -3037.005265841   0.000000000000
 -3036.993831130   0.000000000000
 -3036.992629845   0.000000000000
 -3036.990265833   0.000000000000
 -3036.986471207   0.000000000000
 -3036.985468218   0.000000000000
 -3036.982461782   0.000000000000
 -3036.979940097   0.000000000000
 -3036.954209585   0.000000000000
 -3036.939463335   0.000000000000
 -3036.938478113   0.000000000000
 -3036.936761414   0.000000000000
 -3036.933335695   0.000000000000
 -3036.929547500   0.000000000000
 -3036.925459569   0.000000000000
   CI-PROBLEM SOLVED
   DENSITIES MADE
   E(CAS)= -3037.057423461 Eh DE=   -5.460244e-02
   --- Energy gap subspaces: Ext-Act = 0.142   Act-Int = 0.128
   N(occ)=  1.00000 1.00000 1.00000 1.00000 1.00000
   ||g|| =     3.786453e-01 Max(G)=   -1.393387e-01 Rot=148,143
   --- Orbital Update [SuperCI(PT)]
   --- Canonicalize Internal Space
   --- Canonicalize External Space
   --- SX_PT (Skipped TA=0 IT=0): ||X|| =      0.222883791 Max(X)(148,143) =     -0.156393569 
   --- SFit(Active Orbitals)

MACRO-ITERATION   5: 
   --- Inactive Energy E0 = -3028.37264040 Eh
CI-ITERATION   0: 
 -3037.133280757   0.000000000000 (    0.00)
   CI-PROBLEM SOLVED
   DENSITIES MADE
CI-ITERATION   0: 
 -3037.047609824   0.000000000000 (    0.00)
 -3037.043860565   0.000000000000
 -3037.030781168   0.000000000000
 -3037.019639629   0.000000000000
 -3037.018119245   0.000000000000
 -3037.016933344   0.000000000000
 -3037.016058796   0.000000000000
 -3037.013798074   0.000000000000
 -3037.011902103   0.000000000000
 -3037.009356629   0.000000000000
 -3036.997535763   0.000000000000
 -3036.996865120   0.000000000000
 -3036.993926626   0.000000000000
 -3036.990210169   0.000000000000
 -3036.989917931   0.000000000000
 -3036.986570358   0.000000000000
 -3036.984059313   0.000000000000
 -3036.957868452   0.000000000000
 -3036.943331134   0.000000000000
 -3036.942547745   0.000000000000
 -3036.940913036   0.000000000000
 -3036.937366931   0.000000000000
 -3036.933138604   0.000000000000
 -3036.929026244   0.000000000000
   CI-PROBLEM SOLVED
   DENSITIES MADE
   E(CAS)= -3037.061459895 Eh DE=   -4.036434e-03
   --- Energy gap subspaces: Ext-Act = 0.139   Act-Int = 0.128
   N(occ)=  1.00000 1.00000 1.00000 1.00000 1.00000
   ||g|| =     3.424350e-01 Max(G)=   -1.355816e-01 Rot=148,143
   --- Orbital Update [SuperCI(PT)]
   --- Canonicalize Internal Space
   --- Canonicalize External Space
   --- SX_PT (Skipped TA=0 IT=0): ||X|| =      0.218603555 Max(X)(148,143) =     -0.151091279 
   --- SFit(Active Orbitals)

MACRO-ITERATION   6: 
   --- Inactive Energy E0 = -3028.73044661 Eh
CI-ITERATION   0: 
 -3037.116107342   0.000000000000 (    0.00)
   CI-PROBLEM SOLVED
   DENSITIES MADE
CI-ITERATION   0: 
 -3037.045100160   0.000000000000 (    0.00)
 -3037.035833616   0.000000000000
 -3037.021756549   0.000000000000
 -3037.006676458   0.000000000000
 -3037.005236861   0.000000000000
 -3037.003367902   0.000000000000
 -3037.001614414   0.000000000000
 -3036.998518340   0.000000000000
 -3036.995861021   0.000000000000
 -3036.992158056   0.000000000000
 -3036.982599394   0.000000000000
 -3036.979537333   0.000000000000
 -3036.976488350   0.000000000000
 -3036.975678325   0.000000000000
 -3036.972233649   0.000000000000
 -3036.968285461   0.000000000000
 -3036.966774793   0.000000000000
 -3036.943174919   0.000000000000
 -3036.927632543   0.000000000000
 -3036.926953028   0.000000000000
 -3036.923910729   0.000000000000
 -3036.921472212   0.000000000000
 -3036.918505671   0.000000000000
 -3036.915623852   0.000000000000
   CI-PROBLEM SOLVED
   DENSITIES MADE
   E(CAS)= -3037.045657705 Eh DE=    1.580219e-02
   --- Energy gap subspaces: Ext-Act = 0.142   Act-Int = 0.140
   N(occ)=  1.00000 1.00000 1.00000 1.00000 1.00000
   ||g|| =     2.985045e-01 Max(G)=   -1.319294e-01 Rot=148,143
   --- Orbital Update [SuperCI(PT)]
   --- Canonicalize Internal Space
   --- Canonicalize External Space
   --- SX_PT (Skipped TA=0 IT=0): ||X|| =      0.216398014 Max(X)(149,143) =     -0.152901188 
   --- SFit(Active Orbitals)

MACRO-ITERATION   7: 
   --- Inactive Energy E0 = -3027.63637322 Eh
CI-ITERATION   0: 
 -3037.181254904   0.000000000000 (    0.00)
   CI-PROBLEM SOLVED
   DENSITIES MADE
CI-ITERATION   0: 
 -3037.069001164   0.000000000000 (    0.00)
 -3037.068136154   0.000000000000
 -3037.061998830   0.000000000000
 -3037.060237214   0.000000000000
 -3037.058618973   0.000000000000
 -3037.058264857   0.000000000000
 -3037.057941991   0.000000000000
 -3037.057161623   0.000000000000
 -3037.057074190   0.000000000000
 -3037.047492407   0.000000000000
 -3037.039193724   0.000000000000
 -3037.038078570   0.000000000000
 -3037.033242979   0.000000000000
 -3037.031484410   0.000000000000
 -3037.031323041   0.000000000000
 -3037.027205676   0.000000000000
 -3037.026105534   0.000000000000
 -3036.987399784   0.000000000000
 -3036.980094781   0.000000000000
 -3036.979819347   0.000000000000
 -3036.978237981   0.000000000000
 -3036.974949673   0.000000000000
 -3036.971203928   0.000000000000
 -3036.968004693   0.000000000000
   CI-PROBLEM SOLVED
   DENSITIES MADE
   E(CAS)= -3037.104424775 Eh DE=   -5.876707e-02
   --- Energy gap subspaces: Ext-Act = 0.120   Act-Int = 0.102
   N(occ)=  1.00000 1.00000 1.00000 1.00000 1.00000
   ||g|| =     3.287877e-01 Max(G)=   -1.163352e-01 Rot=148,143
   --- Orbital Update [SuperCI(PT)]
   --- Canonicalize Internal Space
   --- Canonicalize External Space
   --- SX_PT (Skipped TA=0 IT=0): ||X|| =      0.174282578 Max(X)(148,143) =     -0.116593166 
   --- SFit(Active Orbitals)
   --- Failed to constrain active orbitals due to rotations:
       Rot(147,142) with OVL=0.655572
   --- SFit: squared overlap of the active orbitals QMAT=C*CT
                  0          1          2          3          4    
      0       0.657347   0.000168   0.015623   0.000599  -0.024076
      1       0.000168   0.998048  -0.000018  -0.000030  -0.000555
      2       0.015623  -0.000018   0.997405  -0.000023   0.000427
      3       0.000599  -0.000030  -0.000023   0.995486  -0.019999
      4      -0.024076  -0.000555   0.000427  -0.019999   0.511276

   --- Warning: Active Space composition changed by more than 50% in this iteration. 
                Maybe it will fix itself: Final composition should be checked

MACRO-ITERATION   8: 
   --- Inactive Energy E0 = -3027.39737995 Eh
CI-ITERATION   0: 
 -3037.069174924   0.000000000000 (    0.00)
   CI-PROBLEM SOLVED
   DENSITIES MADE
CI-ITERATION   0: 
 -3037.043078893   0.000000000000 (    0.00)
 -3036.994823698   0.000000000000
 -3036.980804914   0.000000000000
 -3036.973812507   0.000000000000
 -3036.951988262   0.000000000000
 -3036.949872454   0.000000000000
 -3036.942319827   0.000000000000
 -3036.940975614   0.000000000000
 -3036.934350834   0.000000000000
 -3036.927340655   0.000000000000
 -3036.917737312   0.000000000000
 -3036.916940616   0.000000000000
 -3036.912840678   0.000000000000
 -3036.907650291   0.000000000000
 -3036.898281253   0.000000000000
 -3036.881479352   0.000000000000
 -3036.858293260   0.000000000000
 -3036.830970385   0.000000000000
 -3036.824747396   0.000000000000
 -3036.817245581   0.000000000000
 -3036.809307547   0.000000000000
 -3036.806753988   0.000000000000
 -3036.802266748   0.000000000000
 -3036.777721663   0.000000000000
   CI-PROBLEM SOLVED
   DENSITIES MADE
   E(CAS)= -3036.984620873 Eh DE=    1.198039e-01
   --- Energy gap subspaces: Ext-Act = -0.077   Act-Int = 0.090
   N(occ)=  1.00000 1.00000 1.00000 1.00000 1.00000
   ||g|| =     7.911574e-01 Max(G)=    3.226006e-01 Rot=147,142
   --- Orbital Update [SuperCI(PT)]
   --- Canonicalize Internal Space
   --- Canonicalize External Space
   --- SX_PT (Skipped TA=0 IT=0): ||X|| =      0.514564646 Max(X)(147,142) =      0.391499158 
   --- SFit(Active Orbitals)

MACRO-ITERATION   9: 
   --- Inactive Energy E0 = -3026.71767345 Eh
CI-ITERATION   0: 
 -3037.174134772   0.000000000000 (    0.00)
   CI-PROBLEM SOLVED
   DENSITIES MADE
CI-ITERATION   0: 
 -3037.061911703   0.000000000000 (    0.00)
 -3037.048877731   0.000000000000
 -3037.041995216   0.000000000000
 -3037.040013036   0.000000000000
 -3037.038226152   0.000000000000
 -3037.037482763   0.000000000000
 -3037.037041832   0.000000000000
 -3037.036735507   0.000000000000
 -3037.036282855   0.000000000000
 -3037.014020715   0.000000000000
 -3037.011206624   0.000000000000
 -3037.008926579   0.000000000000
 -3037.008136677   0.000000000000
 -3037.005945858   0.000000000000
 -3037.004313395   0.000000000000
 -3036.998426082   0.000000000000
 -3036.994144133   0.000000000000
 -3036.942443309   0.000000000000
 -3036.941503728   0.000000000000
 -3036.939849039   0.000000000000
 -3036.937835013   0.000000000000
 -3036.936598723   0.000000000000
 -3036.936091269   0.000000000000
 -3036.932945403   0.000000000000
   CI-PROBLEM SOLVED
   DENSITIES MADE
   E(CAS)= -3037.086878914 Eh DE=   -1.022580e-01
   --- Energy gap subspaces: Ext-Act = 0.046   Act-Int = 0.063
   N(occ)=  1.00000 1.00000 1.00000 1.00000 1.00000
   ||g|| =     3.341508e-01 Max(G)=    1.964922e-01 Rot=147,142
   --- Orbital Update [SuperCI(PT)]
   --- Canonicalize Internal Space
   --- Canonicalize External Space
   --- SX_PT (Skipped TA=0 IT=0): ||X|| =      0.280615546 Max(X)(147,142) =      0.213340887 
   --- SFit(Active Orbitals)

MACRO-ITERATION  10: 
   --- Inactive Energy E0 = -3026.74791561 Eh
CI-ITERATION   0: 
 -3037.226492590   0.000000000000 (    0.00)
   CI-PROBLEM SOLVED
   DENSITIES MADE
CI-ITERATION   0: 
 -3037.098852529   0.000000000000 (    0.00)
 -3037.094805428   0.000000000000
 -3037.093634062   0.000000000000
 -3037.092948048   0.000000000000
 -3037.092311520   0.000000000000
 -3037.092113198   0.000000000000
 -3037.091929204   0.000000000000
 -3037.091226002   0.000000000000
 -3037.091136301   0.000000000000
 -3037.069216059   0.000000000000
 -3037.069029810   0.000000000000
 -3037.066102841   0.000000000000
 -3037.060614811   0.000000000000
 -3037.059612817   0.000000000000
 -3037.059264050   0.000000000000
 -3037.058416978   0.000000000000
 -3037.058252756   0.000000000000
 -3037.000769650   0.000000000000
 -3036.999812700   0.000000000000
 -3036.999404493   0.000000000000
 -3036.999257222   0.000000000000
 -3036.998891955   0.000000000000
 -3036.998563700   0.000000000000
 -3036.998515181   0.000000000000
   CI-PROBLEM SOLVED
   DENSITIES MADE
   E(CAS)= -3037.141052155 Eh DE=   -5.417324e-02
   --- Energy gap subspaces: Ext-Act = 0.108   Act-Int = 0.064
   N(occ)=  1.00000 1.00000 1.00000 1.00000 1.00000
   ||g|| =     6.972804e-02 Max(G)=   -1.764205e-02 Rot=533,143
   --- Orbital Update [SuperCI(PT)]
   --- Canonicalize Internal Space
   --- Canonicalize External Space
   --- SX_PT (Skipped TA=0 IT=0): ||X|| =      0.020757296 Max(X)(204,143) =      0.004705389 
   --- SFit(Active Orbitals)

MACRO-ITERATION  11: 
   --- Inactive Energy E0 = -3026.90253801 Eh
CI-ITERATION   0: 
 -3037.222794631   0.000000000000 (    0.00)
   CI-PROBLEM SOLVED
   DENSITIES MADE
CI-ITERATION   0: 
 -3037.097936962   0.000000000000 (    0.00)
 -3037.093393331   0.000000000000
 -3037.092428945   0.000000000000
 -3037.091735536   0.000000000000
 -3037.090711486   0.000000000000
 -3037.090329617   0.000000000000
 -3037.090010004   0.000000000000
 -3037.089037229   0.000000000000
 -3037.088944661   0.000000000000
 -3037.067917358   0.000000000000
 -3037.067820483   0.000000000000
 -3037.065093034   0.000000000000
 -3037.059755061   0.000000000000
 -3037.058820140   0.000000000000
 -3037.058392641   0.000000000000
 -3037.056665167   0.000000000000
 -3037.056562303   0.000000000000
 -3037.000880194   0.000000000000
 -3037.000571729   0.000000000000
 -3036.999939226   0.000000000000
 -3036.999395121   0.000000000000
 -3036.998396844   0.000000000000
 -3036.997434373   0.000000000000
 -3036.996693484   0.000000000000
   CI-PROBLEM SOLVED
   DENSITIES MADE
   E(CAS)= -3037.138665335 Eh DE=    2.386821e-03
   --- Energy gap subspaces: Ext-Act = 0.106   Act-Int = 0.075
   N(occ)=  1.00000 1.00000 1.00000 1.00000 1.00000
   ||g|| =     7.055311e-02 Max(G)=   -3.824877e-02 Rot=147,142
   --- Orbital Update [SuperCI(PT)]
   --- Canonicalize Internal Space
   --- Canonicalize External Space
   --- SX_PT (Skipped TA=0 IT=0): ||X|| =      0.055953187 Max(X)(147,142) =     -0.037779914 
   --- SFit(Active Orbitals)

MACRO-ITERATION  12: 
   --- Inactive Energy E0 = -3026.67192272 Eh
CI-ITERATION   0: 
 -3037.228131001   0.000000000000 (    0.00)
   CI-PROBLEM SOLVED
   DENSITIES MADE
CI-ITERATION   0: 
 -3037.097152447   0.000000000000 (    0.00)
 -3037.093827294   0.000000000000
 -3037.093283058   0.000000000000
 -3037.092003997   0.000000000000
 -3037.091921109   0.000000000000
 -3037.091873035   0.000000000000
 -3037.091725553   0.000000000000
 -3037.091454144   0.000000000000
 -3037.091378195   0.000000000000
 -3037.069000784   0.000000000000
 -3037.068904947   0.000000000000
 -3037.065976043   0.000000000000
 -3037.059391738   0.000000000000
 -3037.058551213   0.000000000000
 -3037.058316853   0.000000000000
 -3037.058116072   0.000000000000
 -3037.058019802   0.000000000000
 -3036.998883469   0.000000000000
 -3036.998686741   0.000000000000
 -3036.998243406   0.000000000000
 -3036.998045980   0.000000000000
 -3036.997781698   0.000000000000
 -3036.997305835   0.000000000000
 -3036.996905659   0.000000000000
   CI-PROBLEM SOLVED
   DENSITIES MADE
   E(CAS)= -3037.141497773 Eh DE=   -2.832438e-03
   --- Energy gap subspaces: Ext-Act = 0.102   Act-Int = 0.068
   N(occ)=  1.00000 1.00000 1.00000 1.00000 1.00000
   ||g|| =     2.271301e-02 Max(G)=    1.277187e-02 Rot=147,142
   --- Orbital Update [SuperCI(PT)]
   --- Canonicalize Internal Space
   --- Canonicalize External Space
   --- SX_PT (Skipped TA=0 IT=0): ||X|| =      0.017004046 Max(X)(147,142) =      0.012062994 
   --- SFit(Active Orbitals)

MACRO-ITERATION  13: 
   --- Inactive Energy E0 = -3026.67670248 Eh
CI-ITERATION   0: 
 -3037.228194231   0.000000000000 (    0.00)
   CI-PROBLEM SOLVED
   DENSITIES MADE
CI-ITERATION   0: 
 -3037.097152433   0.000000000000 (    0.00)
 -3037.093839656   0.000000000000
 -3037.093294132   0.000000000000
 -3037.092013780   0.000000000000
 -3037.091933472   0.000000000000
 -3037.091886726   0.000000000000
 -3037.091745173   0.000000000000
 -3037.091468991   0.000000000000
 -3037.091393901   0.000000000000
 -3037.069014837   0.000000000000
 -3037.068918852   0.000000000000
 -3037.065984053   0.000000000000
 -3037.059388550   0.000000000000
 -3037.058553731   0.000000000000
 -3037.058321782   0.000000000000
 -3037.058116573   0.000000000000
 -3037.058023935   0.000000000000
 -3036.998885763   0.000000000000
 -3036.998660984   0.000000000000
 -3036.998197282   0.000000000000
 -3036.998005655   0.000000000000
 -3036.997761587   0.000000000000
 -3036.997316217   0.000000000000
 -3036.996901675   0.000000000000
   CI-PROBLEM SOLVED
   DENSITIES MADE
   E(CAS)= -3037.141530027 Eh DE=   -3.225376e-05
   --- Energy gap subspaces: Ext-Act = 0.100   Act-Int = 0.069
   N(occ)=  1.00000 1.00000 1.00000 1.00000 1.00000
   ||g|| =     1.784607e-02 Max(G)=    1.252470e-02 Rot=147,142
   --- Orbital Update [SuperCI(PT)]
   --- Canonicalize Internal Space
   --- Canonicalize External Space
   --- SX_PT (Skipped TA=0 IT=0): ||X|| =      0.015812126 Max(X)(147,142) =      0.011912421 
   --- SFit(Active Orbitals)

MACRO-ITERATION  14: 
   --- Inactive Energy E0 = -3026.69256340 Eh
CI-ITERATION   0: 
 -3037.228209572   0.000000000000 (    0.00)
   CI-PROBLEM SOLVED
   DENSITIES MADE
CI-ITERATION   0: 
 -3037.097583575   0.000000000000 (    0.00)
 -3037.094178814   0.000000000000
 -3037.093512881   0.000000000000
 -3037.092246230   0.000000000000
 -3037.092213230   0.000000000000
 -3037.092104154   0.000000000000
 -3037.091987210   0.000000000000
 -3037.091616998   0.000000000000
 -3037.091541573   0.000000000000
 -3037.069203291   0.000000000000
 -3037.069109772   0.000000000000
 -3037.066142477   0.000000000000
 -3037.059731577   0.000000000000
 -3037.058859532   0.000000000000
 -3037.058608892   0.000000000000
 -3037.058341562   0.000000000000
 -3037.058230471   0.000000000000
 -3036.999269522   0.000000000000
 -3036.998829311   0.000000000000
 -3036.998479327   0.000000000000
 -3036.998268082   0.000000000000
 -3036.998054681   0.000000000000
 -3036.997701152   0.000000000000
 -3036.997374715   0.000000000000
   CI-PROBLEM SOLVED
   DENSITIES MADE
   E(CAS)= -3037.141671224 Eh DE=   -1.411971e-04
   --- Energy gap subspaces: Ext-Act = 0.100   Act-Int = 0.070
   N(occ)=  1.00000 1.00000 1.00000 1.00000 1.00000
   ||g|| =     1.062657e-02 Max(G)=    7.561449e-03 Rot=147,142
   --- Orbital Update [SuperCI(PT)]
   --- Canonicalize Internal Space
   --- Canonicalize External Space
   --- SX_PT (Skipped TA=0 IT=0): ||X|| =      0.009099582 Max(X)(147,142) =      0.007118046 
   --- SFit(Active Orbitals)

MACRO-ITERATION  15: 
   --- Inactive Energy E0 = -3026.69519563 Eh
CI-ITERATION   0: 
 -3037.228222134   0.000000000000 (    0.00)
   CI-PROBLEM SOLVED
   DENSITIES MADE
CI-ITERATION   0: 
 -3037.097656619   0.000000000000 (    0.00)
 -3037.094244685   0.000000000000
 -3037.093549366   0.000000000000
 -3037.092307118   0.000000000000
 -3037.092252572   0.000000000000
 -3037.092141886   0.000000000000
 -3037.092042191   0.000000000000
 -3037.091638490   0.000000000000
 -3037.091563414   0.000000000000
 -3037.069241262   0.000000000000
 -3037.069143513   0.000000000000
 -3037.066176151   0.000000000000
 -3037.059801202   0.000000000000
 -3037.058915650   0.000000000000
 -3037.058669695   0.000000000000
 -3037.058375935   0.000000000000
 -3037.058247649   0.000000000000
 -3036.999361629   0.000000000000
 -3036.998819424   0.000000000000
 -3036.998493051   0.000000000000
 -3036.998279535   0.000000000000
 -3036.998103112   0.000000000000
 -3036.997800607   0.000000000000
 -3036.997488375   0.000000000000
   CI-PROBLEM SOLVED
   DENSITIES MADE
   E(CAS)= -3037.141700924 Eh DE=   -2.970002e-05
   --- Energy gap subspaces: Ext-Act = 0.100   Act-Int = 0.071
   N(occ)=  1.00000 1.00000 1.00000 1.00000 1.00000
   ||g|| =     8.436463e-03 Max(G)=    5.736755e-03 Rot=147,142
   --- Orbital Update [SuperCI(PT)]
   --- Canonicalize Internal Space
   --- Canonicalize External Space
   --- SX_PT (Skipped TA=0 IT=0): ||X|| =      0.006988719 Max(X)(147,142) =      0.005520970 
   --- SFit(Active Orbitals)

MACRO-ITERATION  16: 
   --- Inactive Energy E0 = -3026.70262574 Eh
CI-ITERATION   0: 
 -3037.228158729   0.000000000000 (    0.00)
   CI-PROBLEM SOLVED
   DENSITIES MADE
CI-ITERATION   0: 
 -3037.097884873   0.000000000000 (    0.00)
 -3037.094408049   0.000000000000
 -3037.093644926   0.000000000000
 -3037.092464867   0.000000000000
 -3037.092344210   0.000000000000
 -3037.092233523   0.000000000000
 -3037.092134718   0.000000000000
 -3037.091684691   0.000000000000
 -3037.091608586   0.000000000000
 -3037.069327306   0.000000000000
 -3037.069217082   0.000000000000
 -3037.066246254   0.000000000000
 -3037.059983035   0.000000000000
 -3037.059073546   0.000000000000
 -3037.058813447   0.000000000000
 -3037.058471039   0.000000000000
 -3037.058331146   0.000000000000
 -3036.999574679   0.000000000000
 -3036.998932966   0.000000000000
 -3036.998622813   0.000000000000
 -3036.998434030   0.000000000000
 -3036.998265234   0.000000000000
 -3036.997991863   0.000000000000
 -3036.997753242   0.000000000000
   CI-PROBLEM SOLVED
   DENSITIES MADE
   E(CAS)= -3037.141734492 Eh DE=   -3.356823e-05
   --- Energy gap subspaces: Ext-Act = 0.100   Act-Int = 0.071
   N(occ)=  1.00000 1.00000 1.00000 1.00000 1.00000
   ||g|| =     4.216380e-03 Max(G)=    2.893431e-03 Rot=147,142
   --- Orbital Update [SuperCI(PT)]
   --- Canonicalize Internal Space
   --- Canonicalize External Space
   --- SX_PT (Skipped TA=0 IT=0): ||X|| =      0.003447579 Max(X)(147,142) =      0.002766170 
   --- SFit(Active Orbitals)

MACRO-ITERATION  17: 
   --- Inactive Energy E0 = -3026.70890165 Eh
CI-ITERATION   0: 
 -3037.228086161   0.000000000000 (    0.00)
   CI-PROBLEM SOLVED
   DENSITIES MADE
CI-ITERATION   0: 
 -3037.098057977   0.000000000000 (    0.00)
 -3037.094525310   0.000000000000
 -3037.093708937   0.000000000000
 -3037.092583464   0.000000000000
 -3037.092406157   0.000000000000
 -3037.092293131   0.000000000000
 -3037.092192341   0.000000000000
 -3037.091706477   0.000000000000
 -3037.091629298   0.000000000000
 -3037.069385175   0.000000000000
 -3037.069261617   0.000000000000
 -3037.066293717   0.000000000000
 -3037.060119521   0.000000000000
 -3037.059191070   0.000000000000
 -3037.058920590   0.000000000000
 -3037.058532478   0.000000000000
 -3037.058383659   0.000000000000
 -3036.999741140   0.000000000000
 -3036.999036883   0.000000000000
 -3036.998694505   0.000000000000
 -3036.998556319   0.000000000000
 -3036.998388504   0.000000000000
 -3036.998128172   0.000000000000
 -3036.997964031   0.000000000000
   CI-PROBLEM SOLVED
   DENSITIES MADE
   E(CAS)= -3037.141745174 Eh DE=   -1.068176e-05
   --- Energy gap subspaces: Ext-Act = 0.101   Act-Int = 0.071
   N(occ)=  1.00000 1.00000 1.00000 1.00000 1.00000
   ||g|| =     7.054802e-04 Max(G)=    4.822938e-04 Rot=147,142
                     ---- THE CAS-SCF GRADIENT HAS CONVERGED ----
                            --- FINALIZING ORBITALS ---
                    ---- DOING ONE FINAL ITERATION FOR PRINTING ----
   --- Forming Natural Orbitals
   --- Canonicalize Internal Space
   --- Canonicalize External Space

MACRO-ITERATION  18: 
   --- Inactive Energy E0 = -3026.70890165 Eh
   --- All densities will be recomputed
CI-ITERATION   0: 
 -3037.228086158   0.000000000000 (    0.00)
   CI-PROBLEM SOLVED
   DENSITIES MADE
CI-ITERATION   0: 
 -3037.098057972   0.000000000000 (    0.00)
 -3037.094525306   0.000000000000
 -3037.093708932   0.000000000000
 -3037.092583460   0.000000000000
 -3037.092406153   0.000000000000
 -3037.092293126   0.000000000000
 -3037.092192337   0.000000000000
 -3037.091706473   0.000000000000
 -3037.091629295   0.000000000000
 -3037.069385171   0.000000000000
 -3037.069261614   0.000000000000
 -3037.066293714   0.000000000000
 -3037.060119517   0.000000000000
 -3037.059191066   0.000000000000
 -3037.058920586   0.000000000000
 -3037.058532474   0.000000000000
 -3037.058383655   0.000000000000
 -3036.999741136   0.000000000000
 -3036.999036879   0.000000000000
 -3036.998694501   0.000000000000
 -3036.998556316   0.000000000000
 -3036.998388501   0.000000000000
 -3036.998128169   0.000000000000
 -3036.997964028   0.000000000000
   CI-PROBLEM SOLVED
   DENSITIES MADE
   E(CAS)= -3037.141745170 Eh DE=    3.856712e-09
   --- Energy gap subspaces: Ext-Act = 0.090   Act-Int = 0.060
   N(occ)=  1.00000 1.00000 1.00000 1.00000 1.00000
   ||g|| =     7.054803e-04 Max(G)=   -4.373367e-04 Rot=144,142
   --- Number of divergent steps = 3
   --- Checking final active space composition 

--------------
CASSCF RESULTS
--------------

Final CASSCF energy       : -3037.141745170 Eh  -82644.8285 eV

----------------
ORBITAL ENERGIES
----------------

  NO   OCC          E(Eh)            E(eV) 
   0   2.0000    -240.554061     -6545.8088 
   1   2.0000     -29.129685      -792.6590 
   2   2.0000     -24.834673      -675.7858 
   3   2.0000     -24.834575      -675.7831 
   4   2.0000     -24.834368      -675.7775 
   5   2.0000      -4.726979      -128.6276 
   6   2.0000      -4.726226      -128.6072 
   7   2.0000      -4.725735      -128.5938 
   8   2.0000      -4.725729      -128.5936 
   9   2.0000      -4.721799      -128.4867 
  10   2.0000      -4.721231      -128.4712 
  11   2.0000      -4.710995      -128.1927 
  12   2.0000      -4.710897      -128.1900 
  13   2.0000      -4.709409      -128.1495 
  14   2.0000      -4.709065      -128.1402 
  15   2.0000      -4.707074      -128.0860 
  16   2.0000      -4.706577      -128.0725 
  17   2.0000      -4.704552      -128.0174 
  18   2.0000      -4.703816      -127.9973 
  19   2.0000      -3.836499      -104.3964 
  20   2.0000      -2.768422       -75.3326 
  21   2.0000      -2.767759       -75.3145 
  22   2.0000      -2.765960       -75.2656 
  23   2.0000      -2.765561       -75.2547 
  24   2.0000      -2.764323       -75.2211 
  25   2.0000      -2.763772       -75.2061 
  26   2.0000      -2.762690       -75.1766 
  27   2.0000      -2.762078       -75.1600 
  28   2.0000      -2.761794       -75.1522 
  29   2.0000      -2.761547       -75.1455 
  30   2.0000      -2.761362       -75.1405 
  31   2.0000      -2.759887       -75.1003 
  32   2.0000      -2.759477       -75.0892 
  33   2.0000      -2.756701       -75.0137 
  34   2.0000      -2.756128       -74.9981 
  35   2.0000      -2.754653       -74.9579 
  36   2.0000      -2.754350       -74.9497 
  37   2.0000      -2.753803       -74.9348 
  38   2.0000      -2.748906       -74.8015 
  39   2.0000      -2.748703       -74.7960 
  40   2.0000      -2.747007       -74.7499 
  41   2.0000      -2.746906       -74.7471 
  42   2.0000      -2.746408       -74.7336 
  43   2.0000      -2.746257       -74.7294 
  44   2.0000      -2.745421       -74.7067 
  45   2.0000      -2.745243       -74.7019 
  46   2.0000      -2.744423       -74.6795 
  47   2.0000      -2.744163       -74.6725 
  48   2.0000      -2.743912       -74.6656 
  49   2.0000      -2.743160       -74.6452 
  50   2.0000      -2.742947       -74.6394 
  51   2.0000      -2.742553       -74.6287 
  52   2.0000      -2.740746       -74.5795 
  53   2.0000      -2.740460       -74.5717 
  54   2.0000      -2.740307       -74.5676 
  55   2.0000      -2.740130       -74.5627 
  56   2.0000      -2.739641       -74.5494 
  57   2.0000      -2.738543       -74.5195 
  58   2.0000      -2.738231       -74.5111 
  59   2.0000      -2.737683       -74.4962 
  60   2.0000      -2.737513       -74.4915 
  61   2.0000      -2.736871       -74.4740 
  62   2.0000      -2.505308       -68.1729 
  63   2.0000      -2.505081       -68.1667 
  64   2.0000      -2.504530       -68.1517 
  65   2.0000      -0.593950       -16.1622 
  66   2.0000      -0.563592       -15.3361 
  67   2.0000      -0.556354       -15.1392 
  68   2.0000      -0.556056       -15.1311 
  69   2.0000      -0.554159       -15.0794 
  70   2.0000      -0.552598       -15.0370 
  71   2.0000      -0.550143       -14.9702 
  72   2.0000      -0.548762       -14.9326 
  73   2.0000      -0.547900       -14.9091 
  74   2.0000      -0.544627       -14.8200 
  75   2.0000      -0.544276       -14.8105 
  76   2.0000      -0.542421       -14.7600 
  77   2.0000      -0.539195       -14.6722 
  78   2.0000      -0.538788       -14.6612 
  79   2.0000      -0.537997       -14.6396 
  80   2.0000      -0.535648       -14.5757 
  81   2.0000      -0.534483       -14.5440 
  82   2.0000      -0.532526       -14.4908 
  83   2.0000      -0.532382       -14.4868 
  84   2.0000      -0.525176       -14.2908 
  85   2.0000      -0.524870       -14.2824 
  86   2.0000      -0.520254       -14.1568 
  87   2.0000      -0.515934       -14.0393 
  88   2.0000      -0.515697       -14.0328 
  89   2.0000      -0.513386       -13.9699 
  90   2.0000      -0.505435       -13.7536 
  91   2.0000      -0.504420       -13.7260 
  92   2.0000      -0.502819       -13.6824 
  93   2.0000      -0.499182       -13.5834 
  94   2.0000      -0.497795       -13.5457 
  95   2.0000      -0.496733       -13.5168 
  96   2.0000      -0.490784       -13.3549 
  97   2.0000      -0.489531       -13.3208 
  98   2.0000      -0.484401       -13.1812 
  99   2.0000      -0.484194       -13.1756 
 100   2.0000      -0.480294       -13.0695 
 101   2.0000      -0.475896       -12.9498 
 102   2.0000      -0.469654       -12.7799 
 103   2.0000      -0.467811       -12.7298 
 104   2.0000      -0.463894       -12.6232 
 105   2.0000      -0.462813       -12.5938 
 106   2.0000      -0.458339       -12.4720 
 107   2.0000      -0.457907       -12.4603 
 108   2.0000      -0.455416       -12.3925 
 109   2.0000      -0.454789       -12.3754 
 110   2.0000      -0.453610       -12.3433 
 111   2.0000      -0.452873       -12.3233 
 112   2.0000      -0.450006       -12.2453 
 113   2.0000      -0.448114       -12.1938 
 114   2.0000      -0.447874       -12.1873 
 115   2.0000      -0.445703       -12.1282 
 116   2.0000      -0.444866       -12.1054 
 117   2.0000      -0.442228       -12.0336 
 118   2.0000      -0.441068       -12.0021 
 119   2.0000      -0.439351       -11.9554 
 120   2.0000      -0.437893       -11.9157 
 121   2.0000      -0.436269       -11.8715 
 122   2.0000      -0.436078       -11.8663 
 123   2.0000      -0.434704       -11.8289 
 124   2.0000      -0.431213       -11.7339 
 125   2.0000      -0.430449       -11.7131 
 126   2.0000      -0.429597       -11.6899 
 127   2.0000      -0.427448       -11.6314 
 128   2.0000      -0.425448       -11.5770 
 129   2.0000      -0.423624       -11.5274 
 130   2.0000      -0.418195       -11.3797 
 131   2.0000      -0.416365       -11.3299 
 132   2.0000      -0.412061       -11.2127 
 133   2.0000      -0.403615       -10.9829 
 134   2.0000      -0.395450       -10.7607 
 135   2.0000      -0.391350       -10.6492 
 136   2.0000      -0.376196       -10.2368 
 137   2.0000      -0.352986        -9.6052 
 138   2.0000      -0.344607        -9.3772 
 139   2.0000      -0.269893        -7.3442 
 140   2.0000      -0.240747        -6.5511 
 141   2.0000      -0.231557        -6.3010 
 142   2.0000      -0.214370        -5.8333 
 143   1.0000      -0.154702        -4.2097 
 144   1.0000      -0.146408        -3.9840 
 145   1.0000      -0.153166        -4.1678 
 146   1.0000      -0.153074        -4.1654 
 147   1.0000      -0.153661        -4.1813 
 148   0.0000      -0.056460        -1.5364 
 149   0.0000      -0.021443        -0.5835 
 150   0.0000      -0.011315        -0.3079 
 151   0.0000       0.011417         0.3107 
 152   0.0000       0.015913         0.4330 
 153   0.0000       0.021916         0.5964 
 154   0.0000       0.039625         1.0783 
 155   0.0000       0.041710         1.1350 
 156   0.0000       0.043350         1.1796 
 157   0.0000       0.048215         1.3120 
 158   0.0000       0.050217         1.3665 
 159   0.0000       0.057070         1.5530 
 160   0.0000       0.060834         1.6554 
 161   0.0000       0.080145         2.1809 
 162   0.0000       0.091954         2.5022 
 163   0.0000       0.095151         2.5892 
 164   0.0000       0.106417         2.8958 
 165   0.0000       0.113359         3.0847 
 166   0.0000       0.114148         3.1061 
 167   0.0000       0.121314         3.3011 
 168   0.0000       0.127437         3.4677 
 169   0.0000       0.128998         3.5102 
 170   0.0000       0.129833         3.5329 
 171   0.0000       0.133026         3.6198 
 172   0.0000       0.143226         3.8974 
 173   0.0000       0.149667         4.0726 
 174   0.0000       0.150524         4.0960 
 175   0.0000       0.151622         4.1259 
 176   0.0000       0.152618         4.1529 
 177   0.0000       0.154283         4.1983 
 178   0.0000       0.154432         4.2023 
 179   0.0000       0.161425         4.3926 
 180   0.0000       0.170499         4.6395 
 181   0.0000       0.179360         4.8806 
 182   0.0000       0.181329         4.9342 
 183   0.0000       0.184007         5.0071 
 184   0.0000       0.184887         5.0310 
 185   0.0000       0.186546         5.0762 
 186   0.0000       0.193637         5.2691 
 187   0.0000       0.204649         5.5688 
 188   0.0000       0.206976         5.6321 
 189   0.0000       0.209542         5.7019 
 190   0.0000       0.217073         5.9069 
 191   0.0000       0.223539         6.0828 
 192   0.0000       0.224429         6.1070 
 193   0.0000       0.243359         6.6221 
 194   0.0000       0.249610         6.7922 
 195   0.0000       0.249811         6.7977 
 196   0.0000       0.257194         6.9986 
 197   0.0000       0.266485         7.2514 
[...]
      dxz     :     1.993604
      dyz     :     1.996653
      dx2y2   :     1.994897
      dxy     :     1.994924
      f0      :     0.000359  f :     0.003587
      f+1     :     0.000575
      f-1     :     0.000218
      f+2     :     0.000598
      f-2     :     0.000566
      f+3     :     0.000682
      f-3     :     0.000589
  8 Aus       :     2.336550  s :     2.336550
      pz      :     2.259662  p :     6.651379
      px      :     2.320818
      py      :     2.070899
      dz2     :     1.989808  d :     9.965949
      dxz     :     1.989815
      dyz     :     2.002137
      dx2y2   :     1.976387
      dxy     :     2.007802
      f0      :     0.000573  f :     0.004507
      f+1     :     0.000593
      f-1     :     0.000595
      f+2     :     0.000560
      f-2     :     0.000788
      f+3     :     0.000599
      f-3     :     0.000800
  9 Aus       :     2.517733  s :     2.517733
      pz      :     2.174197  p :     6.544565
      px      :     2.179936
      py      :     2.190432
      dz2     :     1.990120  d :     9.988870
      dxz     :     2.010446
      dyz     :     2.004892
      dx2y2   :     2.002500
      dxy     :     1.980912
      f0      :     0.000427  f :     0.004439
      f+1     :     0.000806
      f-1     :     0.000490
      f+2     :     0.000557
      f-2     :     0.000603
      f+3     :     0.000806
      f-3     :     0.000750
 10 Aus       :     2.342705  s :     2.342705
      pz      :     2.090020  p :     6.643579
      px      :     2.300505
      py      :     2.253054
      dz2     :     1.984308  d :     9.965701
      dxz     :     1.998524
      dyz     :     2.001552
      dx2y2   :     1.987431
      dxy     :     1.993886
      f0      :     0.000553  f :     0.004527
      f+1     :     0.000702
      f-1     :     0.000599
      f+2     :     0.000779
      f-2     :     0.000681
      f+3     :     0.000771
      f-3     :     0.000442
 11 Aus       :     2.534030  s :     2.534030
      pz      :     2.165240  p :     6.417521
      px      :     2.127542
      py      :     2.124739
      dz2     :     2.008745  d :     9.986942
      dxz     :     1.993016
      dyz     :     1.991336
      dx2y2   :     2.011540
      dxy     :     1.982305
      f0      :     0.000700  f :     0.003796
      f+1     :     0.000479
      f-1     :     0.000528
      f+2     :     0.000558
      f-2     :     0.000475
      f+3     :     0.000562
      f-3     :     0.000494
 12 Aus       :     2.507401  s :     2.507401
      pz      :     2.163268  p :     6.582931
      px      :     2.246896
      py      :     2.172767
      dz2     :     1.999222  d :     9.971119
      dxz     :     1.980842
      dyz     :     1.997779
      dx2y2   :     1.997498
      dxy     :     1.995779
      f0      :     0.000552  f :     0.004426
      f+1     :     0.000689
      f-1     :     0.000455
      f+2     :     0.000862
      f-2     :     0.000483
      f+3     :     0.000837
      f-3     :     0.000548
 13 Aus       :     2.530699  s :     2.530699
      pz      :     2.109063  p :     6.425287
      px      :     2.170153
      py      :     2.146071
      dz2     :     2.001711  d :     9.986193
      dxz     :     2.001671
      dyz     :     1.978822
      dx2y2   :     2.012742
      dxy     :     1.991246
      f0      :     0.000555  f :     0.003785
      f+1     :     0.000619
      f-1     :     0.000558
      f+2     :     0.000453
      f-2     :     0.000387
      f+3     :     0.000750
      f-3     :     0.000462
 14 Mns       :     6.240388  s :     6.240388
      pz      :     4.220114  p :    12.620493
      px      :     4.181740
      py      :     4.218639
      dz2     :     1.227712  d :     6.560059
      dxz     :     1.326764
      dyz     :     1.410767
      dx2y2   :     1.235885
      dxy     :     1.358930
      f0      :     0.000143  f :     0.000978
      f+1     :     0.000141
      f-1     :     0.000154
      f+2     :     0.000127
      f-2     :     0.000151
      f+3     :     0.000085
      f-3     :     0.000177

SPIN
  0 Aus       :     0.001020  s :     0.001020
      pz      :     0.000417  p :     0.003411
      px      :     0.001137
      py      :     0.001857
      dz2     :     0.002810  d :     0.007290
      dxz     :     0.001764
      dyz     :     0.002091
      dx2y2   :     0.000215
      dxy     :     0.000409
      f0      :     0.000055  f :     0.000192
      f+1     :     0.000061
      f-1     :     0.000047
      f+2     :     0.000009
      f-2     :     0.000017
      f+3     :     0.000001
      f-3     :     0.000002
  1 Aus       :     0.002918  s :     0.002918
      pz      :     0.000890  p :     0.002102
      px      :     0.000196
      py      :     0.001016
      dz2     :     0.000208  d :     0.000651
      dxz     :     0.000087
      dyz     :     0.000063
      dx2y2   :     0.000125
      dxy     :     0.000168
      f0      :     0.000001  f :     0.000004
      f+1     :     0.000000
      f-1     :     0.000001
      f+2     :     0.000001
      f-2     :     0.000001
      f+3     :     0.000000
      f-3     :     0.000001
  2 Aus       :     0.002750  s :     0.002750
      pz      :     0.001358  p :     0.003250
      px      :     0.000941
      py      :     0.000951
      dz2     :     0.000786  d :     0.009254
      dxz     :     0.002769
      dyz     :     0.001883
      dx2y2   :     0.000981
      dxy     :     0.002835
      f0      :     0.000017  f :     0.000155
      f+1     :     0.000022
      f-1     :     0.000007
      f+2     :     0.000029
      f-2     :     0.000044
      f+3     :     0.000013
      f-3     :     0.000024
  3 Aus       :     0.002970  s :     0.002970
      pz      :     0.000965  p :     0.003088
      px      :     0.001051
      py      :     0.001072
      dz2     :     0.000839  d :     0.006712
      dxz     :     0.001950
      dyz     :     0.000533
      dx2y2   :     0.001309
      dxy     :     0.002083
      f0      :     0.000010  f :     0.000085
      f+1     :     0.000014
      f-1     :     0.000004
      f+2     :     0.000007
      f-2     :     0.000009
      f+3     :     0.000007
      f-3     :     0.000034
  4 Aus       :     0.002250  s :     0.002250
      pz      :     0.001123  p :     0.004008
      px      :     0.001398
      py      :     0.001487
      dz2     :     0.002278  d :     0.008219
      dxz     :     0.000812
      dyz     :     0.002767
      dx2y2   :     0.001396
      dxy     :     0.000967
      f0      :     0.000007  f :     0.000119
      f+1     :     0.000010
      f-1     :     0.000044
      f+2     :     0.000026
      f-2     :     0.000020
      f+3     :     0.000009
      f-3     :     0.000003
  5 Aus       :     0.000959  s :     0.000959
      pz      :     0.001759  p :     0.003456
      px      :     0.001200
      py      :     0.000497
      dz2     :     0.000957  d :     0.007332
      dxz     :     0.000139
      dyz     :     0.002090
      dx2y2   :     0.002710
      dxy     :     0.001436
      f0      :     0.000021  f :     0.000196
      f+1     :     0.000002
      f-1     :     0.000037
      f+2     :     0.000034
      f-2     :     0.000004
      f+3     :     0.000026
      f-3     :     0.000072
  6 Aus       :     0.002284  s :     0.002284
      pz      :     0.001368  p :     0.003957
      px      :     0.001541
      py      :     0.001048
      dz2     :     0.000538  d :     0.008284
      dxz     :     0.002342
      dyz     :     0.001214
      dx2y2   :     0.001542
      dxy     :     0.002648
      f0      :     0.000018  f :     0.000119
      f+1     :     0.000005
      f-1     :     0.000004
      f+2     :     0.000007
      f-2     :     0.000043
      f+3     :     0.000022
      f-3     :     0.000020
  7 Aus       :     0.002906  s :     0.002906
      pz      :     0.000974  p :     0.002069
      px      :     0.000141
      py      :     0.000954
      dz2     :     0.000124  d :     0.000667
      dxz     :     0.000186
      dyz     :     0.000126
      dx2y2   :     0.000130
      dxy     :     0.000100
      f0      :     0.000000  f :     0.000004
      f+1     :     0.000001
      f-1     :     0.000000
      f+2     :     0.000000
      f-2     :     0.000001
      f+3     :     0.000001
      f-3     :     0.000001
  8 Aus       :     0.000464  s :     0.000464
      pz      :     0.002074  p :     0.004660
      px      :     0.002167
      py      :     0.000420
      dz2     :     0.000787  d :     0.006977
      dxz     :     0.000184
      dyz     :     0.002059
      dx2y2   :     0.003024
      dxy     :     0.000922
      f0      :     0.000020  f :     0.000192
      f+1     :     0.000001
      f-1     :     0.000034
      f+2     :     0.000034
      f-2     :     0.000004
      f+3     :     0.000018
      f-3     :     0.000081
  9 Aus       :     0.002970  s :     0.002970
      pz      :     0.000774  p :     0.003079
      px      :     0.001268
      py      :     0.001036
      dz2     :     0.000863  d :     0.006683
      dxz     :     0.000801
      dyz     :     0.000349
      dx2y2   :     0.001091
      dxy     :     0.003579
      f0      :     0.000003  f :     0.000084
      f+1     :     0.000017
      f-1     :     0.000006
      f+2     :     0.000002
      f-2     :     0.000006
      f+3     :     0.000011
      f-3     :     0.000040
 10 Aus       :     0.000535  s :     0.000535
      pz      :     0.000505  p :     0.004626
      px      :     0.002084
      py      :     0.002037
      dz2     :     0.003070  d :     0.007030
      dxz     :     0.001395
      dyz     :     0.002058
      dx2y2   :     0.000200
      dxy     :     0.000307
      f0      :     0.000070  f :     0.000191
      f+1     :     0.000056
      f-1     :     0.000045
      f+2     :     0.000005
      f-2     :     0.000012
      f+3     :     0.000001
      f-3     :     0.000001
 11 Aus       :     0.002756  s :     0.002756
      pz      :     0.001213  p :     0.002871
      px      :     0.000627
      py      :     0.001030
      dz2     :     0.000633  d :     0.007124
      dxz     :     0.001625
      dyz     :     0.001162
      dx2y2   :     0.001015
      dxy     :     0.002689
      f0      :     0.000017  f :     0.000108
      f+1     :     0.000004
      f-1     :     0.000004
      f+2     :     0.000006
      f-2     :     0.000036
      f+3     :     0.000012
      f-3     :     0.000028
 12 Aus       :     0.002769  s :     0.002769
      pz      :     0.001180  p :     0.003261
      px      :     0.001249
      py      :     0.000831
      dz2     :     0.001315  d :     0.009221
      dxz     :     0.004033
      dyz     :     0.001322
      dx2y2   :     0.001196
      dxy     :     0.001354
      f0      :     0.000016  f :     0.000153
      f+1     :     0.000038
      f-1     :     0.000009
      f+2     :     0.000033
      f-2     :     0.000036
      f+3     :     0.000006
      f-3     :     0.000014
 13 Aus       :     0.002725  s :     0.002725
      pz      :     0.000973  p :     0.002931
      px      :     0.000601
      py      :     0.001358
      dz2     :     0.001682  d :     0.007040
      dxz     :     0.001081
      dyz     :     0.002705
      dx2y2   :     0.000495
      dxy     :     0.001078
      f0      :     0.000005  f :     0.000107
      f+1     :     0.000011
      f-1     :     0.000039
      f+2     :     0.000017
      f-2     :     0.000026
      f+3     :     0.000006
      f-3     :     0.000002
 14 Mns       :     0.000395  s :     0.000395
      pz      :     0.000115  p :     0.000632
      px      :     0.000457
      py      :     0.000060
      dz2     :     0.768886  d :     3.827736
      dxz     :     0.764478
      dyz     :     0.759346
      dx2y2   :     0.770560
      dxy     :     0.764466
      f0      :     0.000000  f :     0.000001
      f+1     :     0.000000
      f-1     :     0.000000
      f+2     :     0.000000
      f-2     :     0.000000
      f+3     :     0.000000
      f-3     :     0.000000


                      *****************************
                      * MAYER POPULATION ANALYSIS *
                      *****************************

  NA   - Mulliken gross atomic population
  ZA   - Total nuclear charge
  QA   - Mulliken gross atomic charge
  VA   - Mayer's total valence
  BVA  - Mayer's bonded valence
  FA   - Mayer's free valence

  ATOM       NA         ZA         QA         VA         BVA        FA
  0 Au    18.4972    19.0000     0.5028     1.1137     1.1098     0.0039
  1 Au    18.5576    19.0000     0.4424     1.0555     1.0536     0.0020
  2 Au    19.0776    19.0000    -0.0776     1.6941     1.6882     0.0059
  3 Au    19.0962    19.0000    -0.0962     1.6398     1.6352     0.0046
  4 Au    19.0513    19.0000    -0.0513     1.7568     1.7521     0.0047
  5 Au    18.4828    19.0000     0.5172     1.1059     1.1020     0.0038
  6 Au    19.0625    19.0000    -0.0625     1.7594     1.7546     0.0048
  7 Au    18.5570    19.0000     0.4430     1.0559     1.0539     0.0020
  8 Au    18.4611    19.0000     0.5389     1.2668     1.2632     0.0035
  9 Au    19.0939    19.0000    -0.0939     1.6388     1.6342     0.0046
 10 Au    18.4688    19.0000     0.5312     1.2683     1.2647     0.0036
 11 Au    18.8171    19.0000     0.1829     1.2773     1.2727     0.0045
 12 Au    19.0810    19.0000    -0.0810     1.6992     1.6933     0.0059
 13 Au    18.8131    19.0000     0.1869     1.2855     1.2810     0.0045
 14 Mn    27.8830    25.0000    -2.8830     9.7542     5.0136     4.7406

  Mayer bond orders larger than 0.100000
B(  0-Au,  8-Au) :   0.1959 B(  0-Au,  9-Au) :   0.1598 B(  0-Au, 14-Mn) :   0.3887 
B(  1-Au,  2-Au) :   0.2852 B(  1-Au,  3-Au) :   0.2453 B(  1-Au,  4-Au) :   0.3523 
B(  2-Au,  3-Au) :   0.1448 B(  2-Au,  4-Au) :   0.1896 B(  2-Au,  8-Au) :   0.2111 
B(  2-Au, 11-Au) :   0.1335 B(  2-Au, 14-Mn) :   0.4766 B(  3-Au,  4-Au) :   0.1984 
B(  3-Au,  5-Au) :   0.1653 B(  3-Au, 10-Au) :   0.2211 B(  3-Au, 11-Au) :   0.1228 
B(  3-Au, 14-Mn) :   0.4055 B(  4-Au,  6-Au) :   0.4109 B(  4-Au, 14-Mn) :   0.3980 
B(  5-Au, 10-Au) :   0.1955 B(  5-Au, 14-Mn) :   0.3783 B(  6-Au,  7-Au) :   0.3541 
B(  6-Au,  9-Au) :   0.1961 B(  6-Au, 12-Au) :   0.1902 B(  6-Au, 14-Mn) :   0.4010 
B(  7-Au,  9-Au) :   0.2433 B(  7-Au, 12-Au) :   0.2879 B(  8-Au,  9-Au) :   0.2251 
B(  8-Au, 11-Au) :   0.1128 B(  8-Au, 14-Mn) :   0.3033 B(  9-Au, 12-Au) :   0.1457 
B(  9-Au, 13-Au) :   0.1263 B(  9-Au, 14-Mn) :   0.4047 B( 10-Au, 12-Au) :   0.2263 
B( 10-Au, 13-Au) :   0.1072 B( 10-Au, 14-Mn) :   0.3104 B( 11-Au, 13-Au) :   0.1712 
B( 11-Au, 14-Mn) :   0.4611 B( 12-Au, 13-Au) :   0.1358 B( 12-Au, 14-Mn) :   0.4761 
B( 13-Au, 14-Mn) :   0.4598 


-------------------------------------------------------------
 Forming the transition density       ... done in 0.021920 sec
-------------------------------------------------------------



==========================================
CASSCF UV, CD spectra and dipole moments
==========================================
-------------------
ABSORPTION SPECTRUM
-------------------

Center of mass           = ( 13.5544, 15.4654, 14.1503)
Nuclear contribution to the dipole moment =     1.681447,   -4.610619,   -4.390163 au

Calculating the Dipole integrals                  ... done
Transforming integrals                            ... done
Calculating the Linear Momentum integrals         ... done
Transforming integrals                            ... done
Calculating the Angular Momentum integrals        ... done
Transforming integrals                            ... done

------------------------------------------------------------------------------
                                 DIPOLE MOMENTS
------------------------------------------------------------------------------
  Root  Block           TX        TY        TZ           |T|
                      (Debye)   (Debye)   (Debye)      (Debye)
------------------------------------------------------------------------------
    0    0           -0.25079   0.69762   0.62225      0.96787

--------------
CASSCF TIMINGS
--------------

Total time                       ...      492.3 sec
Sum of individual times          ...      480.2 sec ( 97.6%)

Calculation of AO operators
   F(Core) operator              ...      230.5 sec ( 46.8%)
   G(Act) operator               ...      212.9 sec ( 43.3%)
   J(AO) operators               ...        0.0 sec (  0.0%)
Calculation of MO transformed quantities
   J(MO) operators               ...       27.1 sec (  5.5%)
   (pq|rs) integrals             ...        0.0 sec (  0.0%)
   AO->MO one electron integrals ...        2.0 sec (  0.4%)
Configuration interaction steps
   CI-setup phase                ...        0.0 sec (  0.0%)
   CI-solution phase             ...        0.3 sec (  0.1%)
   Generation of densities       ...        0.0 sec (  0.0%)
Orbital improvement steps
   Orbital gradient              ...        0.3 sec (  0.1%)
   O(1) converger                ...        7.1 sec (  1.4%)
Properties                       ...        0.0 sec (  0.0%)
   SOC integral calculation      ...        0.0 sec (  0.0%)
   SSC RMEs (incl. integrals)    ...        0.0 sec (  0.0%)
   SOC RMEs                      ...        0.0 sec (  0.0%)

Maximum memory used throughout the entire CASSCF-calculation: 307.7 MB

-------------------------   --------------------
FINAL SINGLE POINT ENERGY     -3037.141745169809
-------------------------   --------------------


                            ***************************************
                            *     ORCA property calculations      *
                            ***************************************

                                    ---------------------
                                    Active property flags
                                    ---------------------
   (+) Dipole Moment


------------------------------------------------------------------------------
                       ORCA ELECTRIC PROPERTIES CALCULATION
------------------------------------------------------------------------------

Dipole Moment Calculation                       ... on
Quadrupole Moment Calculation                   ... off
Polarizability Calculation                      ... off
GBWName                                         ... casscf.gbw
Electron density                                ... casscf.scfp
The origin for moment calculation is the CENTER OF MASS  = (13.554430, 15.465370 14.150291)

-------------
DIPOLE MOMENT
-------------
                                X             Y             Z
Electronic contribution:     -1.78011       4.88508       4.63497
Nuclear contribution   :      1.68145      -4.61062      -4.39016
                        -----------------------------------------
Total Dipole Moment    :     -0.09867       0.27446       0.24481
                        -----------------------------------------
Magnitude (a.u.)       :      0.38078
Magnitude (Debye)      :      0.96787



--------------------
Rotational spectrum 
--------------------
 
Rotational constants in cm-1:     0.001289     0.000947     0.000895 
Rotational constants in MHz :    38.631379    28.378572    26.819080 

 Dipole components along the rotational axes: 
x,y,z [a.u.] :    -0.006654     0.380515    -0.012585 
x,y,z [Debye]:    -0.016913     0.967191    -0.031989 

 

Timings for individual modules:

Sum of individual times         ...      529.021 sec (=   8.817 min)
GTO integral calculation        ...       17.375 sec (=   0.290 min)   3.3 %
SCF iterations                  ...       12.857 sec (=   0.214 min)   2.4 %
CASSCF iterations               ...      498.789 sec (=   8.313 min)  94.3 %
                             ****ORCA TERMINATED NORMALLY****
TOTAL RUN TIME: 0 days 0 hours 8 minutes 51 seconds 931 msec
