
                                 *****************
                                 * O   R   C   A *
                                 *****************

                                            #,                                       
                                            ###                                      
                                            ####                                     
                                            #####                                    
                                            ######                                   
                                           ########,                                 
                                     ,,################,,,,,                         
                               ,,#################################,,                 
                          ,,##########################################,,             
                       ,#########################################, ''#####,          
                    ,#############################################,,   '####,        
                  ,##################################################,,,,####,       
                ,###########''''           ''''###############################       
              ,#####''   ,,,,##########,,,,          '''####'''          '####       
            ,##' ,,,,###########################,,,                        '##       
           ' ,,###''''                  '''############,,,                           
         ,,##''                                '''############,,,,        ,,,,,,###''
      ,#''                                            '''#######################'''  
     '                                                          ''''####''''         
             ,#######,   #######,   ,#######,      ##                                
            ,#'     '#,  ##    ##  ,#'     '#,    #''#        ######   ,####,        
            ##       ##  ##   ,#'  ##            #'  '#       #        #'  '#        
            ##       ##  #######   ##           ,######,      #####,   #    #        
            '#,     ,#'  ##    ##  '#,     ,#' ,#      #,         ##   #,  ,#        
             '#######'   ##     ##  '#######'  #'      '#     #####' # '####'        



                  #######################################################
                  #                        -***-                        #
                  #          Department of theory and spectroscopy      #
                  #    Directorship and core code : Frank Neese         #
                  #        Max Planck Institute fuer Kohlenforschung    #
                  #                Kaiser Wilhelm Platz 1               #
                  #                 D-45470 Muelheim/Ruhr               #
                  #                      Germany                        #
                  #                                                     #
                  #                  All rights reserved                #
                  #                        -***-                        #
                  #######################################################


                         Program Version 5.0.3 -  RELEASE  -


 With contributions from (in alphabetic order):
   Daniel Aravena         : Magnetic Suceptibility
   Michael Atanasov       : Ab Initio Ligand Field Theory (pilot matlab implementation)
   Alexander A. Auer      : GIAO ZORA, VPT2 properties, NMR spectrum
   Ute Becker             : Parallelization
   Giovanni Bistoni       : ED, misc. LED, open-shell LED, HFLD
   Martin Brehm           : Molecular dynamics
   Dmytro Bykov           : SCF Hessian
   Vijay G. Chilkuri      : MRCI spin determinant printing, contributions to CSF-ICE
   Dipayan Datta          : RHF DLPNO-CCSD density
   Achintya Kumar Dutta   : EOM-CC, STEOM-CC
   Dmitry Ganyushin       : Spin-Orbit,Spin-Spin,Magnetic field MRCI
   Miquel Garcia          : C-PCM and meta-GGA Hessian, CC/C-PCM, Gaussian charge scheme
   Yang Guo               : DLPNO-NEVPT2, F12-NEVPT2, CIM, IAO-localization
   Andreas Hansen         : Spin unrestricted coupled pair/coupled cluster methods
   Benjamin Helmich-Paris : MC-RPA, TRAH-SCF, COSX integrals
   Lee Huntington         : MR-EOM, pCC
   Robert Izsak           : Overlap fitted RIJCOSX, COSX-SCS-MP3, EOM
   Marcus Kettner         : VPT2
   Christian Kollmar      : KDIIS, OOCD, Brueckner-CCSD(T), CCSD density, CASPT2, CASPT2-K
   Simone Kossmann        : Meta GGA functionals, TD-DFT gradient, OOMP2, MP2 Hessian
   Martin Krupicka        : Initial AUTO-CI
   Lucas Lang             : DCDCAS
   Marvin Lechner         : AUTO-CI (C++ implementation), FIC-MRCC
   Dagmar Lenk            : GEPOL surface, SMD
   Dimitrios Liakos       : Extrapolation schemes; Compound Job, initial MDCI parallelization
   Dimitrios Manganas     : Further ROCIS development; embedding schemes
   Dimitrios Pantazis     : SARC Basis sets
   Anastasios Papadopoulos: AUTO-CI, single reference methods and gradients
   Taras Petrenko         : DFT Hessian,TD-DFT gradient, ASA, ECA, R-Raman, ABS, FL, XAS/XES, NRVS
   Peter Pinski           : DLPNO-MP2, DLPNO-MP2 Gradient
   Christoph Reimann      : Effective Core Potentials
   Marius Retegan         : Local ZFS, SOC
   Christoph Riplinger    : Optimizer, TS searches, QM/MM, DLPNO-CCSD(T), (RO)-DLPNO pert. Triples
   Tobias Risthaus        : Range-separated hybrids, TD-DFT gradient, RPA, STAB
   Michael Roemelt        : Original ROCIS implementation
   Masaaki Saitow         : Open-shell DLPNO-CCSD energy and density
   Barbara Sandhoefer     : DKH picture change effects
   Avijit Sen             : IP-ROCIS
   Kantharuban Sivalingam : CASSCF convergence, NEVPT2, FIC-MRCI
   Bernardo de Souza      : ESD, SOC TD-DFT
   Georgi Stoychev        : AutoAux, RI-MP2 NMR, DLPNO-MP2 response
   Willem Van den Heuvel  : Paramagnetic NMR
   Boris Wezisla          : Elementary symmetry handling
   Frank Wennmohs         : Technical directorship


 We gratefully acknowledge several colleagues who have allowed us to
 interface, adapt or use parts of their codes:
   Stefan Grimme, W. Hujo, H. Kruse, P. Pracht,  : VdW corrections, initial TS optimization,
                  C. Bannwarth, S. Ehlert          DFT functionals, gCP, sTDA/sTD-DF
   Ed Valeev, F. Pavosevic, A. Kumar             : LibInt (2-el integral package), F12 methods
   Garnet Chan, S. Sharma, J. Yang, R. Olivares  : DMRG
   Ulf Ekstrom                                   : XCFun DFT Library
   Mihaly Kallay                                 : mrcc  (arbitrary order and MRCC methods)
   Jiri Pittner, Ondrej Demel                    : Mk-CCSD
   Frank Weinhold                                : gennbo (NPA and NBO analysis)
   Christopher J. Cramer and Donald G. Truhlar   : smd solvation model
   Lars Goerigk                                  : TD-DFT with DH, B97 family of functionals
   V. Asgeirsson, H. Jonsson                     : NEB implementation
   FAccTs GmbH                                   : IRC, NEB, NEB-TS, DLPNO-Multilevel, CI-OPT
                                                   MM, QMMM, 2- and 3-layer-ONIOM, Crystal-QMMM,
                                                   LR-CPCM, SF, NACMEs, symmetry and pop. for TD-DFT,
                                                   nearIR, NL-DFT gradient (VV10), updates on ESD,
                                                   ML-optimized integration grids
   S Lehtola, MJT Oliveira, MAL Marques          : LibXC Library
   Liviu Ungur et al                             : ANISO software


 Your calculation uses the libint2 library for the computation of 2-el integrals
 For citations please refer to: http://libint.valeyev.net

 Your ORCA version has been built with support for libXC version: 5.1.0
 For citations please refer to: https://tddft.org/programs/libxc/

 This ORCA versions uses:
   CBLAS   interface :  Fast vector & matrix operations
   LAPACKE interface :  Fast linear algebra routines
   SCALAPACK package :  Parallel linear algebra routines
   Shared memory     :  Shared parallel matrices
   BLAS/LAPACK       :  OpenBLAS 0.3.15  USE64BITINT DYNAMIC_ARCH NO_AFFINITY Haswell SINGLE_THREADED
        Core in use  :  Haswell
   Copyright (c) 2011-2014, The OpenBLAS Project




***************************************
The coordinates will be read from file: pbe.xyz
***************************************


================================================================================

cite the ECPs for Au [Def2-ECP] as follows:
Ce-Yb(ecp-28): M. Dolg, H. Stoll, H.Preuss, J. Chem. Phys., 1989, 90, 1730-1734.
Y-Cd(ecp-28), Hf-Hg(ecp-46): D. Andrae,U. Haeussermann, M. Dolg, H. Stoll, H. Preuss, Theor. Chim. Acta, 1990, 77, 123-141.
In-Sb(ecp-28), Tl-Bi(ecp-46): B. Metz, H. Stoll, M. Dolg, J. Chem. Phys., 2000, 113, 2563-2569.
Te-Xe(ecp-28), Po-Rn(ecp-46): K. A. Peterson, D. Figgen, E. Goll, H. Stoll, M. Dolg, J. Chem. Phys., 2003, 119, 11113-11123.
Rb(ecp-28), Cs(ecp-46): T. Leininger, A. Nicklass, W. Kuechle, H. Stoll, M. Dolg, A. Bergner, Chem. Phys. Lett., 1996, 255, 274-280.
Sr(ecp-28), Ba(ecp-46): M. Kaupp, P. V. Schleyer, H. Stoll and H. Preuss, J. Chem. Phys., 1991, 94, 1360-1366.
La(ecp-46): M. Dolg, H. Stoll, A. Savin, H. Preuss, Theor. Chim. Acta, 1989, 75, 173-194.
Lu(ecp-28): X. Cao, M. Dolg, J. Chem. Phys., 2001, 115, 7348-7355.

ECP parameters for Au [Def2-ECP] have been obtained from:
TURBOMOLE (7.0.2)

----- Orbital basis set information -----
Your calculation utilizes the basis: def2-TZVP
   F. Weigend and R. Ahlrichs, Phys. Chem. Chem. Phys. 7, 3297 (2005).

----- AuxJ basis set information -----
Your calculation utilizes the auxiliary basis: def2/J
   F. Weigend, Phys. Chem. Chem. Phys. 8, 1057 (2006).

================================================================================
                                        WARNINGS
                       Please study these warnings very carefully!
================================================================================


WARNING: your system is open-shell and RHF/RKS was chosen
  ===> : WILL SWITCH to UHF/UKS


INFO   : the flag for use of the SHARK integral package has been found!



***************************************
The coordinates will be read from file: pbe.xyz
***************************************


================================================================================

cite the ECPs for Au [Def2-ECP] as follows:
Ce-Yb(ecp-28): M. Dolg, H. Stoll, H.Preuss, J. Chem. Phys., 1989, 90, 1730-1734.
Y-Cd(ecp-28), Hf-Hg(ecp-46): D. Andrae,U. Haeussermann, M. Dolg, H. Stoll, H. Preuss, Theor. Chim. Acta, 1990, 77, 123-141.
In-Sb(ecp-28), Tl-Bi(ecp-46): B. Metz, H. Stoll, M. Dolg, J. Chem. Phys., 2000, 113, 2563-2569.
Te-Xe(ecp-28), Po-Rn(ecp-46): K. A. Peterson, D. Figgen, E. Goll, H. Stoll, M. Dolg, J. Chem. Phys., 2003, 119, 11113-11123.
Rb(ecp-28), Cs(ecp-46): T. Leininger, A. Nicklass, W. Kuechle, H. Stoll, M. Dolg, A. Bergner, Chem. Phys. Lett., 1996, 255, 274-280.
Sr(ecp-28), Ba(ecp-46): M. Kaupp, P. V. Schleyer, H. Stoll and H. Preuss, J. Chem. Phys., 1991, 94, 1360-1366.
La(ecp-46): M. Dolg, H. Stoll, A. Savin, H. Preuss, Theor. Chim. Acta, 1989, 75, 173-194.
Lu(ecp-28): X. Cao, M. Dolg, J. Chem. Phys., 2001, 115, 7348-7355.

ECP parameters for Au [Def2-ECP] have been obtained from:
TURBOMOLE (7.0.2)

----- Orbital basis set information -----
Your calculation utilizes the basis: def2-TZVP
   F. Weigend and R. Ahlrichs, Phys. Chem. Chem. Phys. 7, 3297 (2005).

----- AuxJ basis set information -----
Your calculation utilizes the auxiliary basis: def2/J
   F. Weigend, Phys. Chem. Chem. Phys. 8, 1057 (2006).

================================================================================
                                        WARNINGS
                       Please study these warnings very carefully!
================================================================================


INFO   : the flag for use of the SHARK integral package has been found!

================================================================================
                                       INPUT FILE
================================================================================
NAME = pbeSP.inp
|  1> !PBE def2-TZVP VERYSLOWCONV
|  2> 
|  3> %scf
|  4>   AutoTRAHIter 200
|  5>   maxiter 400
|  6> end
|  7> 
|  8> 
|  9> %pal nprocs 6 end 
| 10> 
| 11> *xyzfile 0 5 pbe.xyz
| 12> 
| 13> $new_job
| 14> 
| 15> !PBE def2-TZVP VERYSLOWCONV
| 16> 
| 17> %scf
| 18>   AutoTRAHIter 200
| 19>   maxiter 400
| 20> end
| 21>  
| 22> 
| 23> %pal nprocs 6 end 
| 24> 
| 25> *xyzfile 0 3 pbe.xyz
| 26> 
| 27> 
| 28> 
| 29> 
| 30> 
| 31>                          ****END OF INPUT****
================================================================================


                 $$$$$$$$$$$$$$$$$$$$$$$$$$$$$$$$$$$$$$$$$$$$$$ 
                 $ THERE ARE  2 JOBS TO BE PROCESSED THIS RUN $
                 $$$$$$$$$$$$$$$$$$$$$$$$$$$$$$$$$$$$$$$$$$$$$$ 




                 $$$$$$$$$$$$$$$$  JOB NUMBER  1 $$$$$$$$$$$$$$


                       ****************************
                       * Single Point Calculation *
                       ****************************

---------------------------------
CARTESIAN COORDINATES (ANGSTROEM)
---------------------------------
  Au     9.434609    5.547976    8.841342
  Au    10.466945    6.827914    5.948535
  Au     6.792545    5.025118    8.125305
  Au    10.166535    9.749188   12.103101
  Au     9.792170    7.436210   10.720045
  Au     8.260203    9.844777   10.165285
  Au     7.173257    7.309436    9.749190
  Au    11.623994    7.137632    8.608577
  Au    11.139522    9.758250    9.527025
  Au     8.896761    4.634910    6.303233
  Au     9.266332   10.913050    7.770111
  Au    11.349271    9.286150    6.831361
  Au     8.976115    9.175923    5.435279
  Au     6.298187    8.706566    5.355604
  Au     6.856784    9.656935    7.877643
  Au     5.335508    7.334239    7.608604
  Cr     8.026132    7.221688    7.028374

----------------------------
CARTESIAN COORDINATES (A.U.)
----------------------------
  NO LB      ZA    FRAG     MASS         X           Y           Z
   0 Au   19.0000*   0   196.966   17.828828   10.484155   16.707715
   1 Au   19.0000*   0   196.966   19.779660   12.902888   11.241103
   2 Au   19.0000*   0   196.966   12.836051    9.496097   15.354600
   3 Au   19.0000*   0   196.966   19.211967   18.423295   22.871547
   4 Au   19.0000*   0   196.966   18.504520   14.052399   20.257950
   5 Au   19.0000*   0   196.966   15.609521   18.603933   19.209605
   6 Au   19.0000*   0   196.966   13.555492   13.812832   18.423299
   7 Au   19.0000*   0   196.966   21.966165   13.488169   16.267852
   8 Au   19.0000*   0   196.966   21.050647   18.440419   18.003469
   9 Au   19.0000*   0   196.966   16.812442    8.758710   11.911385
  10 Au   19.0000*   0   196.966   17.510829   20.622675   14.683381
  11 Au   19.0000*   0   196.966   21.447015   17.548279   12.909402
  12 Au   19.0000*   0   196.966   16.962399   17.339981   10.271189
  13 Au   19.0000*   0   196.966   11.901849   16.453025   10.120625
  14 Au   19.0000*   0   196.966   12.957444   18.248962   14.886588
  15 Au   19.0000*   0   196.966   10.082649   13.859704   14.378178
  16 Cr   24.0000    0    52.000   15.167192   13.647012   13.281702
* core charge reduced due to ECP

--------------------------------
INTERNAL COORDINATES (ANGSTROEM)
--------------------------------
 Au     0   0   0     0.000000000000     0.00000000     0.00000000
 Au     1   0   0     3.327504963077     0.00000000     0.00000000
 Au     1   2   0     2.786860595423    98.21701429     0.00000000
 Au     1   2   3     5.368888904438   100.65371779   241.87118286
 Au     1   2   3     2.687527225629   107.22907518   239.49282685
 Au     4   1   2     2.719994458854    59.94237212    67.69414750
 Au     6   4   1     2.789720592091   110.32808152    32.97274996
 Au     1   2   3     2.715619389256    56.64622929   200.65954163
 Au     4   1   2     2.753716345538    58.82900644   350.14795754
 Au     2   1   3     2.720396783702    52.95059768   317.11912767
 Au     6   4   1     2.808979252185   111.70396567   269.02955419
 Au     9   4   1     2.744717910573   160.94524286    33.98783507
 Au    12   9   4     2.755552292816   116.01808188    33.34271375
 Au    13  12   9     2.719915182349   150.42104684   333.87478417
 Au     6   4   1     2.690386054731   165.67970104   317.17952305
 Au     3   1   2     2.778844603662   112.88993652   294.23022038
 Cr    13  12   9     2.694336849477    91.89704778   303.62921344

---------------------------
INTERNAL COORDINATES (A.U.)
---------------------------
 Au     0   0   0     0.000000000000     0.00000000     0.00000000
 Au     1   0   0     6.288073089480     0.00000000     0.00000000
 Au     1   2   0     5.266403298766    98.21701429     0.00000000
 Au     1   2   3    10.145729672837   100.65371779   241.87118286
 Au     1   2   3     5.078690433897   107.22907518   239.49282685
 Au     4   1   2     5.140044613017    59.94237212    67.69414750
 Au     6   4   1     5.271807909212   110.32808152    32.97274996
 Au     1   2   3     5.131776929660    56.64622929   200.65954163
 Au     4   1   2     5.203769743569    58.82900644   350.14795754
 Au     2   1   3     5.140804896797    52.95059768   317.11912767
 Au     6   4   1     5.308201502497   111.70396567   269.02955419
 Au     9   4   1     5.186765165851   160.94524286    33.98783507
 Au    12   9   4     5.207239181120   116.01808188    33.34271375
 Au    13  12   9     5.139894802135   150.42104684   333.87478417
 Au     6   4   1     5.084092837963   165.67970104   317.17952305
 Au     3   1   2     5.251255269646   112.88993652   294.23022038
 Cr    13  12   9     5.091558758044    91.89704778   303.62921344

---------------------
BASIS SET INFORMATION
---------------------
There are 2 groups of distinct atoms

 Group   1 Type Au  : 8s7p6d1f contracted to 6s4p3d1f pattern {311111/4111/411/1}
 Group   2 Type Cr  : 17s11p7d1f contracted to 6s4p4d1f pattern {842111/6311/4111/1}

Atom   0Au   basis set group =>   1
Atom   1Au   basis set group =>   1
Atom   2Au   basis set group =>   1
Atom   3Au   basis set group =>   1
Atom   4Au   basis set group =>   1
Atom   5Au   basis set group =>   1
Atom   6Au   basis set group =>   1
Atom   7Au   basis set group =>   1
Atom   8Au   basis set group =>   1
Atom   9Au   basis set group =>   1
Atom  10Au   basis set group =>   1
Atom  11Au   basis set group =>   1
Atom  12Au   basis set group =>   1
Atom  13Au   basis set group =>   1
Atom  14Au   basis set group =>   1
Atom  15Au   basis set group =>   1
Atom  16Cr   basis set group =>   2
---------------------------------
AUXILIARY/J BASIS SET INFORMATION
---------------------------------
There are 2 groups of distinct atoms

 Group   1 Type Au  : 11s5p5d3f3g contracted to 8s5p5d2f3g pattern {41111111/11111/11111/21/111}
 Group   2 Type Cr  : 19s5p5d3f3g contracted to 8s5p5d2f3g pattern {121111111/11111/11111/21/111}

Atom   0Au   basis set group =>   1
Atom   1Au   basis set group =>   1
Atom   2Au   basis set group =>   1
Atom   3Au   basis set group =>   1
Atom   4Au   basis set group =>   1
Atom   5Au   basis set group =>   1
Atom   6Au   basis set group =>   1
Atom   7Au   basis set group =>   1
Atom   8Au   basis set group =>   1
Atom   9Au   basis set group =>   1
Atom  10Au   basis set group =>   1
Atom  11Au   basis set group =>   1
Atom  12Au   basis set group =>   1
Atom  13Au   basis set group =>   1
Atom  14Au   basis set group =>   1
Atom  15Au   basis set group =>   1
Atom  16Cr   basis set group =>   2
-------------------------
ECP PARAMETER INFORMATION
-------------------------

 Group 1, Type Au ECP Def2-ECP (replacing 60 core electrons, lmax=3)

Atom   0Au   ECP group =>   1
Atom   1Au   ECP group =>   1
Atom   2Au   ECP group =>   1
Atom   3Au   ECP group =>   1
Atom   4Au   ECP group =>   1
Atom   5Au   ECP group =>   1
Atom   6Au   ECP group =>   1
Atom   7Au   ECP group =>   1
Atom   8Au   ECP group =>   1
Atom   9Au   ECP group =>   1
Atom  10Au   ECP group =>   1
Atom  11Au   ECP group =>   1
Atom  12Au   ECP group =>   1
Atom  13Au   ECP group =>   1
Atom  14Au   ECP group =>   1
Atom  15Au   ECP group =>   1



           ************************************************************
           *        Program running with 6 parallel MPI-processes     *
           *              working on a common directory               *
           ************************************************************
------------------------------------------------------------------------------
                           ORCA GTO INTEGRAL CALCULATION
                           -- RI-GTO INTEGRALS CHOSEN --
------------------------------------------------------------------------------
------------------------------------------------------------------------------
                   ___                                                        
                  /   \      - P O W E R E D   B Y -                         
                 /     \                                                     
                 |  |  |   _    _      __       _____    __    __             
                 |  |  |  | |  | |    /  \     |  _  \  |  |  /  |          
                  \  \/   | |  | |   /    \    | | | |  |  | /  /          
                 / \  \   | |__| |  /  /\  \   | |_| |  |  |/  /          
                |  |  |   |  __  | /  /__\  \  |    /   |      \           
                |  |  |   | |  | | |   __   |  |    \   |  |\   \          
                \     /   | |  | | |  |  |  |  | |\  \  |  | \   \       
                 \___/    |_|  |_| |__|  |__|  |_| \__\ |__|  \__/        
                                                                              
                      - O R C A' S   B I G   F R I E N D -                    
                                      &                                       
                       - I N T E G R A L  F E E D E R -                       
                                                                              
 v1 FN, 2020, v2 2021                                                         
------------------------------------------------------------------------------


Reading SHARK input file pbeSP.SHARKINP.tmp ... ok
----------------------
SHARK INTEGRAL PACKAGE
----------------------

Number of atoms                             ...     17
Number of basis functions                   ...    685
Number of shells                            ...    239
Maximum angular momentum                    ...      3
Integral batch strategy                     ... SHARK/LIBINT Hybrid
RI-J (if used) integral strategy            ... SPLIT-RIJ (Revised 2003 algorithm where possible)
Printlevel                                  ...      1
Contraction scheme used                     ... SEGMENTED contraction
Coulomb Range Separation                    ... NOT USED
Exchange Range Separation                   ... NOT USED
Finite Nucleus Model                        ... NOT USED
Auxiliary Coulomb fitting basis             ... AVAILABLE
   # of basis functions in Aux-J            ...   1513
   # of shells in Aux-J                     ...    391
   Maximum angular momentum in Aux-J        ...      4
Auxiliary J/K fitting basis                 ... NOT available
Auxiliary Correlation fitting basis         ... NOT available
Auxiliary 'external' fitting basis          ... NOT available
Integral threshold                          ...     1.000000e-10
Primitive cut-off                           ...     1.000000e-11
Primitive pair pre-selection threshold      ...     1.000000e-11

Calculating pre-screening integrals         ... done (  0.1 sec) Dimension = 239
Organizing shell pair data                  ... done (  0.3 sec)
Shell pair information
Total number of shell pairs                 ...     28680
Shell pairs after pre-screening             ...     21970
Total number of primitive shell pairs       ...     75765
Primitive shell pairs kept                  ...     41519
          la=0 lb=0:   3484 shell pairs
          la=1 lb=0:   5030 shell pairs
          la=1 lb=1:   1866 shell pairs
          la=2 lb=0:   4395 shell pairs
          la=2 lb=1:   3079 shell pairs
          la=2 lb=2:   1277 shell pairs
          la=3 lb=0:   1122 shell pairs
          la=3 lb=1:    850 shell pairs
          la=3 lb=2:    754 shell pairs
          la=3 lb=3:    113 shell pairs

Calculating one electron integrals          ... done (  0.0 sec)
Calculating ECP integrals                   ... done ( 10.9 sec)
Calculating RI/J V-Matrix + Cholesky decomp.... done (  0.1 sec)
Calculating Nuclear repulsion               ... done (  0.0 sec) ENN=   6788.657104620414 Eh

SHARK setup successfully completed in  11.8 seconds

Maximum memory used throughout the entire GTOINT-calculation: 40.8 MB


           ************************************************************
           *        Program running with 6 parallel MPI-processes     *
           *              working on a common directory               *
           ************************************************************
-------------------------------------------------------------------------------
                                 ORCA SCF
-------------------------------------------------------------------------------

------------
SCF SETTINGS
------------
Hamiltonian:
 Density Functional     Method          .... DFT(GTOs)
 Exchange Functional    Exchange        .... PBE
   PBE kappa parameter   XKappa         ....  0.804000
   PBE mue parameter    XMuePBE         ....  0.219520
 Correlation Functional Correlation     .... PBE
   PBE beta parameter  CBetaPBE         ....  0.066725
 LDA part of GGA corr.  LDAOpt          .... PW91-LDA
 Gradients option       PostSCFGGA      .... off
   Density functional embedding theory  .... OFF
   NL short-range parameter             ....  6.400000
 RI-approximation to the Coulomb term is turned on
   Number of AuxJ basis functions       .... 1513


General Settings:
 Integral files         IntName         .... pbeSP
 Hartree-Fock type      HFTyp           .... UHF
 Total Charge           Charge          ....    0
 Multiplicity           Mult            ....    5
 Number of Electrons    NEL             ....  328
 Basis Dimension        Dim             ....  685
 Nuclear Repulsion      ENuc            ....   6788.6571046204 Eh

Convergence Acceleration:
 DIIS                   CNVDIIS         .... on
   Start iteration      DIISMaxIt       ....     0
   Startup error        DIISStart       ....  0.200000
   # of expansion vecs  DIISMaxEq       ....     5
   Bias factor          DIISBfac        ....   1.050
   Max. coefficient     DIISMaxC        ....  10.000
 Trust-Rad. Augm. Hess. CNVTRAH         .... auto
   Auto Start mean grad. ratio tolernc. ....  1.125000
   Auto Start start iteration           ....   200
   Auto Start num. interpolation iter.  ....    10
   Max. Number of Micro iterations      ....    16
   Max. Number of Macro iterations      .... Maxiter - #DIIS iter
   Number of Davidson start vectors     ....     2
   Converg. threshold I  (grad. norm)   ....   5.000e-05
   Converg. threshold II (energy diff.) ....   1.000e-06
   Grad. Scal. Fac. for Micro threshold ....   0.100
   Minimum threshold for Micro iter.    ....   0.010
   NR start threshold (gradient norm)   ....   0.001
   Initial trust radius                 ....   0.400
   Minimum AH scaling param. (alpha)    ....   1.000
   Maximum AH scaling param. (alpha)    .... 1000.000
   Orbital update algorithm             .... Taylor
   White noise on init. David. guess    .... on
   Maximum white noise                  ....   0.010
   Quad. conv. algorithm                .... NR
 SOSCF                  CNVSOSCF        .... off
 Level Shifting         CNVShift        .... on
   Level shift para.    LevelShift      ....    0.2500
   Turn off err/grad.   ShiftErr        ....    0.0000
 Zerner damping         CNVZerner       .... off
 Static damping         CNVDamp         .... on
   Fraction old density DampFac         ....    0.9200
   Max. Damping (<1)    DampMax         ....    0.9800
   Min. Damping (>=0)   DampMin         ....    0.0000
   Turn off err/grad.   DampErr         ....    0.0030
 Fernandez-Rico         CNVRico         .... off

SCF Procedure:
 Maximum # iterations   MaxIter         ....   400
 SCF integral mode      SCFMode         .... Direct
   Integral package                     .... SHARK and LIBINT hybrid scheme
 Reset frequency        DirectResetFreq ....    20
 Integral Threshold     Thresh          ....  1.000e-10 Eh
 Primitive CutOff       TCut            ....  1.000e-11 Eh

Convergence Tolerance:
 Convergence Check Mode ConvCheckMode   .... Total+1el-Energy
 Convergence forced     ConvForced      .... 0
 Energy Change          TolE            ....  1.000e-06 Eh
 1-El. energy change                    ....  1.000e-03 Eh
 DIIS Error             TolErr          ....  1.000e-06


Diagonalization of the overlap matrix:
Smallest eigenvalue                        ... 1.194e-04
Time for diagonalization                   ...    0.054 sec
Threshold for overlap eigenvalues          ... 1.000e-08
Number of eigenvalues below threshold      ... 0
Time for construction of square roots      ...    0.042 sec
Total time needed                          ...    0.097 sec

Time for model grid setup =    0.469 sec

------------------------------
INITIAL GUESS: MODEL POTENTIAL
------------------------------
Loading Hartree-Fock densities                     ... done
  calling /media/Programs/ORCA501/orca pbeSP_atom79.inp > pbeSP_atom79.out in order to generate an atomic fitting density for atom 0 (Au with ECP) on-the-fly... 
    atom 0 (Au), assumed electronic state with S=2: 1s2 2s2 2p6 3s2 3p6 4s2 3d10 4p6 5s2 4d10 5p6 6s1 4f14 5d10           ... done
Calculating cut-offs                               ... done
Initializing the effective Hamiltonian             ... done
Setting up the integral package (SHARK)            ... done
Starting the Coulomb interaction                   ... done (   0.5 sec)
Reading the grid                                   ... done
Mapping shells                                     ... done
Starting the XC term evaluation                    ... done (   0.5 sec)
  promolecular density results
     # of electrons  =   1288.016377983
     EX              =  -5900.364201816
     EC              =    -78.536781475
     EX+EC           =  -5978.900983291
Transforming the Hamiltonian                       ... done (   0.0 sec)
Diagonalizing the Hamiltonian                      ... done (   0.1 sec)
Back transforming the eigenvectors                 ... done (   0.0 sec)
Now organizing SCF variables                       ... done
                      ------------------
                      INITIAL GUESS DONE (   2.0 sec)
                      ------------------
-------------------
DFT GRID GENERATION
-------------------

General Integration Accuracy     IntAcc      ... 4.388
Radial Grid Type                 RadialGrid  ... OptM3 with GC (2021)
Angular Grid (max. ang.)         AngularGrid ... 4 (Lebedev-302)
Angular grid pruning method      GridPruning ... 4 (adaptive)
Weight generation scheme         WeightScheme... Becke
Basis function cutoff            BFCut       ... 1.0000e-10
Integration weight cutoff        WCut        ... 1.0000e-14
Angular grids for H and He will be reduced by one unit
Partially contracted basis set               ... off
Rotationally invariant grid construction     ... off

Total number of grid points                  ...   187404
Total number of batches                      ...     2935
Average number of points per batch           ...       63
Average number of grid points per atom       ...    11024
Time for grid setup =    1.481 sec

--------------
SCF ITERATIONS
--------------
ITER       Energy         Delta-E        Max-DP      RMS-DP      [F,P]     Damp
               ***  Starting incremental Fock matrix formation  ***
  0  -3215.9498766197   0.000000000000 0.10890156  0.00061113  0.2861620 0.9200
  1  -3216.3733477556  -0.423471135926 0.09964888  0.00055959  0.2622591 0.9200
                               ***Turning on DIIS***
  2  -3216.5926234696  -0.219275713982 0.09739749  0.00045542  0.2399814 0.9200
  3  -3216.6697118411  -0.077088371514 0.04651923  0.00027108  0.2196594 0.9200
  4  -3216.7247535043  -0.055041663238 0.03245010  0.00023799  0.2012379 0.9200
  5  -3216.7879948462  -0.063241341900 0.02344458  0.00019498  0.1845424 0.9200
  6  -3216.8321747579  -0.044179911657 0.04598725  0.00018010  0.1698278 0.9200
  7  -3216.8769658710  -0.044791113114 0.06064980  0.00021014  0.1564393 0.9200
  8  -3216.9284158111  -0.051449940099 0.07468740  0.00019797  0.1438372 0.9200
  9  -3216.9700557617  -0.041639950578 0.05781019  0.00015919  0.1321482 0.9200
 10  -3217.0131185663  -0.043062804601 0.03427912  0.00014901  0.1213403 0.9200
 11  -3217.0474809218  -0.034362355548 0.04614417  0.00013675  0.1114837 0.9200
 12  -3217.0808092717  -0.033328349906 0.05055734  0.00013919  0.1025589 0.9200
 13  -3217.1154183652  -0.034609093474 0.05392444  0.00013833  0.0943166 0.9200
 14  -3217.1452741489  -0.029855783670 0.04664986  0.00011549  0.0867355 0.9200
 15  -3217.1735252517  -0.028251102827 0.03158724  0.00010668  0.0797337 0.9200
 16  -3217.1990333167  -0.025508065043 0.03540666  0.00010131  0.0732323 0.9200
 17  -3217.2223485622  -0.023315245427 0.03906835  0.00009876  0.0673334 0.9200
 18  -3217.2450501415  -0.022701579351 0.03835419  0.00009722  0.0619237 0.9200
 19  -3217.2655553089  -0.020505167407 0.02979899  0.00008089  0.0569563 0.9200
               *** Restarting incremental Fock matrix formation ***
                                   *** Resetting DIIS ***
 20  -3217.2845819873  -0.019026678379 0.02564188  0.00007456  0.0523886 0.9200
 21  -3217.3023277587  -0.017745771408 0.02325248  0.00006880  0.0480663 0.9200
 22  -3217.3187418010  -0.016414042302 0.02293136  0.00006467  0.0441173 0.9200
 23  -3217.3338239542  -0.015082153143 0.02308034  0.00006152  0.0405487 0.9200
 24  -3217.3476611628  -0.013837208588 0.02221854  0.00005805  0.0373029 0.9200
 25  -3217.3604005844  -0.012739421635 0.02050639  0.00005423  0.0343233 0.9200
 26  -3217.3721759398  -0.011775355436 0.01857395  0.00005041  0.0315620 0.9200
 27  -3217.3830502543  -0.010874314512 0.01730214  0.00004706  0.0290139 0.9200
 28  -3217.3930637120  -0.010013457619 0.01638317  0.00004396  0.0266770 0.9200
 29  -3217.4022755592  -0.009211847278 0.01526236  0.00004085  0.0245363 0.9200
 30  -3217.4107596171  -0.008484057892 0.01405961  0.00003789  0.0225692 0.9200
 31  -3217.4185853725  -0.007825755371 0.01311728  0.00003531  0.0207560 0.9200
 32  -3217.4258004573  -0.007215084777 0.01252244  0.00003302  0.0190851 0.9200
 33  -3217.4324451981  -0.006644740777 0.01193818  0.00003080  0.0175495 0.9200
 34  -3217.4385624556  -0.006117257590 0.01113736  0.00002853  0.0161399 0.9200
 35  -3217.4441973583  -0.005634902707 0.01030696  0.00002642  0.0148444 0.9200
 36  -3217.4493905380  -0.005193179610 0.00968954  0.00002460  0.0136519 0.9200
 37  -3217.4541745966  -0.004784058620 0.00921155  0.00002294  0.0125540 0.9200
 38  -3217.4585796579  -0.004405061309 0.00865799  0.00002130  0.0115446 0.9200
 39  -3217.4626352764  -0.004055618541 0.00522643  0.00001938  0.0106171 0.9200
               *** Restarting incremental Fock matrix formation ***
                                   *** Resetting DIIS ***
 40  -3217.4663711488  -0.003735872343 0.00515625  0.00001728  0.0097646 0.9200
 41  -3217.4698148359  -0.003443687164 0.00502311  0.00001579  0.0089635 0.9200
 42  -3217.4729844533  -0.003169617364 0.00505398  0.00001467  0.0082314 0.9200
 43  -3217.4759009057  -0.002916452359 0.00493881  0.00001369  0.0075669 0.9200
 44  -3217.4785850082  -0.002684102545 0.00467702  0.00001276  0.0069606 0.9200
 45  -3217.4810565146  -0.002471506432 0.00430360  0.00001185  0.0064035 0.9200
 46  -3217.4833325704  -0.002276055721 0.00396022  0.00001099  0.0058883 0.9200
 47  -3217.4854277194  -0.002095149014 0.00356230  0.00001014  0.0054140 0.9200
 48  -3217.4873560016  -0.001928282211 0.00311459  0.00000932  0.0049790 0.9200
 49  -3217.4891309697  -0.001774968105 0.00269337  0.00000859  0.0045798 0.9200
 50  -3217.4907651656  -0.001634195955 0.00241727  0.00000796  0.0042124 0.9200
 51  -3217.4922695437  -0.001504378087 0.00225278  0.00000738  0.0038738 0.9200
 52  -3217.4936541901  -0.001384646333 0.00206616  0.00000681  0.0035623 0.9200
 53  -3217.4949285651  -0.001274375067 0.00183599  0.00000626  0.0032762 0.9200
 54  -3217.4961015538  -0.001172988648 0.00160984  0.00000575  0.0030133 0.9200
 55  -3217.4971813179  -0.001079764146 0.01774637  0.00006612  0.0027714 0.0000
 56  -3217.5096314241  -0.012450106169 0.00403213  0.00000909  0.0003501 0.0000
 57  -3217.5096254496   0.000005974485 0.00091618  0.00000306  0.0009647 0.0000
 58  -3217.5096317723  -0.000006322742 0.00044534  0.00000168  0.0004326 0.0000
 59  -3217.5096337069  -0.000001934547 0.01664387  0.00002161  0.0001645 0.0000
               *** Restarting incremental Fock matrix formation ***
                                   *** Resetting DIIS ***
 60  -3217.5096332941   0.000000412822 0.00148264  0.00000289  0.0000733 0.0000
 61  -3217.5096335584  -0.000000264354 0.00064311  0.00000117  0.0001785 0.0000
                 **** Energy Check signals convergence ****

               *****************************************************
               *                     SUCCESS                       *
               *           SCF CONVERGED AFTER  62 CYCLES          *
               *****************************************************


----------------
TOTAL SCF ENERGY
----------------

Total Energy       :        -3217.50963366 Eh          -87552.88823 eV

Components:
Nuclear Repulsion  :         6788.65710462 Eh          184728.75124 eV
Electronic Energy  :       -10006.16673828 Eh         -272281.63948 eV
One Electron Energy:       -18819.92932793 Eh         -512116.31250 eV
Two Electron Energy:         8813.76258965 Eh          239834.67302 eV

Virial components:
Potential Energy   :        -4992.72699484 Eh         -135859.00847 eV
Kinetic Energy     :         1775.21736119 Eh           48306.12023 eV
Virial Ratio       :            2.81245954


DFT components:
N(Alpha)           :      166.000052756361 electrons
N(Beta)            :      162.000037813265 electrons
N(Total)           :      328.000090569626 electrons
E(X)               :     -240.301015696830 Eh       
E(C)               :      -14.290635615616 Eh       
E(XC)              :     -254.591651312447 Eh       
DFET-embed. en.    :        0.000000000000 Eh       

---------------
SCF CONVERGENCE
---------------

  Last Energy change         ...   -9.8848e-08  Tolerance :   1.0000e-06
  Last MAX-Density change    ...    7.8797e-04  Tolerance :   1.0000e-05
  Last RMS-Density change    ...    1.2133e-06  Tolerance :   1.0000e-06
  Last DIIS Error            ...    1.0681e-04  Tolerance :   1.0000e-06

             **** THE GBW FILE WAS UPDATED (pbeSP.gbw) ****
             **** DENSITY pbeSP.scfp WAS UPDATED ****
             **** ENERGY FILE WAS UPDATED (pbeSP.en.tmp) ****
----------------------
UHF SPIN CONTAMINATION
----------------------

Warning: in a DFT calculation there is little theoretical justification to 
         calculate <S**2> as in Hartree-Fock theory. We will do it anyways
         but you should keep in mind that the values have only limited relevance

Expectation value of <S**2>     :     6.188824
Ideal value S*(S+1) for S=2.0   :     6.000000
Deviation                       :     0.188824

             **** THE GBW FILE WAS UPDATED (pbeSP.gbw) ****
             **** DENSITY pbeSP.scfp WAS UPDATED ****
----------------
ORBITAL ENERGIES
----------------
                 SPIN UP ORBITALS
  NO   OCC          E(Eh)            E(eV) 
   0   1.0000    -214.485367     -5836.4436 
   1   1.0000     -24.283475      -660.7870 
   2   1.0000     -20.648348      -561.8701 
   3   1.0000     -20.648300      -561.8688 
   4   1.0000     -20.642638      -561.7147 
   5   1.0000      -4.036506      -109.8389 
   6   1.0000      -4.036051      -109.8265 
   7   1.0000      -4.032564      -109.7317 
   8   1.0000      -4.032343      -109.7256 
   9   1.0000      -4.029559      -109.6499 
  10   1.0000      -4.029183      -109.6396 
  11   1.0000      -4.028841      -109.6303 
  12   1.0000      -4.027548      -109.5951 
  13   1.0000      -4.027442      -109.5923 
  14   1.0000      -4.024914      -109.5235 
  15   1.0000      -4.023803      -109.4933 
  16   1.0000      -4.023777      -109.4925 
  17   1.0000      -4.021156      -109.4212 
  18   1.0000      -4.019547      -109.3774 
  19   1.0000      -4.015259      -109.2608 
  20   1.0000      -4.015143      -109.2576 
  21   1.0000      -2.794003       -76.0287 
  22   1.0000      -2.254527       -61.3488 
  23   1.0000      -2.254172       -61.3391 
  24   1.0000      -2.248789       -61.1927 
  25   1.0000      -2.248484       -61.1843 
  26   1.0000      -2.248126       -61.1746 
  27   1.0000      -2.246612       -61.1334 
  28   1.0000      -2.246574       -61.1324 
  29   1.0000      -2.246209       -61.1225 
  30   1.0000      -2.246089       -61.1192 
  31   1.0000      -2.245932       -61.1149 
  32   1.0000      -2.245604       -61.1060 
  33   1.0000      -2.245467       -61.1023 
  34   1.0000      -2.245126       -61.0930 
  35   1.0000      -2.244599       -61.0786 
  36   1.0000      -2.244350       -61.0719 
  37   1.0000      -2.244273       -61.0698 
  38   1.0000      -2.242730       -61.0278 
  39   1.0000      -2.242500       -61.0215 
  40   1.0000      -2.241930       -61.0060 
  41   1.0000      -2.241345       -60.9901 
  42   1.0000      -2.240964       -60.9797 
  43   1.0000      -2.240734       -60.9735 
  44   1.0000      -2.239574       -60.9419 
  45   1.0000      -2.239453       -60.9386 
  46   1.0000      -2.239110       -60.9293 
  47   1.0000      -2.239074       -60.9283 
  48   1.0000      -2.238838       -60.9219 
  49   1.0000      -2.238286       -60.9069 
  50   1.0000      -2.237682       -60.8904 
  51   1.0000      -2.236764       -60.8654 
  52   1.0000      -2.236435       -60.8565 
  53   1.0000      -2.236265       -60.8519 
  54   1.0000      -2.235913       -60.8423 
  55   1.0000      -2.235567       -60.8329 
  56   1.0000      -2.234960       -60.8164 
  57   1.0000      -2.234026       -60.7909 
  58   1.0000      -2.233510       -60.7769 
  59   1.0000      -2.233486       -60.7762 
  60   1.0000      -2.233153       -60.7672 
  61   1.0000      -2.230756       -60.7020 
  62   1.0000      -2.230623       -60.6983 
  63   1.0000      -2.230509       -60.6952 
  64   1.0000      -2.229853       -60.6774 
  65   1.0000      -2.229596       -60.6704 
  66   1.0000      -2.228191       -60.6322 
  67   1.0000      -2.228096       -60.6296 
  68   1.0000      -2.225184       -60.5503 
  69   1.0000      -2.224999       -60.5453 
  70   1.0000      -1.786717       -48.6190 
  71   1.0000      -1.786549       -48.6145 
  72   1.0000      -1.778905       -48.4065 
  73   1.0000      -0.423753       -11.5309 
  74   1.0000      -0.394998       -10.7484 
  75   1.0000      -0.394015       -10.7217 
  76   1.0000      -0.383970       -10.4484 
  77   1.0000      -0.380254       -10.3472 
  78   1.0000      -0.369121       -10.0443 
  79   1.0000      -0.368809       -10.0358 
  80   1.0000      -0.363697        -9.8967 
  81   1.0000      -0.362984        -9.8773 
  82   1.0000      -0.360999        -9.8233 
  83   1.0000      -0.357587        -9.7304 
  84   1.0000      -0.356265        -9.6945 
  85   1.0000      -0.353993        -9.6326 
  86   1.0000      -0.352413        -9.5897 
  87   1.0000      -0.349776        -9.5179 
  88   1.0000      -0.347667        -9.4605 
  89   1.0000      -0.347420        -9.4538 
  90   1.0000      -0.345967        -9.4142 
  91   1.0000      -0.345487        -9.4012 
  92   1.0000      -0.340415        -9.2632 
  93   1.0000      -0.338989        -9.2243 
  94   1.0000      -0.338754        -9.2180 
  95   1.0000      -0.337984        -9.1970 
  96   1.0000      -0.333608        -9.0779 
  97   1.0000      -0.333439        -9.0733 
  98   1.0000      -0.330211        -8.9855 
  99   1.0000      -0.328448        -8.9375 
 100   1.0000      -0.327312        -8.9066 
 101   1.0000      -0.326011        -8.8712 
 102   1.0000      -0.324825        -8.8389 
 103   1.0000      -0.323389        -8.7999 
 104   1.0000      -0.321794        -8.7565 
 105   1.0000      -0.319914        -8.7053 
 106   1.0000      -0.314084        -8.5467 
 107   1.0000      -0.311605        -8.4792 
 108   1.0000      -0.310026        -8.4362 
 109   1.0000      -0.308154        -8.3853 
 110   1.0000      -0.305295        -8.3075 
 111   1.0000      -0.303655        -8.2629 
 112   1.0000      -0.299220        -8.1422 
 113   1.0000      -0.298977        -8.1356 
 114   1.0000      -0.295010        -8.0276 
 115   1.0000      -0.292252        -7.9526 
 116   1.0000      -0.289967        -7.8904 
 117   1.0000      -0.287050        -7.8110 
 118   1.0000      -0.285191        -7.7604 
 119   1.0000      -0.282305        -7.6819 
 120   1.0000      -0.281554        -7.6615 
 121   1.0000      -0.279766        -7.6128 
 122   1.0000      -0.278459        -7.5773 
 123   1.0000      -0.277901        -7.5621 
 124   1.0000      -0.277519        -7.5517 
 125   1.0000      -0.275910        -7.5079 
 126   1.0000      -0.275462        -7.4957 
 127   1.0000      -0.274106        -7.4588 
 128   1.0000      -0.273213        -7.4345 
 129   1.0000      -0.272393        -7.4122 
 130   1.0000      -0.270412        -7.3583 
 131   1.0000      -0.270130        -7.3506 
 132   1.0000      -0.268143        -7.2965 
 133   1.0000      -0.267638        -7.2828 
 134   1.0000      -0.266050        -7.2396 
 135   1.0000      -0.265201        -7.2165 
 136   1.0000      -0.264833        -7.2065 
 137   1.0000      -0.264017        -7.1843 
 138   1.0000      -0.261533        -7.1167 
 139   1.0000      -0.261030        -7.1030 
 140   1.0000      -0.258344        -7.0299 
 141   1.0000      -0.257351        -7.0029 
 142   1.0000      -0.256105        -6.9690 
 143   1.0000      -0.254138        -6.9155 
 144   1.0000      -0.254112        -6.9147 
 145   1.0000      -0.252689        -6.8760 
 146   1.0000      -0.252020        -6.8578 
 147   1.0000      -0.249960        -6.8018 
 148   1.0000      -0.249488        -6.7889 
 149   1.0000      -0.247074        -6.7232 
 150   1.0000      -0.245203        -6.6723 
 151   1.0000      -0.244153        -6.6438 
 152   1.0000      -0.241816        -6.5801 
 153   1.0000      -0.241513        -6.5719 
 154   1.0000      -0.239512        -6.5174 
 155   1.0000      -0.235913        -6.4195 
 156   1.0000      -0.227487        -6.1902 
 157   1.0000      -0.225508        -6.1364 
 158   1.0000      -0.224143        -6.0992 
 159   1.0000      -0.219066        -5.9611 
 160   1.0000      -0.216736        -5.8977 
 161   1.0000      -0.216346        -5.8871 
 162   1.0000      -0.208469        -5.6727 
 163   1.0000      -0.200587        -5.4583 
 164   1.0000      -0.196106        -5.3363 
 165   1.0000      -0.189320        -5.1517 
 166   0.0000      -0.179599        -4.8871 
 167   0.0000      -0.149794        -4.0761 
 168   0.0000      -0.140465        -3.8222 
 169   0.0000      -0.138534        -3.7697 
 170   0.0000      -0.133823        -3.6415 
 171   0.0000      -0.132101        -3.5946 
 172   0.0000      -0.119402        -3.2491 
 173   0.0000      -0.110699        -3.0123 
 174   0.0000      -0.105922        -2.8823 
 175   0.0000      -0.078835        -2.1452 
 176   0.0000      -0.066143        -1.7998 
 177   0.0000      -0.064055        -1.7430 
 178   0.0000      -0.054492        -1.4828 
 179   0.0000      -0.046007        -1.2519 
 180   0.0000      -0.040661        -1.1064 
 181   0.0000      -0.036493        -0.9930 
 182   0.0000      -0.033526        -0.9123 
 183   0.0000      -0.022598        -0.6149 
 184   0.0000      -0.021268        -0.5787 
 185   0.0000      -0.013504        -0.3675 
 186   0.0000      -0.009126        -0.2483 
 187   0.0000      -0.008162        -0.2221 
 188   0.0000       0.008918         0.2427 
 189   0.0000       0.018633         0.5070 
 190   0.0000       0.021108         0.5744 
 191   0.0000       0.030601         0.8327 
 192   0.0000       0.031403         0.8545 
 193   0.0000       0.037237         1.0133 
 194   0.0000       0.041348         1.1251 
 195   0.0000       0.054601         1.4858 
 196   0.0000       0.058263         1.5854 
 197   0.0000       0.058449         1.5905 
 198   0.0000       0.061053         1.6613 
 199   0.0000       0.061704         1.6791 
 200   0.0000       0.064400         1.7524 
 201   0.0000       0.069578         1.8933 
 202   0.0000       0.071883         1.9560 
 203   0.0000       0.073688         2.0052 
 204   0.0000       0.076555         2.0832 
 205   0.0000       0.078642         2.1399 
 206   0.0000       0.082222         2.2374 
 207   0.0000       0.088109         2.3976 
 208   0.0000       0.090351         2.4586 
 209   0.0000       0.096093         2.6148 
 210   0.0000       0.098233         2.6731 
 211   0.0000       0.105039         2.8583 
 212   0.0000       0.111156         3.0247 
 213   0.0000       0.114047         3.1034 
 214   0.0000       0.119428         3.2498 
 215   0.0000       0.123066         3.3488 
 216   0.0000       0.126246         3.4353 
 217   0.0000       0.131443         3.5767 
 218   0.0000       0.134717         3.6658 
 219   0.0000       0.134999         3.6735 
 220   0.0000       0.140666         3.8277 
 221   0.0000       0.144747         3.9388 
 222   0.0000       0.147041         4.0012 
 223   0.0000       0.152832         4.1588 
 224   0.0000       0.158154         4.3036 
 225   0.0000       0.159002         4.3267 
 226   0.0000       0.163723         4.4551 
 227   0.0000       0.165358         4.4996 
 228   0.0000       0.169644         4.6163 
 229   0.0000       0.174850         4.7579 
 230   0.0000       0.180793         4.9196 
 231   0.0000       0.190634         5.1874 
 232   0.0000       0.198752         5.4083 
 233   0.0000       0.201843         5.4924 
 234   0.0000       0.206505         5.6193 
 235   0.0000       0.207816         5.6550 
 236   0.0000       0.210571         5.7299 
 237   0.0000       0.213857         5.8193 
 238   0.0000       0.215019         5.8510 
 239   0.0000       0.222149         6.0450 
 240   0.0000       0.225300         6.1307 
 241   0.0000       0.228436         6.2161 
 242   0.0000       0.232839         6.3359 
 243   0.0000       0.236515         6.4359 
 244   0.0000       0.245172         6.6715 
 245   0.0000       0.248916         6.7734 
 246   0.0000       0.252634         6.8745 
 247   0.0000       0.256296         6.9742 
 248   0.0000       0.262339         7.1386 
 249   0.0000       0.263703         7.1757 
 250   0.0000       0.267238         7.2719 
 251   0.0000       0.271391         7.3849 
 252   0.0000       0.272882         7.4255 
 253   0.0000       0.278900         7.5892 
 254   0.0000       0.280858         7.6425 
 255   0.0000       0.286064         7.7842 
 256   0.0000       0.290187         7.8964 
 257   0.0000       0.295793         8.0489 
 258   0.0000       0.302402         8.2288 
 259   0.0000       0.306607         8.3432 
 260   0.0000       0.308478         8.3941 
 261   0.0000       0.311318         8.4714 
 262   0.0000       0.316877         8.6227 
 263   0.0000       0.324889         8.8407 
 264   0.0000       0.326242         8.8775 
 265   0.0000       0.328900         8.9498 
 266   0.0000       0.332429         9.0458 
 267   0.0000       0.332883         9.0582 
 268   0.0000       0.338393         9.2081 
 269   0.0000       0.339204         9.2302 
 270   0.0000       0.346762         9.4359 
 271   0.0000       0.355812         9.6821 
 272   0.0000       0.360327         9.8050 
 273   0.0000       0.363347         9.8872 
 274   0.0000       0.364053         9.9064 
 275   0.0000       0.370086        10.0706 
 276   0.0000       0.373591        10.1659 
 277   0.0000       0.376564        10.2468 
 278   0.0000       0.378828        10.3084 
 279   0.0000       0.381512        10.3815 
 280   0.0000       0.383207        10.4276 
 281   0.0000       0.386761        10.5243 
 282   0.0000       0.391275        10.6471 
 283   0.0000       0.396806        10.7977 
 284   0.0000       0.399583        10.8732 
 285   0.0000       0.400314        10.8931 
 286   0.0000       0.406208        11.0535 
 287   0.0000       0.410712        11.1760 
 288   0.0000       0.410899        11.1811 
 289   0.0000       0.419406        11.4126 
 290   0.0000       0.421970        11.4824 
 291   0.0000       0.428824        11.6689 
 292   0.0000       0.433807        11.8045 
 293   0.0000       0.435299        11.8451 
 294   0.0000       0.439114        11.9489 
 295   0.0000       0.441208        12.0059 
 296   0.0000       0.451252        12.2792 
 297   0.0000       0.452580        12.3153 
 298   0.0000       0.458894        12.4871 
 299   0.0000       0.461441        12.5565 
 300   0.0000       0.464084        12.6284 
 301   0.0000       0.470262        12.7965 
 302   0.0000       0.474847        12.9212 
 303   0.0000       0.477188        12.9850 
 304   0.0000       0.480902        13.0860 
 305   0.0000       0.481337        13.0979 
 306   0.0000       0.484937        13.1958 
 307   0.0000       0.486609        13.2413 
 308   0.0000       0.492722        13.4076 
 309   0.0000       0.493364        13.4251 
 310   0.0000       0.495677        13.4880 
 311   0.0000       0.509270        13.8579 
 312   0.0000       0.511843        13.9280 
 313   0.0000       0.513345        13.9688 
 314   0.0000       0.515804        14.0357 
 315   0.0000       0.516725        14.0608 
 316   0.0000       0.521730        14.1970 
 317   0.0000       0.522723        14.2240 
 318   0.0000       0.531383        14.4597 
 319   0.0000       0.532278        14.4840 
 320   0.0000       0.535676        14.5765 
 321   0.0000       0.543990        14.8027 
 322   0.0000       0.545217        14.8361 
 323   0.0000       0.547083        14.8869 
 324   0.0000       0.554914        15.1000 
 325   0.0000       0.558203        15.1895 
 326   0.0000       0.572657        15.5828 
 327   0.0000       0.576764        15.6945 
 328   0.0000       0.582968        15.8634 
 329   0.0000       0.586423        15.9574 
 330   0.0000       0.590595        16.0709 
 331   0.0000       0.593531        16.1508 
 332   0.0000       0.626843        17.0573 
 333   0.0000       0.646817        17.6008 
 334   0.0000       0.657152        17.8820 
 335   0.0000       0.660819        17.9818 
 336   0.0000       0.678648        18.4670 
 337   0.0000       0.694189        18.8898 
 338   0.0000       0.701267        19.0825 
 339   0.0000       0.707597        19.2547 
 340   0.0000       0.717971        19.5370 
 341   0.0000       0.727086        19.7850 
 342   0.0000       0.729730        19.8570 
 343   0.0000       0.733958        19.9720 
 344   0.0000       0.746609        20.3163 
 345   0.0000       0.751287        20.4435 
 346   0.0000       0.758685        20.6449 
 347   0.0000       0.763758        20.7829 
 348   0.0000       0.773437        21.0463 
 349   0.0000       0.776539        21.1307 
 350   0.0000       0.779752        21.2181 
 351   0.0000       0.800849        21.7922 
 352   0.0000       0.801297        21.8044 
 353   0.0000       0.829008        22.5584 
 354   0.0000       0.846278        23.0284 
 355   0.0000       0.854702        23.2576 
 356   0.0000       0.859288        23.3824 
 357   0.0000       0.869004        23.6468 
 358   0.0000       0.873406        23.7666 
 359   0.0000       0.876265        23.8444 
 360   0.0000       0.885721        24.1017 
 361   0.0000       0.899748        24.4834 
 362   0.0000       0.910217        24.7683 
 363   0.0000       0.919865        25.0308 
 364   0.0000       0.921752        25.0821 
 365   0.0000       0.929545        25.2942 
 366   0.0000       0.937451        25.5094 
 367   0.0000       0.952074        25.9072 
 368   0.0000       0.956018        26.0146 
 369   0.0000       0.965248        26.2657 
 370   0.0000       0.975417        26.5424 
 371   0.0000       0.977353        26.5951 
 372   0.0000       0.993312        27.0294 
 373   0.0000       0.995603        27.0917 
 374   0.0000       1.011623        27.5277 
 375   0.0000       1.029019        28.0010 
 376   0.0000       1.051789        28.6206 
 377   0.0000       1.060155        28.8483 
 378   0.0000       1.095244        29.8031 
 379   0.0000       1.125150        30.6169 
 380   0.0000       1.156381        31.4667 
 381   0.0000       1.190974        32.4081 
 382   0.0000       1.196742        32.5650 
 383   0.0000       1.221487        33.2384 
 384   0.0000       1.225024        33.3346 
 385   0.0000       1.240640        33.7595 
 386   0.0000       1.252433        34.0804 
 387   0.0000       1.254220        34.1291 
 388   0.0000       1.272694        34.6318 
 389   0.0000       1.275693        34.7134 
 390   0.0000       1.283927        34.9374 
 391   0.0000       1.295378        35.2490 
 392   0.0000       1.297945        35.3189 
 393   0.0000       1.305543        35.5256 
 394   0.0000       1.312733        35.7213 
 395   0.0000       1.313791        35.7501 
 396   0.0000       1.315857        35.8063 
 397   0.0000       1.332823        36.2679 
 398   0.0000       1.337160        36.3860 
 399   0.0000       1.345412        36.6105 
 400   0.0000       1.351265        36.7698 
 401   0.0000       1.356428        36.9103 
 402   0.0000       1.359525        36.9946 
 403   0.0000       1.362186        37.0670 
 404   0.0000       1.369153        37.2565 
 405   0.0000       1.372029        37.3348 
 406   0.0000       1.376143        37.4468 
 407   0.0000       1.380191        37.5569 
 408   0.0000       1.385452        37.7001 
 409   0.0000       1.385692        37.7066 
 410   0.0000       1.394865        37.9562 
 411   0.0000       1.399417        38.0801 
 412   0.0000       1.401639        38.1405 
 413   0.0000       1.405269        38.2393 
 414   0.0000       1.405480        38.2451 
 415   0.0000       1.406960        38.2853 
 416   0.0000       1.408159        38.3180 
 417   0.0000       1.414645        38.4945 
 418   0.0000       1.418069        38.5876 
 419   0.0000       1.424778        38.7702 
 420   0.0000       1.426835        38.8262 
 421   0.0000       1.434120        39.0244 
 422   0.0000       1.436728        39.0954 
 423   0.0000       1.438269        39.1373 
 424   0.0000       1.442236        39.2452 
 425   0.0000       1.445759        39.3411 
 426   0.0000       1.446576        39.3633 
 427   0.0000       1.450997        39.4836 
 428   0.0000       1.451441        39.4957 
 429   0.0000       1.453430        39.5498 
 430   0.0000       1.454963        39.5915 
 431   0.0000       1.456094        39.6223 
 432   0.0000       1.460410        39.7398 
 433   0.0000       1.461459        39.7683 
 434   0.0000       1.465415        39.8760 
 435   0.0000       1.470072        40.0027 
 436   0.0000       1.470295        40.0088 
 437   0.0000       1.473141        40.0862 
 438   0.0000       1.475502        40.1504 
 439   0.0000       1.477562        40.2065 
 440   0.0000       1.478060        40.2200 
 441   0.0000       1.478767        40.2393 
 442   0.0000       1.480917        40.2978 
 443   0.0000       1.482293        40.3353 
 444   0.0000       1.486305        40.4444 
 445   0.0000       1.486592        40.4522 
 446   0.0000       1.489021        40.5183 
 447   0.0000       1.491040        40.5733 
 448   0.0000       1.494255        40.6607 
 449   0.0000       1.496231        40.7145 
 450   0.0000       1.496859        40.7316 
 451   0.0000       1.497656        40.7533 
 452   0.0000       1.498936        40.7881 
 453   0.0000       1.500217        40.8230 
 454   0.0000       1.500923        40.8422 
 455   0.0000       1.501502        40.8579 
 456   0.0000       1.503495        40.9122 
 457   0.0000       1.504605        40.9424 
 458   0.0000       1.505315        40.9617 
 459   0.0000       1.506266        40.9876 
 460   0.0000       1.509143        41.0659 
 461   0.0000       1.510018        41.0897 
 462   0.0000       1.512794        41.1652 
 463   0.0000       1.512854        41.1669 
 464   0.0000       1.513289        41.1787 
 465   0.0000       1.517066        41.2815 
 466   0.0000       1.517554        41.2947 
 467   0.0000       1.517977        41.3062 
 468   0.0000       1.520471        41.3741 
 469   0.0000       1.521526        41.4028 
 470   0.0000       1.522863        41.4392 
 471   0.0000       1.524801        41.4919 
 472   0.0000       1.525003        41.4974 
 473   0.0000       1.528433        41.5908 
 474   0.0000       1.529297        41.6143 
 475   0.0000       1.529523        41.6204 
 476   0.0000       1.529684        41.6248 
 477   0.0000       1.530122        41.6367 
 478   0.0000       1.533572        41.7306 
 479   0.0000       1.534133        41.7459 
 480   0.0000       1.534751        41.7627 
 481   0.0000       1.536687        41.8154 
 482   0.0000       1.537485        41.8371 
 483   0.0000       1.539124        41.8817 
 484   0.0000       1.539876        41.9022 
 485   0.0000       1.540581        41.9213 
 486   0.0000       1.543189        41.9923 
 487   0.0000       1.545208        42.0472 
 488   0.0000       1.547471        42.1088 
 489   0.0000       1.548872        42.1469 
 490   0.0000       1.552876        42.2559 
 491   0.0000       1.556922        42.3660 
 492   0.0000       1.558008        42.3956 
 493   0.0000       1.561165        42.4814 
 494   0.0000       1.565021        42.5864 
 495   0.0000       1.567044        42.6414 
 496   0.0000       1.567790        42.6617 
 497   0.0000       1.570218        42.7278 
 498   0.0000       1.572895        42.8007 
 499   0.0000       1.576878        42.9090 
 500   0.0000       1.577176        42.9172 
 501   0.0000       1.578884        42.9636 
 502   0.0000       1.582497        43.0619 
 503   0.0000       1.586419        43.1686 
 504   0.0000       1.586915        43.1821 
 505   0.0000       1.590071        43.2680 
 506   0.0000       1.590943        43.2918 
 507   0.0000       1.593144        43.3517 
 508   0.0000       1.596062        43.4310 
 509   0.0000       1.599121        43.5143 
 510   0.0000       1.599562        43.5263 
 511   0.0000       1.601364        43.5753 
 512   0.0000       1.601870        43.5891 
 513   0.0000       1.607860        43.7521 
 514   0.0000       1.608535        43.7705 
 515   0.0000       1.614749        43.9396 
 516   0.0000       1.616258        43.9806 
 517   0.0000       1.617364        44.0107 
 518   0.0000       1.619978        44.0818 
 519   0.0000       1.622462        44.1494 
 520   0.0000       1.624456        44.2037 
 521   0.0000       1.626456        44.2581 
 522   0.0000       1.632493        44.4224 
 523   0.0000       1.635040        44.4917 
 524   0.0000       1.636296        44.5259 
 525   0.0000       1.637583        44.5609 
 526   0.0000       1.640667        44.6448 
 527   0.0000       1.652658        44.9711 
 528   0.0000       1.654707        45.0269 
 529   0.0000       1.656094        45.0646 
 530   0.0000       1.664508        45.2936 
 531   0.0000       1.665217        45.3128 
 532   0.0000       1.666609        45.3507 
 533   0.0000       1.669439        45.4277 
 534   0.0000       1.678326        45.6696 
 535   0.0000       1.686440        45.8904 
 536   0.0000       1.688685        45.9515 
 537   0.0000       1.705615        46.4121 
 538   0.0000       1.707886        46.4739 
 539   0.0000       1.713268        46.6204 
 540   0.0000       1.725861        46.9631 
 541   0.0000       1.734357        47.1943 
 542   0.0000       1.741014        47.3754 
 543   0.0000       1.743096        47.4321 
 544   0.0000       1.746704        47.5302 
 545   0.0000       1.752263        47.6815 
 546   0.0000       1.756835        47.8059 
 547   0.0000       1.767287        48.0903 
 548   0.0000       1.769773        48.1580 
 549   0.0000       1.771227        48.1975 
 550   0.0000       1.787655        48.6446 
 551   0.0000       1.789617        48.6980 
 552   0.0000       1.791653        48.7533 
 553   0.0000       1.793851        48.8132 
 554   0.0000       1.796547        48.8865 
 555   0.0000       1.802638        49.0523 
 556   0.0000       1.804701        49.1084 
 557   0.0000       1.811394        49.2905 
 558   0.0000       1.823457        49.6188 
 559   0.0000       1.826290        49.6959 
 560   0.0000       1.840263        50.0761 
 561   0.0000       1.840294        50.0769 
 562   0.0000       1.842805        50.1453 
 563   0.0000       1.857650        50.5492 
 564   0.0000       1.859860        50.6094 
 565   0.0000       1.873018        50.9674 
 566   0.0000       1.887730        51.3677 
 567   0.0000       1.899555        51.6895 
 568   0.0000       1.906190        51.8701 
 569   0.0000       1.917333        52.1733 
 570   0.0000       1.928106        52.4664 
 571   0.0000       1.942076        52.8466 
 572   0.0000       1.977102        53.7997 
 573   0.0000       1.999692        54.4144 
 574   0.0000       2.029081        55.2141 
 575   0.0000       2.142445        58.2989 
 576   0.0000       2.213393        60.2295 
 577   0.0000       2.217983        60.3544 
 578   0.0000       2.290742        62.3343 
 579   0.0000       2.302050        62.6420 
 580   0.0000       2.334060        63.5130 
 581   0.0000       2.360574        64.2345 
 582   0.0000       2.382020        64.8181 
 583   0.0000       2.405817        65.4656 
 584   0.0000       2.416658        65.7606 
 585   0.0000       2.428141        66.0731 
 586   0.0000       2.442377        66.4604 
 587   0.0000       2.454965        66.8030 
 588   0.0000       2.483765        67.5867 
 589   0.0000       2.499291        68.0092 
 590   0.0000       2.520499        68.5863 
 591   0.0000       2.537788        69.0567 
 592   0.0000       2.552504        69.4572 
 593   0.0000       2.555224        69.5312 
 594   0.0000       2.572616        70.0044 
 595   0.0000       2.589091        70.4528 
 596   0.0000       2.604876        70.8823 
 597   0.0000       2.838039        77.2270 
 598   0.0000       2.841046        77.3088 
 599   0.0000       2.848392        77.5087 
 600   0.0000       2.849318        77.5339 
 601   0.0000       2.857049        77.7442 
 602   0.0000       2.863221        77.9122 
 603   0.0000       2.877936        78.3126 
 604   0.0000       2.891565        78.6835 
 605   0.0000      23.840074       648.7214 
 606   0.0000      23.915018       650.7607 
 607   0.0000      24.099409       655.7782 
 608   0.0000      24.241139       659.6349 
 609   0.0000      24.496104       666.5729 
 610   0.0000      24.561865       668.3623 
 611   0.0000      24.688675       671.8130 
 612   0.0000      24.776670       674.2075 
 613   0.0000      24.922049       678.1634 
 614   0.0000      25.060397       681.9281 
 615   0.0000      25.185492       685.3321 
 616   0.0000      25.238423       686.7724 
 617   0.0000      25.363733       690.1823 
 618   0.0000      25.367708       690.2904 
 619   0.0000      25.482755       693.4210 
 620   0.0000      25.518547       694.3950 
 621   0.0000      25.592297       696.4018 
 622   0.0000      25.640927       697.7251 
 623   0.0000      25.783504       701.6048 
 624   0.0000      25.941034       705.8914 
 625   0.0000      26.037856       708.5261 
 626   0.0000      26.227647       713.6905 
 627   0.0000      26.254104       714.4105 
 628   0.0000      26.301837       715.7094 
 629   0.0000      26.328813       716.4434 
 630   0.0000      26.474715       720.4136 
 631   0.0000      26.556092       722.6280 
 632   0.0000      26.624826       724.4984 
 633   0.0000      26.684417       726.1199 
 634   0.0000      26.748671       727.8683 
 635   0.0000      26.817054       729.7291 
 636   0.0000      27.012543       735.0487 
 637   0.0000      27.061901       736.3918 
 638   0.0000      27.130897       738.2692 
 639   0.0000      27.202912       740.2289 
 640   0.0000      27.235303       741.1103 
 641   0.0000      27.251463       741.5500 
 642   0.0000      27.393374       745.4116 
 643   0.0000      27.582788       750.5658 
 644   0.0000      27.654599       752.5199 
 645   0.0000      27.717327       754.2268 
 646   0.0000      27.917629       759.6773 
 647   0.0000      28.017139       762.3851 
 648   0.0000      28.217881       767.8476 
 649   0.0000      28.237895       768.3922 
 650   0.0000      28.324350       770.7448 
 651   0.0000      28.369256       771.9667 
 652   0.0000      29.320653       797.8555 
 653   0.0000      43.876308      1193.9350 
 654   0.0000      44.006897      1197.4885 
 655   0.0000      44.036181      1198.2854 
 656   0.0000      44.055269      1198.8048 
 657   0.0000      44.070506      1199.2194 
 658   0.0000      44.114117      1200.4062 
 659   0.0000      44.127237      1200.7632 
 660   0.0000      44.141689      1201.1564 
 661   0.0000      44.183339      1202.2898 
 662   0.0000      44.184404      1202.3188 
 663   0.0000      44.193805      1202.5746 
 664   0.0000      44.201459      1202.7829 
 665   0.0000      44.213288      1203.1047 
 666   0.0000      44.239762      1203.8251 
 667   0.0000      44.274317      1204.7654 
 668   0.0000      44.288528      1205.1521 
 669   0.0000     205.080367      5580.5205 
 670   0.0000     205.131768      5581.9192 
 671   0.0000     205.143097      5582.2275 
 672   0.0000     205.150952      5582.4412 
 673   0.0000     205.160203      5582.6929 
 674   0.0000     205.177897      5583.1744 
 675   0.0000     205.181557      5583.2740 
 676   0.0000     205.188352      5583.4589 
 677   0.0000     205.206006      5583.9393 
 678   0.0000     205.208983      5584.0203 
 679   0.0000     205.216025      5584.2119 
 680   0.0000     205.217602      5584.2548 
 681   0.0000     205.223830      5584.4243 
 682   0.0000     205.229428      5584.5766 
 683   0.0000     205.243180      5584.9509 
 684   0.0000     205.247717      5585.0743 

                 SPIN DOWN ORBITALS
  NO   OCC          E(Eh)            E(eV) 
   0   1.0000    -214.484929     -5836.4316 
   1   1.0000     -24.233551      -659.4284 
   2   1.0000     -20.612293      -560.8890 
   3   1.0000     -20.612194      -560.8863 
   4   1.0000     -20.600403      -560.5655 
   5   1.0000      -4.035839      -109.8208 
   6   1.0000      -4.035381      -109.8083 
   7   1.0000      -4.032159      -109.7206 
   8   1.0000      -4.031927      -109.7143 
   9   1.0000      -4.029102      -109.6375 
  10   1.0000      -4.028425      -109.6190 
  11   1.0000      -4.028365      -109.6174 
  12   1.0000      -4.027454      -109.5926 
  13   1.0000      -4.027346      -109.5897 
  14   1.0000      -4.024709      -109.5179 
  15   1.0000      -4.023066      -109.4732 
  16   1.0000      -4.023059      -109.4730 
  17   1.0000      -4.021107      -109.4199 
  18   1.0000      -4.019390      -109.3732 
  19   1.0000      -4.015211      -109.2594 
  20   1.0000      -4.015092      -109.2562 
  21   1.0000      -2.658625       -72.3449 
  22   1.0000      -2.253846       -61.3303 
  23   1.0000      -2.253492       -61.3206 
  24   1.0000      -2.248286       -61.1790 
  25   1.0000      -2.248044       -61.1724 
  26   1.0000      -2.247665       -61.1621 
  27   1.0000      -2.246078       -61.1189 
  28   1.0000      -2.245967       -61.1159 
  29   1.0000      -2.245774       -61.1106 
  30   1.0000      -2.245511       -61.1035 
  31   1.0000      -2.245263       -61.0967 
  32   1.0000      -2.244971       -61.0888 
  33   1.0000      -2.244691       -61.0812 
  34   1.0000      -2.244552       -61.0774 
  35   1.0000      -2.244298       -61.0704 
  36   1.0000      -2.243938       -61.0607 
  37   1.0000      -2.243808       -61.0571 
  38   1.0000      -2.242327       -61.0168 
  39   1.0000      -2.242057       -61.0095 
  40   1.0000      -2.241504       -60.9944 
  41   1.0000      -2.241090       -60.9832 
  42   1.0000      -2.240609       -60.9701 
  43   1.0000      -2.239986       -60.9531 
  44   1.0000      -2.239244       -60.9329 
  45   1.0000      -2.238829       -60.9216 
  46   1.0000      -2.238786       -60.9205 
  47   1.0000      -2.238306       -60.9074 
  48   1.0000      -2.238031       -60.8999 
  49   1.0000      -2.237898       -60.8963 
  50   1.0000      -2.237313       -60.8804 
  51   1.0000      -2.236375       -60.8549 
  52   1.0000      -2.235921       -60.8425 
  53   1.0000      -2.235774       -60.8385 
  54   1.0000      -2.235735       -60.8374 
  55   1.0000      -2.235452       -60.8297 
  56   1.0000      -2.234898       -60.8147 
  57   1.0000      -2.233971       -60.7894 
  58   1.0000      -2.233019       -60.7635 
  59   1.0000      -2.232679       -60.7543 
  60   1.0000      -2.232665       -60.7539 
  61   1.0000      -2.230686       -60.7001 
  62   1.0000      -2.230553       -60.6964 
  63   1.0000      -2.230354       -60.6910 
  64   1.0000      -2.229753       -60.6747 
  65   1.0000      -2.229547       -60.6691 
  66   1.0000      -2.228137       -60.6307 
  67   1.0000      -2.228040       -60.6281 
  68   1.0000      -2.225127       -60.5488 
  69   1.0000      -2.224936       -60.5436 
  70   1.0000      -1.659996       -45.1708 
  71   1.0000      -1.659778       -45.1648 
  72   1.0000      -1.631695       -44.4007 
  73   1.0000      -0.419510       -11.4155 
  74   1.0000      -0.392970       -10.6933 
  75   1.0000      -0.391593       -10.6558 
  76   1.0000      -0.382976       -10.4213 
  77   1.0000      -0.377803       -10.2806 
  78   1.0000      -0.367562       -10.0019 
  79   1.0000      -0.367217        -9.9925 
  80   1.0000      -0.363208        -9.8834 
  81   1.0000      -0.361511        -9.8372 
  82   1.0000      -0.359680        -9.7874 
  83   1.0000      -0.356160        -9.6916 
  84   1.0000      -0.353952        -9.6315 
  85   1.0000      -0.351416        -9.5625 
  86   1.0000      -0.351029        -9.5520 
  87   1.0000      -0.348477        -9.4825 
  88   1.0000      -0.347207        -9.4480 
  89   1.0000      -0.346579        -9.4309 
  90   1.0000      -0.345207        -9.3936 
  91   1.0000      -0.344807        -9.3827 
  92   1.0000      -0.339917        -9.2496 
  93   1.0000      -0.338658        -9.2154 
  94   1.0000      -0.338184        -9.2025 
  95   1.0000      -0.336523        -9.1573 
  96   1.0000      -0.333259        -9.0684 
  97   1.0000      -0.330863        -9.0032 
  98   1.0000      -0.329769        -8.9735 
  99   1.0000      -0.326464        -8.8835 
 100   1.0000      -0.326173        -8.8756 
 101   1.0000      -0.324659        -8.8344 
 102   1.0000      -0.324010        -8.8168 
 103   1.0000      -0.322762        -8.7828 
 104   1.0000      -0.320471        -8.7205 
 105   1.0000      -0.317735        -8.6460 
 106   1.0000      -0.313500        -8.5308 
 107   1.0000      -0.309320        -8.4170 
 108   1.0000      -0.309030        -8.4091 
 109   1.0000      -0.304612        -8.2889 
 110   1.0000      -0.303369        -8.2551 
 111   1.0000      -0.302349        -8.2273 
 112   1.0000      -0.298024        -8.1096 
 113   1.0000      -0.297537        -8.0964 
 114   1.0000      -0.293243        -7.9795 
 115   1.0000      -0.290789        -7.9128 
 116   1.0000      -0.288986        -7.8637 
 117   1.0000      -0.286301        -7.7907 
 118   1.0000      -0.282938        -7.6991 
 119   1.0000      -0.281430        -7.6581 
 120   1.0000      -0.280731        -7.6391 
 121   1.0000      -0.278591        -7.5808 
 122   1.0000      -0.278055        -7.5662 
 123   1.0000      -0.277226        -7.5437 
 124   1.0000      -0.275763        -7.5039 
 125   1.0000      -0.274822        -7.4783 
 126   1.0000      -0.274655        -7.4737 
 127   1.0000      -0.273404        -7.4397 
 128   1.0000      -0.272778        -7.4227 
 129   1.0000      -0.271957        -7.4003 
 130   1.0000      -0.270075        -7.3491 
 131   1.0000      -0.269821        -7.3422 
 132   1.0000      -0.267964        -7.2917 
 133   1.0000      -0.266962        -7.2644 
 134   1.0000      -0.265697        -7.2300 
 135   1.0000      -0.264676        -7.2022 
 136   1.0000      -0.264303        -7.1921 
 137   1.0000      -0.263588        -7.1726 
 138   1.0000      -0.261273        -7.1096 
 139   1.0000      -0.260624        -7.0919 
 140   1.0000      -0.257660        -7.0113 
 141   1.0000      -0.257053        -6.9948 
 142   1.0000      -0.255748        -6.9593 
 143   1.0000      -0.253717        -6.9040 
 144   1.0000      -0.253554        -6.8996 
 145   1.0000      -0.252274        -6.8647 
 146   1.0000      -0.251597        -6.8463 
 147   1.0000      -0.249515        -6.7896 
 148   1.0000      -0.248661        -6.7664 
 149   1.0000      -0.246743        -6.7142 
 150   1.0000      -0.244843        -6.6625 
 151   1.0000      -0.244049        -6.6409 
 152   1.0000      -0.241171        -6.5626 
 153   1.0000      -0.240783        -6.5520 
 154   1.0000      -0.239174        -6.5083 
 155   1.0000      -0.235525        -6.4090 
 156   1.0000      -0.225515        -6.1366 
 157   1.0000      -0.224855        -6.1186 
 158   1.0000      -0.221867        -6.0373 
 159   1.0000      -0.216152        -5.8818 
 160   1.0000      -0.209245        -5.6938 
 161   1.0000      -0.205709        -5.5976 
 162   0.0000      -0.153487        -4.1766 
 163   0.0000      -0.145563        -3.9610 
 164   0.0000      -0.140742        -3.8298 
 165   0.0000      -0.139881        -3.8064 
 166   0.0000      -0.136939        -3.7263 
 167   0.0000      -0.120906        -3.2900 
 168   0.0000      -0.113184        -3.0799 
 169   0.0000      -0.107416        -2.9229 
 170   0.0000      -0.106915        -2.9093 
 171   0.0000      -0.097014        -2.6399 
 172   0.0000      -0.091595        -2.4924 
 173   0.0000      -0.088124        -2.3980 
 174   0.0000      -0.082283        -2.2390 
 175   0.0000      -0.071035        -1.9330 
 176   0.0000      -0.062054        -1.6886 
 177   0.0000      -0.060291        -1.6406 
 178   0.0000      -0.045555        -1.2396 
 179   0.0000      -0.044923        -1.2224 
 180   0.0000      -0.039720        -1.0808 
 181   0.0000      -0.034262        -0.9323 
 182   0.0000      -0.030493        -0.8297 
 183   0.0000      -0.020885        -0.5683 
 184   0.0000      -0.020563        -0.5596 
 185   0.0000      -0.006504        -0.1770 
 186   0.0000      -0.004986        -0.1357 
 187   0.0000      -0.002334        -0.0635 
 188   0.0000       0.012966         0.3528 
 189   0.0000       0.021084         0.5737 
 190   0.0000       0.023440         0.6378 
 191   0.0000       0.033332         0.9070 
 192   0.0000       0.034099         0.9279 
 193   0.0000       0.038723         1.0537 
 194   0.0000       0.044558         1.2125 
 195   0.0000       0.056070         1.5257 
 196   0.0000       0.058825         1.6007 
[...]
      dxz     :     1.979827
      dyz     :     1.975843
      dx2y2   :     1.964480
      dxy     :     1.961039
      f0      :     0.000776  f :     0.004811
      f+1     :     0.000692
      f-1     :     0.000869
      f+2     :     0.000594
      f-2     :     0.000590
      f+3     :     0.000740
      f-3     :     0.000550
 10 Aus       :     2.547860  s :     2.547860
      pz      :     2.165761  p :     6.471847
      px      :     2.221649
      py      :     2.084437
      dz2     :     1.976343  d :     9.930208
      dxz     :     1.979871
      dyz     :     1.998650
      dx2y2   :     1.978745
      dxy     :     1.996599
      f0      :     0.000690  f :     0.005801
      f+1     :     0.000882
      f-1     :     0.000865
      f+2     :     0.000620
      f-2     :     0.001075
      f+3     :     0.000696
      f-3     :     0.000974
 11 Aus       :     2.538370  s :     2.538370
      pz      :     2.212843  p :     6.526242
      px      :     2.131600
      py      :     2.181799
      dz2     :     1.980746  d :     9.894351
      dxz     :     1.979578
      dyz     :     1.969663
      dx2y2   :     1.980507
      dxy     :     1.983856
      f0      :     0.001198  f :     0.006408
      f+1     :     0.000770
      f-1     :     0.000940
      f+2     :     0.001054
      f-2     :     0.000750
      f+3     :     0.000866
      f-3     :     0.000830
 12 Aus       :     2.567069  s :     2.567069
      pz      :     2.107016  p :     6.498258
      px      :     2.246736
      py      :     2.144506
      dz2     :     1.985239  d :     9.857120
      dxz     :     1.980944
      dyz     :     1.955981
      dx2y2   :     1.955590
      dxy     :     1.979366
      f0      :     0.000609  f :     0.006097
      f+1     :     0.000949
      f-1     :     0.000682
      f+2     :     0.001074
      f-2     :     0.000645
      f+3     :     0.001247
      f-3     :     0.000892
 13 Aus       :     2.666492  s :     2.666492
      pz      :     2.126319  p :     6.322179
      px      :     2.125855
      py      :     2.070005
      dz2     :     1.975505  d :     9.842558
      dxz     :     1.967385
      dyz     :     1.961234
      dx2y2   :     1.978611
      dxy     :     1.959822
      f0      :     0.000802  f :     0.004808
      f+1     :     0.000900
      f-1     :     0.000852
      f+2     :     0.000569
      f-2     :     0.000576
      f+3     :     0.000629
      f-3     :     0.000480
 14 Aus       :     2.517228  s :     2.517228
      pz      :     2.245384  p :     6.596390
      px      :     2.168156
      py      :     2.182850
      dz2     :     1.961319  d :     9.867860
      dxz     :     1.978255
      dyz     :     1.987221
      dx2y2   :     1.984612
      dxy     :     1.956452
      f0      :     0.001225  f :     0.007795
      f+1     :     0.001491
      f-1     :     0.001258
      f+2     :     0.000887
      f-2     :     0.000811
      f+3     :     0.001084
      f-3     :     0.001038
 15 Aus       :     2.595510  s :     2.595510
      pz      :     2.152368  p :     6.422214
      px      :     2.094451
      py      :     2.175395
      dz2     :     1.960157  d :     9.853855
      dxz     :     1.980461
      dyz     :     1.981639
      dx2y2   :     1.939578
      dxy     :     1.992019
      f0      :     0.000549  f :     0.005529
      f+1     :     0.000908
      f-1     :     0.000810
      f+2     :     0.000716
      f-2     :     0.000751
      f+3     :     0.001083
      f-3     :     0.000712
 16 Crs       :     6.273870  s :     6.273870
      pz      :     4.161292  p :    12.527305
      px      :     4.181630
      py      :     4.184383
      dz2     :     1.279616  d :     6.049227
      dxz     :     1.136224
      dyz     :     1.149698
      dx2y2   :     1.289634
      dxy     :     1.194056
      f0      :     0.000210  f :     0.001479
      f+1     :     0.000169
      f-1     :     0.000151
      f+2     :     0.000227
      f-2     :     0.000259
      f+3     :     0.000299
      f-3     :     0.000164

SPIN
  0 Aus       :    -0.046604  s :    -0.046604
      pz      :    -0.009820  p :    -0.041983
      px      :    -0.027359
      py      :    -0.004803
      dz2     :     0.001488  d :    -0.009948
      dxz     :     0.001203
      dyz     :    -0.004126
      dx2y2   :    -0.001350
      dxy     :    -0.007162
      f0      :    -0.000000  f :     0.000267
      f+1     :     0.000011
      f-1     :     0.000046
      f+2     :     0.000060
      f-2     :     0.000109
      f+3     :     0.000039
      f-3     :     0.000003
  1 Aus       :    -0.052251  s :    -0.052251
      pz      :    -0.011117  p :    -0.040091
      px      :    -0.007125
      py      :    -0.021849
      dz2     :    -0.000076  d :     0.010297
      dxz     :     0.008059
      dyz     :    -0.002429
      dx2y2   :     0.001637
      dxy     :     0.003107
      f0      :     0.000047  f :     0.000463
      f+1     :     0.000118
      f-1     :    -0.000047
      f+2     :     0.000123
      f-2     :     0.000045
      f+3     :     0.000111
      f-3     :     0.000066
  2 Aus       :    -0.042623  s :    -0.042623
      pz      :    -0.002020  p :    -0.026437
      px      :    -0.018417
      py      :    -0.005999
      dz2     :    -0.001200  d :     0.001370
      dxz     :    -0.001988
      dyz     :    -0.002503
      dx2y2   :     0.004287
      dxy     :     0.002775
      f0      :     0.000026  f :     0.000349
      f+1     :     0.000020
      f-1     :     0.000043
      f+2     :     0.000022
      f-2     :     0.000090
      f+3     :     0.000125
      f-3     :     0.000023
  3 Aus       :    -0.093977  s :    -0.093977
      pz      :    -0.029218  p :    -0.031291
      px      :    -0.000998
      py      :    -0.001074
      dz2     :    -0.005235  d :    -0.017527
      dxz     :    -0.003801
      dyz     :    -0.000609
      dx2y2   :    -0.001287
      dxy     :    -0.006594
      f0      :    -0.000009  f :    -0.000052
      f+1     :    -0.000000
      f-1     :    -0.000007
      f+2     :     0.000004
      f-2     :    -0.000036
      f+3     :    -0.000004
      f-3     :    -0.000001
  4 Aus       :    -0.009055  s :    -0.009055
      pz      :    -0.010266  p :    -0.043593
      px      :    -0.021125
      py      :    -0.012202
      dz2     :    -0.003567  d :    -0.041303
      dxz     :    -0.005649
      dyz     :    -0.017487
      dx2y2   :    -0.012176
      dxy     :    -0.002424
      f0      :    -0.000010  f :    -0.000064
      f+1     :    -0.000009
      f-1     :     0.000003
      f+2     :    -0.000006
      f-2     :    -0.000009
      f+3     :    -0.000033
      f-3     :    -0.000001
  5 Aus       :    -0.009375  s :    -0.009375
      pz      :    -0.011896  p :    -0.043672
      px      :    -0.004622
      py      :    -0.027155
      dz2     :    -0.018199  d :    -0.041267
      dxz     :    -0.013279
      dyz     :    -0.002124
      dx2y2   :    -0.003962
      dxy     :    -0.003703
      f0      :    -0.000007  f :    -0.000065
      f+1     :     0.000002
      f-1     :    -0.000010
      f+2     :    -0.000000
      f-2     :    -0.000002
      f+3     :    -0.000041
      f-3     :    -0.000009
  6 Aus       :    -0.063214  s :    -0.063214
      pz      :     0.001528  p :    -0.021308
      px      :    -0.007869
      py      :    -0.014967
      dz2     :     0.008921  d :     0.014984
      dxz     :     0.004999
      dyz     :     0.003563
      dx2y2   :    -0.000393
      dxy     :    -0.002105
      f0      :     0.000112  f :     0.000240
      f+1     :     0.000110
      f-1     :     0.000025
      f+2     :     0.000005
      f-2     :     0.000004
      f+3     :    -0.000005
      f-3     :    -0.000011
  7 Aus       :    -0.031621  s :    -0.031621
      pz      :    -0.014326  p :    -0.050771
      px      :     0.000163
      py      :    -0.036609
      dz2     :    -0.013631  d :    -0.022565
      dxz     :    -0.003199
      dyz     :    -0.001425
      dx2y2   :    -0.001782
      dxy     :    -0.002528
      f0      :    -0.000011  f :    -0.000069
      f+1     :    -0.000009
      f-1     :    -0.000014
      f+2     :     0.000001
      f-2     :    -0.000006
      f+3     :    -0.000008
      f-3     :    -0.000021
  8 Aus       :    -0.047110  s :    -0.047110
      pz      :    -0.013480  p :    -0.011668
      px      :    -0.003049
      py      :     0.004861
      dz2     :    -0.011334  d :    -0.024313
      dxz     :    -0.004137
      dyz     :    -0.004823
      dx2y2   :    -0.000659
      dxy     :    -0.003359
      f0      :    -0.000027  f :    -0.000108
      f+1     :    -0.000031
      f-1     :    -0.000009
      f+2     :    -0.000004
      f-2     :     0.000001
      f+3     :     0.000001
      f-3     :    -0.000038
  9 Aus       :    -0.049908  s :    -0.049908
      pz      :    -0.021582  p :    -0.029050
      px      :    -0.006620
      py      :    -0.000847
      dz2     :     0.001569  d :     0.006304
      dxz     :    -0.002422
      dyz     :     0.006636
      dx2y2   :    -0.002555
      dxy     :     0.003075
      f0      :     0.000047  f :     0.000295
      f+1     :    -0.000008
      f-1     :     0.000057
      f+2     :     0.000027
      f-2     :     0.000015
      f+3     :     0.000122
      f-3     :     0.000035
 10 Aus       :    -0.028518  s :    -0.028518
      pz      :    -0.015089  p :    -0.051357
      px      :    -0.031460
      py      :    -0.004809
      dz2     :    -0.003910  d :    -0.022791
      dxz     :    -0.005305
      dyz     :    -0.008485
      dx2y2   :    -0.003192
      dxy     :    -0.001899
      f0      :    -0.000016  f :    -0.000069
      f+1     :    -0.000003
      f-1     :    -0.000006
      f+2     :    -0.000004
      f-2     :    -0.000014
      f+3     :    -0.000014
      f-3     :    -0.000012
 11 Aus       :    -0.013588  s :    -0.013588
      pz      :    -0.035859  p :    -0.060601
      px      :    -0.007498
      py      :    -0.017244
      dz2     :    -0.009603  d :    -0.017911
      dxz     :    -0.003951
      dyz     :     0.000255
      dx2y2   :    -0.003399
      dxy     :    -0.001214
      f0      :    -0.000013  f :    -0.000029
      f+1     :    -0.000007
      f-1     :    -0.000011
      f+2     :     0.000005
      f-2     :     0.000003
      f+3     :     0.000008
      f-3     :    -0.000014
 12 Aus       :    -0.052326  s :    -0.052326
      pz      :    -0.006134  p :    -0.039358
      px      :    -0.020536
      py      :    -0.012688
      dz2     :     0.005014  d :     0.010359
      dxz     :    -0.001498
      dyz     :     0.002764
      dx2y2   :     0.003649
      dxy     :     0.000429
      f0      :     0.000038  f :     0.000474
      f+1     :     0.000006
      f-1     :     0.000178
      f+2     :     0.000067
      f-2     :     0.000092
      f+3     :     0.000059
      f-3     :     0.000034
 13 Aus       :    -0.049900  s :    -0.049900
      pz      :    -0.019557  p :    -0.028529
      px      :    -0.006970
      py      :    -0.002001
      dz2     :     0.004897  d :     0.006312
      dxz     :     0.002387
      dyz     :    -0.000543
      dx2y2   :     0.005123
      dxy     :    -0.005552
      f0      :     0.000051  f :     0.000294
      f+1     :     0.000061
      f-1     :     0.000021
      f+2     :     0.000009
      f-2     :     0.000079
      f+3     :     0.000062
      f-3     :     0.000011
 14 Aus       :    -0.047034  s :    -0.047034
      pz      :    -0.013273  p :    -0.041685
      px      :    -0.004232
      py      :    -0.024180
      dz2     :    -0.005006  d :    -0.008442
      dxz     :    -0.005947
      dyz     :     0.002194
      dx2y2   :     0.001184
      dxy     :    -0.000867
      f0      :     0.000022  f :     0.000285
      f+1     :    -0.000012
      f-1     :     0.000037
      f+2     :     0.000026
      f-2     :     0.000056
      f+3     :     0.000104
      f-3     :     0.000052
 15 Aus       :    -0.042493  s :    -0.042493
      pz      :    -0.005190  p :    -0.026798
      px      :    -0.007880
      py      :    -0.013728
      dz2     :    -0.006641  d :     0.000527
      dxz     :     0.003955
      dyz     :    -0.003510
      dx2y2   :     0.001957
      dxy     :     0.004767
      f0      :     0.000037  f :     0.000338
      f+1     :     0.000018
      f-1     :     0.000000
      f+2     :     0.000070
      f-2     :    -0.000002
      f+3     :     0.000173
      f-3     :     0.000042
 16 Crs       :     0.023050  s :     0.023050
      pz      :     0.013549  p :     0.041653
      px      :     0.014083
      py      :     0.014021
      dz2     :     0.768404  d :     3.356438
      dxz     :     0.652131
      dyz     :     0.620007
      dx2y2   :     0.680652
      dxy     :     0.635245
      f0      :    -0.000007  f :     0.000013
      f+1     :     0.000004
      f-1     :     0.000001
      f+2     :     0.000001
      f-2     :    -0.000006
      f+3     :     0.000012
      f-3     :     0.000007


                      *****************************
                      * MAYER POPULATION ANALYSIS *
                      *****************************

  NA   - Mulliken gross atomic population
  ZA   - Total nuclear charge
  QA   - Mulliken gross atomic charge
  VA   - Mayer's total valence
  BVA  - Mayer's bonded valence
  FA   - Mayer's free valence

  ATOM       NA         ZA         QA         VA         BVA        FA
  0 Au    18.9279    19.0000     0.0721     2.2085     2.1949     0.0136
  1 Au    18.7968    19.0000     0.2032     1.9126     1.9011     0.0116
  2 Au    18.4762    19.0000     0.5238     1.6813     1.6756     0.0056
  3 Au    18.4757    19.0000     0.5243     1.3075     1.2754     0.0320
  4 Au    19.1227    19.0000    -0.1227     2.1733     2.1705     0.0029
  5 Au    19.1159    19.0000    -0.1159     2.1601     2.1572     0.0029
  6 Au    19.0927    19.0000    -0.0927     1.9080     1.8902     0.0178
  7 Au    18.8377    19.0000     0.1623     1.6187     1.6114     0.0073
  8 Au    19.2629    19.0000    -0.2629     2.1932     2.1803     0.0129
  9 Au    18.5577    19.0000     0.4423     1.5740     1.5697     0.0043
 10 Au    18.8262    19.0000     0.1738     1.6140     1.6077     0.0064
 11 Au    18.7556    19.0000     0.2444     1.7828     1.7797     0.0031
 12 Au    18.8018    19.0000     0.1982     1.9297     1.9184     0.0114
 13 Au    18.5579    19.0000     0.4421     1.5691     1.5649     0.0043
 14 Au    18.9466    19.0000     0.0534     2.2331     2.2194     0.0137
 15 Au    18.4745    19.0000     0.5255     1.6776     1.6720     0.0056
 16 Cr    26.9713    24.0000    -2.9713     8.9566     6.0034     2.9532

  Mayer bond orders larger than 0.100000
B(  0-Au,  2-Au) :   0.2273 B(  0-Au,  4-Au) :   0.4496 B(  0-Au,  6-Au) :   0.1552 
B(  0-Au,  7-Au) :   0.3080 B(  0-Au,  9-Au) :   0.2083 B(  0-Au, 16-Cr) :   0.4726 
B(  1-Au,  7-Au) :   0.1503 B(  1-Au,  9-Au) :   0.3000 B(  1-Au, 11-Au) :   0.2282 
B(  1-Au, 12-Au) :   0.2806 B(  1-Au, 16-Cr) :   0.5747 B(  2-Au,  6-Au) :   0.1491 
B(  2-Au,  9-Au) :   0.2218 B(  2-Au, 15-Au) :   0.3059 B(  2-Au, 16-Cr) :   0.5050 
B(  3-Au,  4-Au) :   0.3327 B(  3-Au,  5-Au) :   0.3311 B(  3-Au,  8-Au) :   0.2463 
B(  4-Au,  5-Au) :   0.2836 B(  4-Au,  6-Au) :   0.2701 B(  4-Au,  7-Au) :   0.2284 
B(  4-Au,  8-Au) :   0.3343 B(  4-Au, 16-Cr) :   0.1701 B(  5-Au,  6-Au) :   0.2726 
B(  5-Au,  8-Au) :   0.3315 B(  5-Au, 10-Au) :   0.2247 B(  5-Au, 14-Au) :   0.4463 
B(  5-Au, 16-Cr) :   0.1674 B(  6-Au, 14-Au) :   0.1532 B(  6-Au, 15-Au) :   0.1517 
B(  6-Au, 16-Cr) :   0.5599 B(  7-Au,  8-Au) :   0.2627 B(  7-Au, 11-Au) :   0.2246 
B(  7-Au, 16-Cr) :   0.2638 B(  8-Au, 10-Au) :   0.2634 B(  8-Au, 11-Au) :   0.4854 
B(  8-Au, 16-Cr) :   0.1063 B(  9-Au, 16-Cr) :   0.5406 B( 10-Au, 11-Au) :   0.2223 
B( 10-Au, 12-Au) :   0.1528 B( 10-Au, 14-Au) :   0.3163 B( 10-Au, 16-Cr) :   0.2587 
B( 11-Au, 12-Au) :   0.2312 B( 11-Au, 16-Cr) :   0.2288 B( 12-Au, 13-Au) :   0.2987 
B( 12-Au, 16-Cr) :   0.5781 B( 13-Au, 14-Au) :   0.2095 B( 13-Au, 15-Au) :   0.2216 
B( 13-Au, 16-Cr) :   0.5311 B( 14-Au, 15-Au) :   0.2300 B( 14-Au, 16-Cr) :   0.4826 
B( 15-Au, 16-Cr) :   0.4986 

-------
TIMINGS
-------

Total SCF time: 0 days 0 hours 11 min 3 sec 

Total time                  ....     663.185 sec
Sum of individual times     ....     656.235 sec  ( 99.0%)

Fock matrix formation       ....     590.393 sec  ( 89.0%)
  Split-RI-J                ....     196.481 sec  ( 33.3% of F)
  XC integration            ....     386.247 sec  ( 65.4% of F)
    Basis function eval.    ....      43.511 sec  ( 11.3% of XC)
    Density eval.           ....     182.512 sec  ( 47.3% of XC)
    XC-Functional eval.     ....       6.231 sec  (  1.6% of XC)
    XC-Potential eval.      ....     141.057 sec  ( 36.5% of XC)
Diagonalization             ....      40.713 sec  (  6.1%)
Density matrix formation    ....       2.914 sec  (  0.4%)
Population analysis         ....       0.193 sec  (  0.0%)
Initial guess               ....       0.285 sec  (  0.0%)
Orbital Transformation      ....       2.155 sec  (  0.3%)
Orbital Orthonormalization  ....       0.242 sec  (  0.0%)
DIIS solution               ....      18.089 sec  (  2.7%)
Grid generation             ....       1.480 sec  (  0.2%)

Maximum memory used throughout the entire SCF-calculation: 131.8 MB

-------------------------   --------------------
FINAL SINGLE POINT ENERGY     -3217.473533630443
-------------------------   --------------------


                            ***************************************
                            *     ORCA property calculations      *
                            ***************************************

                                    ---------------------
                                    Active property flags
                                    ---------------------
   (+) Dipole Moment


------------------------------------------------------------------------------
                       ORCA ELECTRIC PROPERTIES CALCULATION
------------------------------------------------------------------------------

Dipole Moment Calculation                       ... on
Quadrupole Moment Calculation                   ... off
Polarizability Calculation                      ... off
GBWName                                         ... pbeSP_job2.gbw
Electron density                                ... pbeSP_job2.scfp
The origin for moment calculation is the CENTER OF MASS  = (16.725382, 15.133936 15.433119)

-------------
DIPOLE MOMENT
-------------
                                X             Y             Z
Electronic contribution:     29.08781      27.82555      40.40140
Nuclear contribution   :    -29.58054     -28.22764     -40.84233
                        -----------------------------------------
Total Dipole Moment    :     -0.49273      -0.40209      -0.44094
                        -----------------------------------------
Magnitude (a.u.)       :      0.77387
Magnitude (Debye)      :      1.96703



--------------------
Rotational spectrum 
--------------------
 
Rotational constants in cm-1:     0.000931     0.000712     0.000704 
Rotational constants in MHz :    27.903370    21.356495    21.106181 

 Dipole components along the rotational axes: 
x,y,z [a.u.] :     0.770396    -0.008465     0.072781 
x,y,z [Debye]:     1.958191    -0.021515     0.184995 

 

Timings for individual modules:

Sum of individual times         ...      675.284 sec (=  11.255 min)
GTO integral calculation        ...       11.959 sec (=   0.199 min)   1.8 %
SCF iterations                  ...      663.325 sec (=  11.055 min)  98.2 %



                             ****ORCA TERMINATED NORMALLY****
TOTAL RUN TIME: 0 days 0 hours 14 minutes 45 seconds 186 msec
