
                                 *****************
                                 * O   R   C   A *
                                 *****************

                                            #,                                       
                                            ###                                      
                                            ####                                     
                                            #####                                    
                                            ######                                   
                                           ########,                                 
                                     ,,################,,,,,                         
                               ,,#################################,,                 
                          ,,##########################################,,             
                       ,#########################################, ''#####,          
                    ,#############################################,,   '####,        
                  ,##################################################,,,,####,       
                ,###########''''           ''''###############################       
              ,#####''   ,,,,##########,,,,          '''####'''          '####       
            ,##' ,,,,###########################,,,                        '##       
           ' ,,###''''                  '''############,,,                           
         ,,##''                                '''############,,,,        ,,,,,,###''
      ,#''                                            '''#######################'''  
     '                                                          ''''####''''         
             ,#######,   #######,   ,#######,      ##                                
            ,#'     '#,  ##    ##  ,#'     '#,    #''#        ######   ,####,        
            ##       ##  ##   ,#'  ##            #'  '#       #        #'  '#        
            ##       ##  #######   ##           ,######,      #####,   #    #        
            '#,     ,#'  ##    ##  '#,     ,#' ,#      #,         ##   #,  ,#        
             '#######'   ##     ##  '#######'  #'      '#     #####' # '####'        



                  #######################################################
                  #                        -***-                        #
                  #          Department of theory and spectroscopy      #
                  #    Directorship and core code : Frank Neese         #
                  #        Max Planck Institute fuer Kohlenforschung    #
                  #                Kaiser Wilhelm Platz 1               #
                  #                 D-45470 Muelheim/Ruhr               #
                  #                      Germany                        #
                  #                                                     #
                  #                  All rights reserved                #
                  #                        -***-                        #
                  #######################################################


                         Program Version 5.0.3 -  RELEASE  -


 With contributions from (in alphabetic order):
   Daniel Aravena         : Magnetic Suceptibility
   Michael Atanasov       : Ab Initio Ligand Field Theory (pilot matlab implementation)
   Alexander A. Auer      : GIAO ZORA, VPT2 properties, NMR spectrum
   Ute Becker             : Parallelization
   Giovanni Bistoni       : ED, misc. LED, open-shell LED, HFLD
   Martin Brehm           : Molecular dynamics
   Dmytro Bykov           : SCF Hessian
   Vijay G. Chilkuri      : MRCI spin determinant printing, contributions to CSF-ICE
   Dipayan Datta          : RHF DLPNO-CCSD density
   Achintya Kumar Dutta   : EOM-CC, STEOM-CC
   Dmitry Ganyushin       : Spin-Orbit,Spin-Spin,Magnetic field MRCI
   Miquel Garcia          : C-PCM and meta-GGA Hessian, CC/C-PCM, Gaussian charge scheme
   Yang Guo               : DLPNO-NEVPT2, F12-NEVPT2, CIM, IAO-localization
   Andreas Hansen         : Spin unrestricted coupled pair/coupled cluster methods
   Benjamin Helmich-Paris : MC-RPA, TRAH-SCF, COSX integrals
   Lee Huntington         : MR-EOM, pCC
   Robert Izsak           : Overlap fitted RIJCOSX, COSX-SCS-MP3, EOM
   Marcus Kettner         : VPT2
   Christian Kollmar      : KDIIS, OOCD, Brueckner-CCSD(T), CCSD density, CASPT2, CASPT2-K
   Simone Kossmann        : Meta GGA functionals, TD-DFT gradient, OOMP2, MP2 Hessian
   Martin Krupicka        : Initial AUTO-CI
   Lucas Lang             : DCDCAS
   Marvin Lechner         : AUTO-CI (C++ implementation), FIC-MRCC
   Dagmar Lenk            : GEPOL surface, SMD
   Dimitrios Liakos       : Extrapolation schemes; Compound Job, initial MDCI parallelization
   Dimitrios Manganas     : Further ROCIS development; embedding schemes
   Dimitrios Pantazis     : SARC Basis sets
   Anastasios Papadopoulos: AUTO-CI, single reference methods and gradients
   Taras Petrenko         : DFT Hessian,TD-DFT gradient, ASA, ECA, R-Raman, ABS, FL, XAS/XES, NRVS
   Peter Pinski           : DLPNO-MP2, DLPNO-MP2 Gradient
   Christoph Reimann      : Effective Core Potentials
   Marius Retegan         : Local ZFS, SOC
   Christoph Riplinger    : Optimizer, TS searches, QM/MM, DLPNO-CCSD(T), (RO)-DLPNO pert. Triples
   Tobias Risthaus        : Range-separated hybrids, TD-DFT gradient, RPA, STAB
   Michael Roemelt        : Original ROCIS implementation
   Masaaki Saitow         : Open-shell DLPNO-CCSD energy and density
   Barbara Sandhoefer     : DKH picture change effects
   Avijit Sen             : IP-ROCIS
   Kantharuban Sivalingam : CASSCF convergence, NEVPT2, FIC-MRCI
   Bernardo de Souza      : ESD, SOC TD-DFT
   Georgi Stoychev        : AutoAux, RI-MP2 NMR, DLPNO-MP2 response
   Willem Van den Heuvel  : Paramagnetic NMR
   Boris Wezisla          : Elementary symmetry handling
   Frank Wennmohs         : Technical directorship


 We gratefully acknowledge several colleagues who have allowed us to
 interface, adapt or use parts of their codes:
   Stefan Grimme, W. Hujo, H. Kruse, P. Pracht,  : VdW corrections, initial TS optimization,
                  C. Bannwarth, S. Ehlert          DFT functionals, gCP, sTDA/sTD-DF
   Ed Valeev, F. Pavosevic, A. Kumar             : LibInt (2-el integral package), F12 methods
   Garnet Chan, S. Sharma, J. Yang, R. Olivares  : DMRG
   Ulf Ekstrom                                   : XCFun DFT Library
   Mihaly Kallay                                 : mrcc  (arbitrary order and MRCC methods)
   Jiri Pittner, Ondrej Demel                    : Mk-CCSD
   Frank Weinhold                                : gennbo (NPA and NBO analysis)
   Christopher J. Cramer and Donald G. Truhlar   : smd solvation model
   Lars Goerigk                                  : TD-DFT with DH, B97 family of functionals
   V. Asgeirsson, H. Jonsson                     : NEB implementation
   FAccTs GmbH                                   : IRC, NEB, NEB-TS, DLPNO-Multilevel, CI-OPT
                                                   MM, QMMM, 2- and 3-layer-ONIOM, Crystal-QMMM,
                                                   LR-CPCM, SF, NACMEs, symmetry and pop. for TD-DFT,
                                                   nearIR, NL-DFT gradient (VV10), updates on ESD,
                                                   ML-optimized integration grids
   S Lehtola, MJT Oliveira, MAL Marques          : LibXC Library
   Liviu Ungur et al                             : ANISO software


 Your calculation uses the libint2 library for the computation of 2-el integrals
 For citations please refer to: http://libint.valeyev.net

 Your ORCA version has been built with support for libXC version: 5.1.0
 For citations please refer to: https://tddft.org/programs/libxc/

 This ORCA versions uses:
   CBLAS   interface :  Fast vector & matrix operations
   LAPACKE interface :  Fast linear algebra routines
   SCALAPACK package :  Parallel linear algebra routines
   Shared memory     :  Shared parallel matrices
   BLAS/LAPACK       :  OpenBLAS 0.3.15  USE64BITINT DYNAMIC_ARCH NO_AFFINITY Haswell SINGLE_THREADED
        Core in use  :  Haswell
   Copyright (c) 2011-2014, The OpenBLAS Project




***************************************
The coordinates will be read from file: pbe.xyz
***************************************


================================================================================

cite the ECPs for Au [Def2-ECP] as follows:
Ce-Yb(ecp-28): M. Dolg, H. Stoll, H.Preuss, J. Chem. Phys., 1989, 90, 1730-1734.
Y-Cd(ecp-28), Hf-Hg(ecp-46): D. Andrae,U. Haeussermann, M. Dolg, H. Stoll, H. Preuss, Theor. Chim. Acta, 1990, 77, 123-141.
In-Sb(ecp-28), Tl-Bi(ecp-46): B. Metz, H. Stoll, M. Dolg, J. Chem. Phys., 2000, 113, 2563-2569.
Te-Xe(ecp-28), Po-Rn(ecp-46): K. A. Peterson, D. Figgen, E. Goll, H. Stoll, M. Dolg, J. Chem. Phys., 2003, 119, 11113-11123.
Rb(ecp-28), Cs(ecp-46): T. Leininger, A. Nicklass, W. Kuechle, H. Stoll, M. Dolg, A. Bergner, Chem. Phys. Lett., 1996, 255, 274-280.
Sr(ecp-28), Ba(ecp-46): M. Kaupp, P. V. Schleyer, H. Stoll and H. Preuss, J. Chem. Phys., 1991, 94, 1360-1366.
La(ecp-46): M. Dolg, H. Stoll, A. Savin, H. Preuss, Theor. Chim. Acta, 1989, 75, 173-194.
Lu(ecp-28): X. Cao, M. Dolg, J. Chem. Phys., 2001, 115, 7348-7355.

ECP parameters for Au [Def2-ECP] have been obtained from:
TURBOMOLE (7.0.2)

----- Orbital basis set information -----
Your calculation utilizes the basis: def2-TZVP
   F. Weigend and R. Ahlrichs, Phys. Chem. Chem. Phys. 7, 3297 (2005).

----- AuxJ basis set information -----
Your calculation utilizes the auxiliary basis: def2/J
   F. Weigend, Phys. Chem. Chem. Phys. 8, 1057 (2006).

----- AuxC basis set information -----
Your calculation utilizes the auxiliary basis: def2-TZVP/C
  H-La, Hf-Rn : A. Hellweg, C. Hattig, S. Hofener and W. Klopper, Theor. Chem. Acc. 117, 587 (2007).
        Ce-Lu : J. Chmela and M. E. Harding, Mol. Phys. (2018).

================================================================================
                                        WARNINGS
                       Please study these warnings very carefully!
================================================================================


WARNING: your system is open-shell and RHF/RKS was chosen
  ===> : WILL SWITCH to UHF/UKS


WARNING: No MP2 level density has been requested!
         To caclulate MP2 level properties use
         %mp2 Density relaxed end
         or
         %mp2 Density unrelaxed end
         Otherwise for double-hybrid DFT only the energy is correct!

WARNING: The frozen-core approximation is turned on by default for 
         the MP2 part of double-hybrid DFT.

INFO   : the flag for use of the SHARK integral package has been found!



***************************************
The coordinates will be read from file: pbe.xyz
***************************************


================================================================================

cite the ECPs for Au [Def2-ECP] as follows:
Ce-Yb(ecp-28): M. Dolg, H. Stoll, H.Preuss, J. Chem. Phys., 1989, 90, 1730-1734.
Y-Cd(ecp-28), Hf-Hg(ecp-46): D. Andrae,U. Haeussermann, M. Dolg, H. Stoll, H. Preuss, Theor. Chim. Acta, 1990, 77, 123-141.
In-Sb(ecp-28), Tl-Bi(ecp-46): B. Metz, H. Stoll, M. Dolg, J. Chem. Phys., 2000, 113, 2563-2569.
Te-Xe(ecp-28), Po-Rn(ecp-46): K. A. Peterson, D. Figgen, E. Goll, H. Stoll, M. Dolg, J. Chem. Phys., 2003, 119, 11113-11123.
Rb(ecp-28), Cs(ecp-46): T. Leininger, A. Nicklass, W. Kuechle, H. Stoll, M. Dolg, A. Bergner, Chem. Phys. Lett., 1996, 255, 274-280.
Sr(ecp-28), Ba(ecp-46): M. Kaupp, P. V. Schleyer, H. Stoll and H. Preuss, J. Chem. Phys., 1991, 94, 1360-1366.
La(ecp-46): M. Dolg, H. Stoll, A. Savin, H. Preuss, Theor. Chim. Acta, 1989, 75, 173-194.
Lu(ecp-28): X. Cao, M. Dolg, J. Chem. Phys., 2001, 115, 7348-7355.

ECP parameters for Au [Def2-ECP] have been obtained from:
TURBOMOLE (7.0.2)

----- Orbital basis set information -----
Your calculation utilizes the basis: def2-TZVP
   F. Weigend and R. Ahlrichs, Phys. Chem. Chem. Phys. 7, 3297 (2005).

----- AuxJ basis set information -----
Your calculation utilizes the auxiliary basis: def2/J
   F. Weigend, Phys. Chem. Chem. Phys. 8, 1057 (2006).

----- AuxC basis set information -----
Your calculation utilizes the auxiliary basis: def2-TZVP/C
  H-La, Hf-Rn : A. Hellweg, C. Hattig, S. Hofener and W. Klopper, Theor. Chem. Acc. 117, 587 (2007).
        Ce-Lu : J. Chmela and M. E. Harding, Mol. Phys. (2018).

================================================================================
                                        WARNINGS
                       Please study these warnings very carefully!
================================================================================


WARNING: No MP2 level density has been requested!
         To caclulate MP2 level properties use
         %mp2 Density relaxed end
         or
         %mp2 Density unrelaxed end
         Otherwise for double-hybrid DFT only the energy is correct!

WARNING: The frozen-core approximation is turned on by default for 
         the MP2 part of double-hybrid DFT.

INFO   : the flag for use of the SHARK integral package has been found!

================================================================================
                                       INPUT FILE
================================================================================
NAME = b2plyp.inp
|  1> !RI-B2PLYP def2-TZVP def2-TZVP/C
|  2> !RIJCOSX VERYSLOWCONV
|  3> 
|  4> %scf
|  5>   AutoTRAHIter 200
|  6>   maxiter 400
|  7> end
|  8> 
|  9> 
| 10> %pal nprocs 6 end 
| 11> 
| 12> *xyzfile 0 5 pbe.xyz
| 13> 
| 14> $new_job
| 15> 
| 16> !RI-B2PLYP def2-TZVP def2-TZVP/C
| 17> !RIJCOSX VERYSLOWCONV
| 18> 
| 19> %scf
| 20>   AutoTRAHIter 200
| 21>   maxiter 400
| 22> end
| 23> 
| 24> 
| 25> %pal nprocs 6 end 
| 26> 
| 27> *xyzfile 0 3 pbe.xyz
| 28> 
| 29> 
| 30> 
| 31> 
| 32> 
| 33>                          ****END OF INPUT****
================================================================================


                 $$$$$$$$$$$$$$$$$$$$$$$$$$$$$$$$$$$$$$$$$$$$$$ 
                 $ THERE ARE  2 JOBS TO BE PROCESSED THIS RUN $
                 $$$$$$$$$$$$$$$$$$$$$$$$$$$$$$$$$$$$$$$$$$$$$$ 




                 $$$$$$$$$$$$$$$$  JOB NUMBER  1 $$$$$$$$$$$$$$


                       ****************************
                       * Single Point Calculation *
                       ****************************

---------------------------------
CARTESIAN COORDINATES (ANGSTROEM)
---------------------------------
  Au     7.292753   11.951582    7.623145
  Au     9.142651   10.603493    5.693257
  Au     6.235055    6.889340    6.235037
  Au     8.792937    5.593985    7.577206
  Au     6.676576    9.520209    6.474811
  Au     9.187983    7.910657    6.267125
  Au     8.100475    5.927086   10.348799
  Au     8.760288    8.610978   10.645654
  Au     5.772224    7.669340   10.472867
  Au     9.143096    9.981058    8.383829
  Au     6.292013   10.058561    9.352647
  Au     6.049246    5.479205    8.605275
  Cr     7.502774    7.774206    8.431196

----------------------------
CARTESIAN COORDINATES (A.U.)
----------------------------
  NO LB      ZA    FRAG     MASS         X           Y           Z
   0 Au   19.0000*   0   196.966   13.781307   22.585218   14.405656
   1 Au   19.0000*   0   196.966   17.277107   20.037698   10.758696
   2 Au   19.0000*   0   196.966   11.782547   13.018967   11.782512
   3 Au   19.0000*   0   196.966   16.616243   10.571099   14.318845
   4 Au   19.0000*   0   196.966   12.616901   17.990587   12.235620
   5 Au   19.0000*   0   196.966   17.362772   14.948975   11.843149
   6 Au   19.0000*   0   196.966   15.307679   11.200569   19.556396
   7 Au   19.0000*   0   196.966   16.554545   16.272389   20.117371
   8 Au   19.0000*   0   196.966   10.907922   14.492952   19.790850
   9 Au   19.0000*   0   196.966   17.277947   18.861465   15.843142
  10 Au   19.0000*   0   196.966   11.890181   19.007925   17.673941
  11 Au   19.0000*   0   196.966   11.431419   10.354196   16.261613
  12 Cr   24.0000    0    52.000   14.178188   14.691121   15.932651
* core charge reduced due to ECP

--------------------------------
INTERNAL COORDINATES (ANGSTROEM)
--------------------------------
 Au     0   0   0     0.000000000000     0.00000000     0.00000000
 Au     1   0   0     2.993983202212     0.00000000     0.00000000
 Au     2   1   0     4.747901616561    84.27781519     0.00000000
 Au     3   2   1     3.165773934144    82.74189940   246.24627046
 Au     3   2   1     2.678413839358    30.78199541    18.18689719
 Au     4   3   2     2.690603080370    63.88911493   349.08470440
 Au     4   3   2     2.876140851763    99.59210951   101.07292398
 Au     7   4   3     2.779703700646    99.06681810   280.90858674
 Au     7   4   3     2.910600703436   107.63740140   349.41009727
 Au     8   7   4     2.671986818448   116.02030726    14.28685486
 Au     9   7   4     2.689507324119   111.06362427   300.69129665
 Au     7   4   3     2.729104794965    63.01943498    33.18503646
 Cr     4   3   2     2.673421804032    53.97190020    61.70449932

---------------------------
INTERNAL COORDINATES (A.U.)
---------------------------
 Au     0   0   0     0.000000000000     0.00000000     0.00000000
 Au     1   0   0     5.657808301741     0.00000000     0.00000000
 Au     2   1   0     8.972233766103    84.27781519     0.00000000
 Au     3   2   1     5.982445737439    82.74189940   246.24627046
 Au     3   2   1     5.061468629692    30.78199541    18.18689719
 Au     4   3   2     5.084502956983    63.88911493   349.08470440
 Au     4   3   2     5.435118532414    99.59210951   101.07292398
 Au     7   4   3     5.252878727668    99.06681810   280.90858674
 Au     7   4   3     5.500238214692   107.63740140   349.41009727
 Au     8   7   4     5.049323320315   116.02030726    14.28685486
 Au     9   7   4     5.082432277760   111.06362427   300.69129665
 Au     7   4   3     5.157260653255    63.01943498    33.18503646
 Cr     4   3   2     5.052035050074    53.97190020    61.70449932

---------------------
BASIS SET INFORMATION
---------------------
There are 2 groups of distinct atoms

 Group   1 Type Au  : 8s7p6d1f contracted to 6s4p3d1f pattern {311111/4111/411/1}
 Group   2 Type Cr  : 17s11p7d1f contracted to 6s4p4d1f pattern {842111/6311/4111/1}

Atom   0Au   basis set group =>   1
Atom   1Au   basis set group =>   1
Atom   2Au   basis set group =>   1
Atom   3Au   basis set group =>   1
Atom   4Au   basis set group =>   1
Atom   5Au   basis set group =>   1
Atom   6Au   basis set group =>   1
Atom   7Au   basis set group =>   1
Atom   8Au   basis set group =>   1
Atom   9Au   basis set group =>   1
Atom  10Au   basis set group =>   1
Atom  11Au   basis set group =>   1
Atom  12Cr   basis set group =>   2
---------------------------------
AUXILIARY/J BASIS SET INFORMATION
---------------------------------
There are 2 groups of distinct atoms

 Group   1 Type Au  : 11s5p5d3f3g contracted to 8s5p5d2f3g pattern {41111111/11111/11111/21/111}
 Group   2 Type Cr  : 19s5p5d3f3g contracted to 8s5p5d2f3g pattern {121111111/11111/11111/21/111}

Atom   0Au   basis set group =>   1
Atom   1Au   basis set group =>   1
Atom   2Au   basis set group =>   1
Atom   3Au   basis set group =>   1
Atom   4Au   basis set group =>   1
Atom   5Au   basis set group =>   1
Atom   6Au   basis set group =>   1
Atom   7Au   basis set group =>   1
Atom   8Au   basis set group =>   1
Atom   9Au   basis set group =>   1
Atom  10Au   basis set group =>   1
Atom  11Au   basis set group =>   1
Atom  12Cr   basis set group =>   2
---------------------------------
AUXILIARY/C BASIS SET INFORMATION
---------------------------------
There are 2 groups of distinct atoms

 Group   1 Type Au  : 8s8p7d5f3g2h contracted to 8s8p7d5f3g2h pattern {11111111/11111111/1111111/11111/111/11}
 Group   2 Type Cr  : 11s9p8d6f5g2h contracted to 9s8p8d6f5g2h pattern {311111111/21111111/11111111/111111/11111/11}

Atom   0Au   basis set group =>   1
Atom   1Au   basis set group =>   1
Atom   2Au   basis set group =>   1
Atom   3Au   basis set group =>   1
Atom   4Au   basis set group =>   1
Atom   5Au   basis set group =>   1
Atom   6Au   basis set group =>   1
Atom   7Au   basis set group =>   1
Atom   8Au   basis set group =>   1
Atom   9Au   basis set group =>   1
Atom  10Au   basis set group =>   1
Atom  11Au   basis set group =>   1
Atom  12Cr   basis set group =>   2
-------------------------
ECP PARAMETER INFORMATION
-------------------------

 Group 1, Type Au ECP Def2-ECP (replacing 60 core electrons, lmax=3)

Atom   0Au   ECP group =>   1
Atom   1Au   ECP group =>   1
Atom   2Au   ECP group =>   1
Atom   3Au   ECP group =>   1
Atom   4Au   ECP group =>   1
Atom   5Au   ECP group =>   1
Atom   6Au   ECP group =>   1
Atom   7Au   ECP group =>   1
Atom   8Au   ECP group =>   1
Atom   9Au   ECP group =>   1
Atom  10Au   ECP group =>   1
Atom  11Au   ECP group =>   1



           ************************************************************
           *        Program running with 6 parallel MPI-processes     *
           *              working on a common directory               *
           ************************************************************
------------------------------------------------------------------------------
                           ORCA GTO INTEGRAL CALCULATION
                           -- RI-GTO INTEGRALS CHOSEN --
------------------------------------------------------------------------------
------------------------------------------------------------------------------
                   ___                                                        
                  /   \      - P O W E R E D   B Y -                         
                 /     \                                                     
                 |  |  |   _    _      __       _____    __    __             
                 |  |  |  | |  | |    /  \     |  _  \  |  |  /  |          
                  \  \/   | |  | |   /    \    | | | |  |  | /  /          
                 / \  \   | |__| |  /  /\  \   | |_| |  |  |/  /          
                |  |  |   |  __  | /  /__\  \  |    /   |      \           
                |  |  |   | |  | | |   __   |  |    \   |  |\   \          
                \     /   | |  | | |  |  |  |  | |\  \  |  | \   \       
                 \___/    |_|  |_| |__|  |__|  |_| \__\ |__|  \__/        
                                                                              
                      - O R C A' S   B I G   F R I E N D -                    
                                      &                                       
                       - I N T E G R A L  F E E D E R -                       
                                                                              
 v1 FN, 2020, v2 2021                                                         
------------------------------------------------------------------------------


Reading SHARK input file b2plyp.SHARKINP.tmp ... ok
----------------------
SHARK INTEGRAL PACKAGE
----------------------

Number of atoms                             ...     13
Number of basis functions                   ...    525
Number of shells                            ...    183
Maximum angular momentum                    ...      3
Integral batch strategy                     ... SHARK/LIBINT Hybrid
RI-J (if used) integral strategy            ... SPLIT-RIJ (Revised 2003 algorithm where possible)
Printlevel                                  ...      1
Contraction scheme used                     ... SEGMENTED contraction
Coulomb Range Separation                    ... NOT USED
Exchange Range Separation                   ... NOT USED
Finite Nucleus Model                        ... NOT USED
Auxiliary Coulomb fitting basis             ... AVAILABLE
   # of basis functions in Aux-J            ...   1157
   # of shells in Aux-J                     ...    299
   Maximum angular momentum in Aux-J        ...      4
Auxiliary J/K fitting basis                 ... NOT available
Auxiliary Correlation fitting basis         ... AVAILABLE
   # of basis functions in Aux-C            ...   1994
   # of shells in Aux-C                     ...    434
   Maximum angular momentum in Aux-C        ...      5
Auxiliary 'external' fitting basis          ... NOT available
Integral threshold                          ...     1.000000e-10
Primitive cut-off                           ...     1.000000e-11
Primitive pair pre-selection threshold      ...     1.000000e-11

Calculating pre-screening integrals         ... done (  0.3 sec) Dimension = 183
Organizing shell pair data                  ... done (  0.6 sec)
Shell pair information
Total number of shell pairs                 ...     16836
Shell pairs after pre-screening             ...     13692
Total number of primitive shell pairs       ...     45389
Primitive shell pairs kept                  ...     27098
          la=0 lb=0:   2151 shell pairs
          la=1 lb=0:   3131 shell pairs
          la=1 lb=1:   1167 shell pairs
          la=2 lb=0:   2724 shell pairs
          la=2 lb=1:   1892 shell pairs
          la=2 lb=2:    783 shell pairs
          la=3 lb=0:    738 shell pairs
          la=3 lb=1:    552 shell pairs
          la=3 lb=2:    478 shell pairs
          la=3 lb=3:     76 shell pairs

Calculating one electron integrals          ... done (  0.3 sec)
Calculating ECP integrals                   ... done ( 14.8 sec)
Calculating RI/J V-Matrix + Cholesky decomp.... done (  3.1 sec)
Calculating RI/C V-Matrix + Cholesky decomp.... done (  4.1 sec)
Calculating Nuclear repulsion               ... done (  0.0 sec) ENN=   4283.810433453966 Eh

SHARK setup successfully completed in  24.2 seconds

Maximum memory used throughout the entire GTOINT-calculation: 39.2 MB


           ************************************************************
           *        Program running with 6 parallel MPI-processes     *
           *              working on a common directory               *
           ************************************************************
-------------------------------------------------------------------------------
                                 ORCA SCF
-------------------------------------------------------------------------------

------------
SCF SETTINGS
------------
Hamiltonian:
 Density Functional     Method          .... DFT(GTOs)
 Exchange Functional    Exchange        .... B88
   X-Alpha parameter    XAlpha          ....  0.666667
   Becke's b parameter  XBeta           ....  0.004200
 Correlation Functional Correlation     .... LYP
 LDA part of GGA corr.  LDAOpt          .... VWN-3
 Gradients option       PostSCFGGA      .... off
 Hybrid DFT is turned on
   Fraction HF Exchange ScalHFX         ....  0.530000
   Scaling of DF-GGA-X  ScalDFX         ....  0.470000
   Scaling of DF-GGA-C  ScalDFC         ....  0.730000
   Scaling of DF-LDA-C  ScalLDAC        ....  0.730000
   Perturbative correction              ....  0.270000
   Density functional embedding theory  .... OFF
   NL short-range parameter             ....  7.800000
 RI-approximation to the Coulomb term is turned on
   Number of AuxJ basis functions       .... 1157
   RIJ-COSX (HFX calculated with COS-X)).... on


General Settings:
 Integral files         IntName         .... b2plyp
 Hartree-Fock type      HFTyp           .... UHF
 Total Charge           Charge          ....    0
 Multiplicity           Mult            ....    5
 Number of Electrons    NEL             ....  252
 Basis Dimension        Dim             ....  525
 Nuclear Repulsion      ENuc            ....   4283.8104334540 Eh

Convergence Acceleration:
 DIIS                   CNVDIIS         .... on
   Start iteration      DIISMaxIt       ....     0
   Startup error        DIISStart       ....  0.200000
   # of expansion vecs  DIISMaxEq       ....     5
   Bias factor          DIISBfac        ....   1.050
   Max. coefficient     DIISMaxC        ....  10.000
 Trust-Rad. Augm. Hess. CNVTRAH         .... auto
   Auto Start mean grad. ratio tolernc. ....  1.125000
   Auto Start start iteration           ....   200
   Auto Start num. interpolation iter.  ....    10
   Max. Number of Micro iterations      ....    16
   Max. Number of Macro iterations      .... Maxiter - #DIIS iter
   Number of Davidson start vectors     ....     2
   Converg. threshold I  (grad. norm)   ....   5.000e-05
   Converg. threshold II (energy diff.) ....   1.000e-06
   Grad. Scal. Fac. for Micro threshold ....   0.100
   Minimum threshold for Micro iter.    ....   0.010
   NR start threshold (gradient norm)   ....   0.001
   Initial trust radius                 ....   0.400
   Minimum AH scaling param. (alpha)    ....   1.000
   Maximum AH scaling param. (alpha)    .... 1000.000
   Orbital update algorithm             .... Taylor
   White noise on init. David. guess    .... on
   Maximum white noise                  ....   0.010
   Quad. conv. algorithm                .... NR
 SOSCF                  CNVSOSCF        .... off
 Level Shifting         CNVShift        .... on
   Level shift para.    LevelShift      ....    0.2500
   Turn off err/grad.   ShiftErr        ....    0.0000
 Zerner damping         CNVZerner       .... off
 Static damping         CNVDamp         .... on
   Fraction old density DampFac         ....    0.9200
   Max. Damping (<1)    DampMax         ....    0.9800
   Min. Damping (>=0)   DampMin         ....    0.0000
   Turn off err/grad.   DampErr         ....    0.0030
 Fernandez-Rico         CNVRico         .... off

SCF Procedure:
 Maximum # iterations   MaxIter         ....   400
 SCF integral mode      SCFMode         .... Direct
   Integral package                     .... SHARK and LIBINT hybrid scheme
 Reset frequency        DirectResetFreq ....    20
 Integral Threshold     Thresh          ....  1.000e-10 Eh
 Primitive CutOff       TCut            ....  1.000e-11 Eh

Convergence Tolerance:
 Convergence Check Mode ConvCheckMode   .... Total+1el-Energy
 Convergence forced     ConvForced      .... 0
 Energy Change          TolE            ....  1.000e-06 Eh
 1-El. energy change                    ....  1.000e-03 Eh
 DIIS Error             TolErr          ....  1.000e-06


Diagonalization of the overlap matrix:
Smallest eigenvalue                        ... 1.839e-04
Time for diagonalization                   ...    0.092 sec
Threshold for overlap eigenvalues          ... 1.000e-08
Number of eigenvalues below threshold      ... 0
Time for construction of square roots      ...    0.284 sec
Total time needed                          ...    0.672 sec

Time for model grid setup =    2.936 sec

------------------------------
INITIAL GUESS: MODEL POTENTIAL
------------------------------
Loading Hartree-Fock densities                     ... done
  calling /media/Programs/ORCA501/orca b2plyp_atom79.inp > b2plyp_atom79.out in order to generate an atomic fitting density for atom 0 (Au with ECP) on-the-fly... 
    atom 0 (Au), assumed electronic state with S=2: 1s2 2s2 2p6 3s2 3p6 4s2 3d10 4p6 5s2 4d10 5p6 6s1 4f14 5d10           ... done
Calculating cut-offs                               ... done
Initializing the effective Hamiltonian             ... done
Setting up the integral package (SHARK)            ... done
Starting the Coulomb interaction                   ... done (   1.6 sec)
Reading the grid                                   ... done
Mapping shells                                     ... done
Starting the XC term evaluation                    ... done (   0.9 sec)
  promolecular density results
     # of electrons  =    972.013541219
     EX              =  -4455.958814499
     EC              =    -19.728511381
     EX+EC           =  -4475.687325880
Transforming the Hamiltonian                       ... done (   0.7 sec)
Diagonalizing the Hamiltonian                      ... done (   0.5 sec)
Back transforming the eigenvectors                 ... done (   0.1 sec)
Now organizing SCF variables                       ... done
                      ------------------
                      INITIAL GUESS DONE (   8.3 sec)
                      ------------------
-------------------
DFT GRID GENERATION
-------------------

General Integration Accuracy     IntAcc      ... 4.388
Radial Grid Type                 RadialGrid  ... OptM3 with GC (2021)
Angular Grid (max. ang.)         AngularGrid ... 4 (Lebedev-302)
Angular grid pruning method      GridPruning ... 4 (adaptive)
Weight generation scheme         WeightScheme... Becke
Basis function cutoff            BFCut       ... 1.0000e-10
Integration weight cutoff        WCut        ... 1.0000e-14
Angular grids for H and He will be reduced by one unit
Partially contracted basis set               ... off
Rotationally invariant grid construction     ... off

Total number of grid points                  ...   144732
Total number of batches                      ...     2266
Average number of points per batch           ...       63
Average number of grid points per atom       ...    11133
Time for grid setup =    6.176 sec

--------------------
COSX GRID GENERATION
--------------------

GRIDX 1
-------
General Integration Accuracy     IntAcc      ... 3.816
Radial Grid Type                 RadialGrid  ... OptM3 with GC (2021)
Angular Grid (max. ang.)         AngularGrid ... 1 (Lebedev-50)
Angular grid pruning method      GridPruning ... 4 (adaptive)
Weight generation scheme         WeightScheme... Becke
Basis function cutoff            BFCut       ... 1.0000e-10
Integration weight cutoff        WCut        ... 1.0000e-14
Angular grids for H and He will be reduced by one unit
Partially contracted basis set               ... on
Rotationally invariant grid construction     ... off

Total number of grid points                  ...    15228
Total number of batches                      ...      245
Average number of points per batch           ...       62
Average number of grid points per atom       ...     1171
UseSFitting                                  ... on

GRIDX 2
-------
General Integration Accuracy     IntAcc      ... 4.020
Radial Grid Type                 RadialGrid  ... OptM3 with GC (2021)
Angular Grid (max. ang.)         AngularGrid ... 2 (Lebedev-110)
Angular grid pruning method      GridPruning ... 4 (adaptive)
Weight generation scheme         WeightScheme... Becke
Basis function cutoff            BFCut       ... 1.0000e-10
Integration weight cutoff        WCut        ... 1.0000e-14
Angular grids for H and He will be reduced by one unit
Partially contracted basis set               ... on
Rotationally invariant grid construction     ... off

Total number of grid points                  ...    46048
Total number of batches                      ...      726
Average number of points per batch           ...       63
Average number of grid points per atom       ...     3542
UseSFitting                                  ... on

GRIDX 3
-------
General Integration Accuracy     IntAcc      ... 4.338
Radial Grid Type                 RadialGrid  ... OptM3 with GC (2021)
Angular Grid (max. ang.)         AngularGrid ... 3 (Lebedev-194)
Angular grid pruning method      GridPruning ... 4 (adaptive)
Weight generation scheme         WeightScheme... Becke
Basis function cutoff            BFCut       ... 1.0000e-10
Integration weight cutoff        WCut        ... 1.0000e-14
Angular grids for H and He will be reduced by one unit
Partially contracted basis set               ... on
Rotationally invariant grid construction     ... off

Total number of grid points                  ...    84318
Total number of batches                      ...     1325
Average number of points per batch           ...       63
Average number of grid points per atom       ...     6486
UseSFitting                                  ... on

Time for X-Grid setup             =    6.553 sec

--------------
SCF ITERATIONS
--------------
ITER       Energy         Delta-E        Max-DP      RMS-DP      [F,P]     Damp
               ***  Starting incremental Fock matrix formation  ***
  0  -2667.6875229150   0.000000000000 0.05415458  0.00053531  0.2767926 0.9200
  1  -2668.0111399374  -0.323617022437 0.08195982  0.00052104  0.2521229 0.9200
                               ***Turning on DIIS***
  2  -2668.1950049117  -0.183864974232 0.08644166  0.00044981  0.2318820 0.9200
  3  -2668.2770479880  -0.082043076320 0.06529553  0.00029603  0.2132426 0.9200
  4  -2668.3428622339  -0.065814245911 0.04403892  0.00025640  0.1960320 0.9200
  5  -2668.4054136884  -0.062551454453 0.04304487  0.00024474  0.1802107 0.9200
  6  -2668.4586669447  -0.053253256373 0.05151307  0.00023525  0.1657977 0.9200
  7  -2668.5125513298  -0.053884385024 0.05332046  0.00023664  0.1526369 0.9200
  8  -2668.5719147879  -0.059363458131 0.05065588  0.00022263  0.1405183 0.9200
  9  -2668.6253272623  -0.053412474387 0.04566624  0.00019544  0.1293105 0.9200
 10  -2668.6745654618  -0.049238199574 0.03732550  0.00017765  0.1189440 0.9200
 11  -2668.7188314403  -0.044265978486 0.03794137  0.00016858  0.1093842 0.9200
 12  -2668.7608259605  -0.041994520175 0.03932136  0.00016287  0.1006192 0.9200
 13  -2668.8016010847  -0.040775124188 0.03625928  0.00015282  0.0925841 0.9200
 14  -2668.8396388108  -0.038037726057 0.03025498  0.00013663  0.0851987 0.9200
 15  -2668.8749346476  -0.035295836840 0.02503605  0.00012439  0.0783873 0.9200
 16  -2668.9075987565  -0.032664108952 0.02364453  0.00011658  0.0721065 0.9200
 17  -2668.9381549566  -0.030556200102 0.02351535  0.00011049  0.0663314 0.9200
 18  -2668.9669519625  -0.028797005864 0.02171014  0.00010327  0.0610277 0.9200
 19  -2668.9938851506  -0.026933188119 0.01794341  0.00009417  0.0561523 0.9200
               *** Restarting incremental Fock matrix formation ***
                                   *** Resetting DIIS ***
 20  -2669.0177141069  -0.023828956291 0.01501773  0.00008226  0.0516636 0.9200
 21  -2669.0414610994  -0.023746992470 0.01334739  0.00007450  0.0475185 0.9200
 22  -2669.0635517235  -0.022090624100 0.01180949  0.00006901  0.0437281 0.9200
 23  -2669.0840375082  -0.020485784663 0.01089361  0.00006568  0.0402503 0.9200
 24  -2669.1030219822  -0.018984474015 0.01024907  0.00006303  0.0370446 0.9200
 25  -2669.1206277277  -0.017605745492 0.00956898  0.00005999  0.0340918 0.9200
 26  -2669.1369871392  -0.016359411495 0.00822751  0.00005630  0.0313749 0.9200
 27  -2669.1521829385  -0.015195799314 0.00663095  0.00005247  0.0288740 0.9200
 28  -2669.1662982591  -0.014115320677 0.00538682  0.00004906  0.0265715 0.9200
 29  -2669.1794125982  -0.013114339019 0.00457568  0.00004604  0.0244520 0.9200
 30  -2669.1916006833  -0.012188085123 0.00440072  0.00004322  0.0225015 0.9200
 31  -2669.2029286715  -0.011327988232 0.00419837  0.00004048  0.0207070 0.9200
 32  -2669.2134554869  -0.010526815338 0.00392656  0.00003784  0.0190558 0.9200
 33  -2669.2232360943  -0.009780607395 0.00367464  0.00003542  0.0175364 0.9200
 34  -2669.2323216307  -0.009085536451 0.00348078  0.00003321  0.0161381 0.9200
 35  -2669.2407597740  -0.008438143293 0.00331526  0.00003115  0.0148512 0.9200
 36  -2669.2485949265  -0.007835152487 0.00313826  0.00002922  0.0136670 0.9200
 37  -2669.2558683978  -0.007273471343 0.00294637  0.00002740  0.0125773 0.9200
 38  -2669.2626187759  -0.006750378049 0.00276232  0.00002572  0.0115746 0.9200
 39  -2669.2688819667  -0.006263190844 0.00260122  0.00002444  0.0106518 0.9200
               *** Restarting incremental Fock matrix formation ***
                                   *** Resetting DIIS ***
 40  -2669.2746911447  -0.005809178011 0.00208260  0.00001962  0.0098026 0.9200
 41  -2669.2801326793  -0.005441534590 0.00174439  0.00001740  0.0090279 0.9200
 42  -2669.2851734751  -0.005040795753 0.00171024  0.00001645  0.0083136 0.9200
 43  -2669.2898325655  -0.004659090413 0.00171571  0.00001617  0.0078826 0.9200
 44  -2669.2941350114  -0.004302445924 0.00172406  0.00001610  0.0075090 0.9200
 45  -2669.2981065043  -0.003971492884 0.00169142  0.00001568  0.0071339 0.9200
 46  -2669.3017758948  -0.003669390490 0.00164964  0.00001519  0.0067669 0.9200
 47  -2669.3051672468  -0.003391352013 0.00159081  0.00001466  0.0064026 0.9200
 48  -2669.3083023811  -0.003135134259 0.00151859  0.00001410  0.0060451 0.9200
 49  -2669.3112013641  -0.002898983084 0.00148608  0.00001352  0.0057012 0.9200
 50  -2669.3138824506  -0.002681086410 0.00154363  0.00001294  0.0053732 0.9200
 51  -2669.3163622401  -0.002479789504 0.00158350  0.00001237  0.0050601 0.9200
 52  -2669.3186559706  -0.002293730579 0.00161811  0.00001181  0.0047604 0.9200
 53  -2669.3207776595  -0.002121688861 0.00165315  0.00001127  0.0044743 0.9200
 54  -2669.3227402249  -0.001962565421 0.00165248  0.00001073  0.0042029 0.9200
 55  -2669.3245555364  -0.001815311494 0.00162680  0.00001022  0.0039459 0.9200
 56  -2669.3262345253  -0.001678988893 0.00160511  0.00000972  0.0037027 0.9200
 57  -2669.3277873461  -0.001552820779 0.00157651  0.00000924  0.0034724 0.9200
 58  -2669.3292233814  -0.001436035270 0.00155021  0.00000879  0.0032546 0.9200
 59  -2669.3305512638  -0.001327882489 0.00252950  0.00000955  0.0030489 0.9200
               *** Restarting incremental Fock matrix formation ***
                                   *** Resetting DIIS ***
 60  -2669.3317766462  -0.001225382367 0.01555757  0.00008073  0.0028552 0.0000
 61  -2669.3463902139  -0.014613567701 0.00867766  0.00002671  0.0013961 0.0000
 62  -2669.3464659924  -0.000075778456 0.00349561  0.00001363  0.0017551 0.0000
 63  -2669.3465119515  -0.000045959108 0.00221125  0.00001295  0.0006758 0.0000
               *** Restarting incremental Fock matrix formation ***
                                   *** Resetting DIIS ***
 64  -2669.3475793239  -0.001067372394 0.01806212  0.00012863  0.0006013 0.0000
 65  -2669.3477266107  -0.000147286825 0.00885086  0.00004383  0.0004286 0.0000
 66  -2669.3477542882  -0.000027677463 0.00109870  0.00001699  0.0006226 0.0000
 67  -2669.3477701432  -0.000015855009 0.00114578  0.00000916  0.0003221 0.0000
 68  -2669.3477801673  -0.000010024155 0.00051455  0.00000583  0.0002972 0.0000
 69  -2669.3477879576  -0.000007790252 0.00067036  0.00000613  0.0002913 0.0000
 70  -2669.3477958412  -0.000007883601 0.00065375  0.00000571  0.0002216 0.0000
 71  -2669.3478025482  -0.000006707067 0.00063831  0.00000522  0.0002279 0.0000
 72  -2669.3478082082  -0.000005659972 0.00066422  0.00000489  0.0002444 0.0000
 73  -2669.3478129093  -0.000004701090 0.00069939  0.00000556  0.0001954 0.0000
 74  -2669.3478177400  -0.000004830725 0.00075161  0.00000538  0.0002383 0.0000
 75  -2669.3478220059  -0.000004265908 0.00093349  0.00000691  0.0002015 0.0000
 76  -2669.3478266396  -0.000004633674 0.00039910  0.00000296  0.0002210 0.0000
 77  -2669.3478288868  -0.000002247146 0.00168904  0.00001031  0.0001574 0.0000
 78  -2669.3478332433  -0.000004356561 0.00050520  0.00000376  0.0002631 0.0000
 79  -2669.3478356339  -0.000002390620 0.00088556  0.00000558  0.0001761 0.0000
 80  -2669.3478378528  -0.000002218861 0.00070027  0.00000519  0.0001587 0.0000
 81  -2669.3478395515  -0.000001698722 0.00032362  0.00000260  0.0001560 0.0000
 82  -2669.3478406995  -0.000001147954 0.00096562  0.00000541  0.0001106 0.0000
 83  -2669.3478417128  -0.000001013355 0.00087671  0.00000275  0.0001517 0.0000
               *** Restarting incremental Fock matrix formation ***
                                   *** Resetting DIIS ***
 84  -2669.3478394493   0.000002263567 0.00288926  0.00000503  0.0000616 0.0000
 85  -2669.3478398003  -0.000000351082 0.00096963  0.00000179  0.0000304 0.0000
                 **** Energy Check signals convergence ****

               *****************************************************
               *                     SUCCESS                       *
               *           SCF CONVERGED AFTER  86 CYCLES          *
               *****************************************************

Old exchange energy                            =   -101.073182118 Eh
New exchange energy                            =   -101.072981640 Eh
Exchange energy change after final integration =      0.000200477 Eh
Total energy after final integration           =  -2669.347639540 Eh
Final COS-X integration done in                =    35.457 sec

----------------
TOTAL SCF ENERGY
----------------

Total Energy       :        -2669.34763954 Eh          -72636.64205 eV

Components:
Nuclear Repulsion  :         4283.81043345 Eh          116568.40812 eV
Electronic Energy  :        -6953.15807299 Eh         -189205.05017 eV
One Electron Energy:       -12865.07212832 Eh         -350076.41015 eV
Two Electron Energy:         5911.91405533 Eh          160871.35999 eV
Max COSX asymmetry :            0.00001279 Eh               0.00035 eV

Virial components:
Potential Energy   :        -4264.08629618 Eh         -116031.68706 eV
Kinetic Energy     :         1594.73865664 Eh           43395.04501 eV
Virial Ratio       :            2.67384645


DFT components:
N(Alpha)           :      128.000006402186 electrons
N(Beta)            :      123.999997373619 electrons
N(Total)           :      252.000003775806 electrons
E(X)               :      -91.058560620328 Eh       
E(C)               :       -6.930698486003 Eh       
E(XC)              :      -97.989259106330 Eh       
DFET-embed. en.    :        0.000000000000 Eh       

---------------
SCF CONVERGENCE
---------------

  Last Energy change         ...   -2.1756e-07  Tolerance :   1.0000e-06
  Last MAX-Density change    ...    0.0000e+00  Tolerance :   1.0000e-05
  Last RMS-Density change    ...    0.0000e+00  Tolerance :   1.0000e-06
  Last DIIS Error            ...    3.4870e-05  Tolerance :   1.0000e-06

             **** THE GBW FILE WAS UPDATED (b2plyp.gbw) ****
             **** DENSITY b2plyp.scfp WAS UPDATED ****
             **** ENERGY FILE WAS UPDATED (b2plyp.en.tmp) ****
----------------------
UHF SPIN CONTAMINATION
----------------------

Warning: in a DFT calculation there is little theoretical justification to 
         calculate <S**2> as in Hartree-Fock theory. We will do it anyways
         but you should keep in mind that the values have only limited relevance

Expectation value of <S**2>     :     6.293583
Ideal value S*(S+1) for S=2.0   :     6.000000
Deviation                       :     0.293583

             **** THE GBW FILE WAS UPDATED (b2plyp.gbw) ****
             **** DENSITY b2plyp.scfp WAS UPDATED ****
----------------
ORBITAL ENERGIES
----------------
                 SPIN UP ORBITALS
  NO   OCC          E(Eh)            E(eV) 
   0   1.0000    -217.732723     -5924.8086 
   1   1.0000     -25.418457      -691.6714 
   2   1.0000     -21.557663      -586.6138 
   3   1.0000     -21.556644      -586.5861 
   4   1.0000     -21.553177      -586.4918 
   5   1.0000      -4.405888      -119.8903 
   6   1.0000      -4.404266      -119.8462 
   7   1.0000      -4.399880      -119.7268 
   8   1.0000      -4.399042      -119.7040 
   9   1.0000      -4.390748      -119.4783 
  10   1.0000      -4.390640      -119.4754 
  11   1.0000      -4.388903      -119.4281 
  12   1.0000      -4.388638      -119.4209 
  13   1.0000      -4.388605      -119.4200 
  14   1.0000      -4.388390      -119.4142 
  15   1.0000      -4.385004      -119.3220 
  16   1.0000      -4.384080      -119.2969 
  17   1.0000      -3.210458       -87.3610 
  18   1.0000      -2.527750       -68.7836 
  19   1.0000      -2.526284       -68.7437 
  20   1.0000      -2.524418       -68.6929 
  21   1.0000      -2.522804       -68.6490 
  22   1.0000      -2.522422       -68.6386 
  23   1.0000      -2.521269       -68.6072 
  24   1.0000      -2.519509       -68.5593 
  25   1.0000      -2.519104       -68.5483 
  26   1.0000      -2.518426       -68.5299 
  27   1.0000      -2.516455       -68.4762 
  28   1.0000      -2.515233       -68.4430 
  29   1.0000      -2.514259       -68.4165 
  30   1.0000      -2.511162       -68.3322 
  31   1.0000      -2.510968       -68.3269 
  32   1.0000      -2.510731       -68.3205 
  33   1.0000      -2.510480       -68.3136 
  34   1.0000      -2.508251       -68.2530 
  35   1.0000      -2.508131       -68.2497 
  36   1.0000      -2.507648       -68.2366 
  37   1.0000      -2.507467       -68.2316 
  38   1.0000      -2.506560       -68.2070 
  39   1.0000      -2.506233       -68.1981 
  40   1.0000      -2.504598       -68.1536 
  41   1.0000      -2.504155       -68.1415 
  42   1.0000      -2.503978       -68.1367 
  43   1.0000      -2.503811       -68.1322 
  44   1.0000      -2.503264       -68.1173 
  45   1.0000      -2.503065       -68.1119 
  46   1.0000      -2.502986       -68.1097 
  47   1.0000      -2.502754       -68.1034 
  48   1.0000      -2.501968       -68.0820 
  49   1.0000      -2.501604       -68.0721 
  50   1.0000      -2.500355       -68.0381 
  51   1.0000      -2.499766       -68.0221 
  52   1.0000      -2.498667       -67.9922 
  53   1.0000      -2.497599       -67.9631 
  54   1.0000      -2.102805       -57.2202 
  55   1.0000      -2.094945       -57.0063 
  56   1.0000      -2.092415       -56.9375 
  57   1.0000      -0.493378       -13.4255 
  58   1.0000      -0.478882       -13.0310 
  59   1.0000      -0.473579       -12.8867 
  60   1.0000      -0.471659       -12.8345 
  61   1.0000      -0.467886       -12.7318 
  62   1.0000      -0.461762       -12.5652 
  63   1.0000      -0.456407       -12.4195 
  64   1.0000      -0.455797       -12.4029 
  65   1.0000      -0.449752       -12.2384 
  66   1.0000      -0.449253       -12.2248 
  67   1.0000      -0.446283       -12.1440 
  68   1.0000      -0.443232       -12.0610 
  69   1.0000      -0.442105       -12.0303 
  70   1.0000      -0.440289       -11.9809 
  71   1.0000      -0.437488       -11.9047 
  72   1.0000      -0.435741       -11.8571 
  73   1.0000      -0.430773       -11.7219 
  74   1.0000      -0.429170       -11.6783 
  75   1.0000      -0.426215       -11.5979 
  76   1.0000      -0.422661       -11.5012 
  77   1.0000      -0.421388       -11.4666 
  78   1.0000      -0.416976       -11.3465 
  79   1.0000      -0.415647       -11.3103 
  80   1.0000      -0.412000       -11.2111 
  81   1.0000      -0.410206       -11.1623 
  82   1.0000      -0.408509       -11.1161 
  83   1.0000      -0.401276       -10.9193 
  84   1.0000      -0.400724       -10.9043 
  85   1.0000      -0.396603       -10.7921 
  86   1.0000      -0.394832       -10.7439 
  87   1.0000      -0.387861       -10.5542 
  88   1.0000      -0.385437       -10.4883 
  89   1.0000      -0.385221       -10.4824 
  90   1.0000      -0.380884       -10.3644 
  91   1.0000      -0.379100       -10.3158 
  92   1.0000      -0.377781       -10.2799 
  93   1.0000      -0.374665       -10.1952 
  94   1.0000      -0.373484       -10.1630 
  95   1.0000      -0.372428       -10.1343 
  96   1.0000      -0.372054       -10.1241 
  97   1.0000      -0.368882       -10.0378 
  98   1.0000      -0.368535       -10.0284 
  99   1.0000      -0.364617        -9.9217 
 100   1.0000      -0.363721        -9.8973 
 101   1.0000      -0.363371        -9.8878 
 102   1.0000      -0.361217        -9.8292 
 103   1.0000      -0.360690        -9.8149 
 104   1.0000      -0.355589        -9.6761 
 105   1.0000      -0.355084        -9.6623 
 106   1.0000      -0.353519        -9.6197 
 107   1.0000      -0.352300        -9.5866 
 108   1.0000      -0.350469        -9.5367 
 109   1.0000      -0.348787        -9.4910 
 110   1.0000      -0.347342        -9.4516 
 111   1.0000      -0.345223        -9.3940 
 112   1.0000      -0.344150        -9.3648 
 113   1.0000      -0.342496        -9.3198 
 114   1.0000      -0.340385        -9.2624 
 115   1.0000      -0.336764        -9.1638 
 116   1.0000      -0.331349        -9.0165 
 117   1.0000      -0.329885        -8.9766 
 118   1.0000      -0.325193        -8.8489 
 119   1.0000      -0.324164        -8.8210 
 120   1.0000      -0.311007        -8.4629 
 121   1.0000      -0.308198        -8.3865 
 122   1.0000      -0.306190        -8.3319 
 123   1.0000      -0.300202        -8.1689 
 124   1.0000      -0.260719        -7.0945 
 125   1.0000      -0.237380        -6.4594 
 126   1.0000      -0.229350        -6.2409 
 127   1.0000      -0.215816        -5.8727 
 128   0.0000      -0.113544        -3.0897 
 129   0.0000      -0.082209        -2.2370 
 130   0.0000      -0.071356        -1.9417 
 131   0.0000      -0.061720        -1.6795 
 132   0.0000      -0.049697        -1.3523 
 133   0.0000      -0.039619        -1.0781 
 134   0.0000      -0.035428        -0.9640 
 135   0.0000      -0.027929        -0.7600 
 136   0.0000      -0.005097        -0.1387 
 137   0.0000       0.002337         0.0636 
 138   0.0000       0.006886         0.1874 
 139   0.0000       0.020851         0.5674 
 140   0.0000       0.030111         0.8194 
 141   0.0000       0.032021         0.8713 
 142   0.0000       0.036348         0.9891 
 143   0.0000       0.047258         1.2860 
 144   0.0000       0.055049         1.4979 
 145   0.0000       0.066576         1.8116 
 146   0.0000       0.067446         1.8353 
 147   0.0000       0.073996         2.0135 
 148   0.0000       0.083128         2.2620 
 149   0.0000       0.088911         2.4194 
 150   0.0000       0.090321         2.4578 
 151   0.0000       0.096619         2.6291 
 152   0.0000       0.100277         2.7287 
 153   0.0000       0.105847         2.8802 
 154   0.0000       0.107260         2.9187 
 155   0.0000       0.110681         3.0118 
 156   0.0000       0.114424         3.1136 
 157   0.0000       0.115191         3.1345 
 158   0.0000       0.120639         3.2827 
 159   0.0000       0.125303         3.4097 
 160   0.0000       0.137109         3.7309 
 161   0.0000       0.139522         3.7966 
 162   0.0000       0.145556         3.9608 
 163   0.0000       0.146451         3.9851 
 164   0.0000       0.154716         4.2100 
 165   0.0000       0.155203         4.2233 
 166   0.0000       0.163355         4.4451 
 167   0.0000       0.168748         4.5919 
 168   0.0000       0.171344         4.6625 
 169   0.0000       0.174873         4.7585 
 170   0.0000       0.180215         4.9039 
 171   0.0000       0.190844         5.1931 
 172   0.0000       0.199589         5.4311 
 173   0.0000       0.201866         5.4930 
 174   0.0000       0.211801         5.7634 
 175   0.0000       0.213839         5.8189 
 176   0.0000       0.221799         6.0355 
 177   0.0000       0.224384         6.1058 
 178   0.0000       0.232972         6.3395 
 179   0.0000       0.267417         7.2768 
 180   0.0000       0.286099         7.7851 
 181   0.0000       0.286745         7.8027 
 182   0.0000       0.298530         8.1234 
 183   0.0000       0.299005         8.1363 
 184   0.0000       0.303539         8.2597 
 185   0.0000       0.307943         8.3796 
 186   0.0000       0.315968         8.5979 
 187   0.0000       0.321962         8.7610 
 188   0.0000       0.326304         8.8792 
 189   0.0000       0.330545         8.9946 
 190   0.0000       0.335105         9.1187 
 191   0.0000       0.341382         9.2895 
 192   0.0000       0.342936         9.3318 
 193   0.0000       0.348604         9.4860 
 194   0.0000       0.348841         9.4924 
 195   0.0000       0.349634         9.5140 
 196   0.0000       0.350772         9.5450 
 197   0.0000       0.359816         9.7911 
 198   0.0000       0.362202         9.8560 
 199   0.0000       0.375289        10.2121 
 200   0.0000       0.386217        10.5095 
 201   0.0000       0.388270        10.5654 
 202   0.0000       0.392872        10.6906 
 203   0.0000       0.393813        10.7162 
 204   0.0000       0.405700        11.0397 
 205   0.0000       0.414690        11.2843 
 206   0.0000       0.421363        11.4659 
 207   0.0000       0.422092        11.4857 
 208   0.0000       0.425487        11.5781 
 209   0.0000       0.430047        11.7022 
 210   0.0000       0.435093        11.8395 
 211   0.0000       0.439316        11.9544 
 212   0.0000       0.440968        11.9993 
 213   0.0000       0.444102        12.0846 
 214   0.0000       0.449816        12.2401 
 215   0.0000       0.451143        12.2762 
 216   0.0000       0.455951        12.4071 
 217   0.0000       0.476857        12.9759 
 218   0.0000       0.479346        13.0437 
 219   0.0000       0.485416        13.2088 
 220   0.0000       0.488964        13.3054 
 221   0.0000       0.497886        13.5482 
 222   0.0000       0.502646        13.6777 
 223   0.0000       0.505273        13.7492 
 224   0.0000       0.508189        13.8285 
 225   0.0000       0.510404        13.8888 
 226   0.0000       0.527394        14.3511 
 227   0.0000       0.531753        14.4697 
 228   0.0000       0.536152        14.5894 
 229   0.0000       0.540305        14.7024 
 230   0.0000       0.548659        14.9298 
 231   0.0000       0.552792        15.0422 
 232   0.0000       0.553662        15.0659 
 233   0.0000       0.560834        15.2611 
 234   0.0000       0.565394        15.3852 
 235   0.0000       0.566352        15.4112 
 236   0.0000       0.572233        15.5712 
 237   0.0000       0.580830        15.8052 
 238   0.0000       0.584859        15.9148 
 239   0.0000       0.589547        16.0424 
 240   0.0000       0.598339        16.2816 
 241   0.0000       0.602026        16.3820 
 242   0.0000       0.602522        16.3955 
 243   0.0000       0.610351        16.6085 
 244   0.0000       0.619018        16.8443 
 245   0.0000       0.619776        16.8650 
 246   0.0000       0.629074        17.1180 
 247   0.0000       0.632388        17.2082 
 248   0.0000       0.650000        17.6874 
 249   0.0000       0.653030        17.7699 
 250   0.0000       0.659745        17.9526 
 251   0.0000       0.664227        18.0745 
 252   0.0000       0.669228        18.2106 
 253   0.0000       0.671222        18.2649 
 254   0.0000       0.678853        18.4725 
 255   0.0000       0.681284        18.5387 
 256   0.0000       0.697654        18.9841 
 257   0.0000       0.775691        21.1076 
 258   0.0000       0.776699        21.1351 
 259   0.0000       0.797285        21.6952 
 260   0.0000       0.817135        22.2354 
 261   0.0000       0.823523        22.4092 
 262   0.0000       0.828438        22.5429 
 263   0.0000       0.836183        22.7537 
 264   0.0000       0.849821        23.1248 
 265   0.0000       0.880657        23.9639 
 266   0.0000       0.889491        24.2043 
 267   0.0000       0.896373        24.3915 
 268   0.0000       0.901667        24.5356 
 269   0.0000       0.923641        25.1336 
 270   0.0000       0.926181        25.2027 
 271   0.0000       0.934674        25.4338 
 272   0.0000       0.953568        25.9479 
 273   0.0000       0.957879        26.0652 
 274   0.0000       0.968233        26.3470 
 275   0.0000       0.981079        26.6965 
 276   0.0000       0.991453        26.9788 
 277   0.0000       1.018742        27.7214 
 278   0.0000       1.030197        28.0331 
 279   0.0000       1.049484        28.5579 
 280   0.0000       1.071221        29.1494 
 281   0.0000       1.077114        29.3098 
 282   0.0000       1.081067        29.4173 
 283   0.0000       1.090999        29.6876 
 284   0.0000       1.096855        29.8469 
 285   0.0000       1.115077        30.3428 
 286   0.0000       1.160279        31.5728 
 287   0.0000       1.177120        32.0311 
 288   0.0000       1.191903        32.4333 
 289   0.0000       1.203817        32.7575 
 290   0.0000       1.267257        34.4838 
 291   0.0000       1.326258        36.0893 
 292   0.0000       1.337607        36.3981 
 293   0.0000       1.376313        37.4514 
 294   0.0000       1.419633        38.6302 
 295   0.0000       1.423342        38.7311 
 296   0.0000       1.433830        39.0165 
 297   0.0000       1.455924        39.6177 
 298   0.0000       1.457802        39.6688 
 299   0.0000       1.471102        40.0307 
 300   0.0000       1.482398        40.3381 
 301   0.0000       1.488290        40.4984 
 302   0.0000       1.493030        40.6274 
 303   0.0000       1.509012        41.0623 
 304   0.0000       1.514954        41.2240 
 305   0.0000       1.518727        41.3267 
 306   0.0000       1.521484        41.4017 
 307   0.0000       1.525870        41.5210 
 308   0.0000       1.544877        42.0382 
 309   0.0000       1.556920        42.3660 
 310   0.0000       1.575106        42.8608 
 311   0.0000       1.577417        42.9237 
 312   0.0000       1.582972        43.0748 
 313   0.0000       1.586470        43.1700 
 314   0.0000       1.591691        43.3121 
 315   0.0000       1.595117        43.4054 
 316   0.0000       1.597140        43.4604 
 317   0.0000       1.606536        43.7161 
 318   0.0000       1.607692        43.7475 
 319   0.0000       1.612510        43.8786 
 320   0.0000       1.614393        43.9299 
 321   0.0000       1.619451        44.0675 
 322   0.0000       1.620901        44.1070 
 323   0.0000       1.621640        44.1271 
 324   0.0000       1.627529        44.2873 
 325   0.0000       1.631594        44.3979 
 326   0.0000       1.633490        44.4495 
 327   0.0000       1.637954        44.5710 
 328   0.0000       1.641932        44.6793 
 329   0.0000       1.642890        44.7053 
 330   0.0000       1.653211        44.9862 
 331   0.0000       1.655258        45.0419 
 332   0.0000       1.656131        45.0656 
 333   0.0000       1.658753        45.1370 
 334   0.0000       1.663080        45.2547 
 335   0.0000       1.669253        45.4227 
 336   0.0000       1.671057        45.4718 
 337   0.0000       1.672080        45.4996 
 338   0.0000       1.673018        45.5251 
 339   0.0000       1.677597        45.6497 
 340   0.0000       1.679553        45.7029 
 341   0.0000       1.680632        45.7323 
 342   0.0000       1.683392        45.8074 
 343   0.0000       1.685675        45.8696 
 344   0.0000       1.687351        45.9151 
 345   0.0000       1.690098        45.9899 
 346   0.0000       1.691874        46.0382 
 347   0.0000       1.694543        46.1109 
 348   0.0000       1.695449        46.1355 
 349   0.0000       1.697507        46.1915 
 350   0.0000       1.698004        46.2050 
 351   0.0000       1.698773        46.2260 
 352   0.0000       1.700993        46.2864 
 353   0.0000       1.703698        46.3600 
 354   0.0000       1.705356        46.4051 
 355   0.0000       1.706537        46.4372 
 356   0.0000       1.708345        46.4864 
 357   0.0000       1.710106        46.5344 
 358   0.0000       1.711801        46.5805 
 359   0.0000       1.717034        46.7229 
 360   0.0000       1.717897        46.7464 
 361   0.0000       1.720369        46.8136 
 362   0.0000       1.720659        46.8215 
 363   0.0000       1.723379        46.8955 
 364   0.0000       1.723885        46.9093 
 365   0.0000       1.725540        46.9543 
 366   0.0000       1.726246        46.9736 
 367   0.0000       1.727258        47.0011 
 368   0.0000       1.730725        47.0954 
 369   0.0000       1.732453        47.1425 
 370   0.0000       1.734244        47.1912 
 371   0.0000       1.734962        47.2107 
 372   0.0000       1.736441        47.2510 
 373   0.0000       1.740752        47.3683 
 374   0.0000       1.742453        47.4146 
 375   0.0000       1.743847        47.4525 
 376   0.0000       1.745745        47.5041 
 377   0.0000       1.746865        47.5346 
 378   0.0000       1.749089        47.5951 
 379   0.0000       1.752749        47.6947 
 380   0.0000       1.753915        47.7264 
 381   0.0000       1.756920        47.8082 
 382   0.0000       1.760686        47.9107 
 383   0.0000       1.763163        47.9781 
 384   0.0000       1.764275        48.0084 
 385   0.0000       1.765694        48.0470 
 386   0.0000       1.767763        48.1033 
 387   0.0000       1.770541        48.1789 
 388   0.0000       1.772232        48.2249 
 389   0.0000       1.774609        48.2896 
 390   0.0000       1.775178        48.3051 
 391   0.0000       1.783552        48.5329 
 392   0.0000       1.786259        48.6066 
 393   0.0000       1.788149        48.6580 
 394   0.0000       1.792283        48.7705 
 395   0.0000       1.797831        48.9215 
 396   0.0000       1.802409        49.0460 
 397   0.0000       1.804898        49.1138 
 398   0.0000       1.808831        49.2208 
 399   0.0000       1.811068        49.2817 
 400   0.0000       1.814453        49.3738 
 401   0.0000       1.816332        49.4249 
 402   0.0000       1.821881        49.5759 
 403   0.0000       1.826082        49.6902 
 404   0.0000       1.826828        49.7105 
 405   0.0000       1.828542        49.7572 
 406   0.0000       1.833913        49.9033 
 407   0.0000       1.840278        50.0765 
 408   0.0000       1.845232        50.2113 
 409   0.0000       1.847953        50.2854 
 410   0.0000       1.862614        50.6843 
 411   0.0000       1.869398        50.8689 
 412   0.0000       1.874908        51.0188 
 413   0.0000       1.883323        51.2478 
 414   0.0000       1.892756        51.5045 
 415   0.0000       1.912240        52.0347 
 416   0.0000       1.924465        52.3674 
 417   0.0000       1.932805        52.5943 
 418   0.0000       1.941055        52.8188 
 419   0.0000       1.952524        53.1309 
 420   0.0000       1.959432        53.3188 
 421   0.0000       1.970917        53.6314 
 422   0.0000       1.975777        53.7636 
 423   0.0000       1.980519        53.8927 
 424   0.0000       1.993229        54.2385 
 425   0.0000       1.995719        54.3063 
 426   0.0000       2.003489        54.5177 
 427   0.0000       2.024051        55.0772 
 428   0.0000       2.030662        55.2571 
 429   0.0000       2.033282        55.3284 
 430   0.0000       2.051724        55.8302 
 431   0.0000       2.057754        55.9943 
 432   0.0000       2.091687        56.9177 
 433   0.0000       2.104366        57.2627 
 434   0.0000       2.158332        58.7312 
 435   0.0000       2.160045        58.7778 
 436   0.0000       2.190772        59.6139 
 437   0.0000       2.258428        61.4550 
 438   0.0000       2.387787        64.9750 
 439   0.0000       2.446293        66.5670 
 440   0.0000       2.489511        67.7430 
 441   0.0000       2.491620        67.8004 
 442   0.0000       2.550739        69.4091 
 443   0.0000       2.589406        70.4613 
 444   0.0000       2.601151        70.7809 
 445   0.0000       2.624959        71.4288 
 446   0.0000       2.633103        71.6504 
 447   0.0000       2.652214        72.1704 
 448   0.0000       2.654577        72.2347 
 449   0.0000       2.689777        73.1926 
 450   0.0000       2.705240        73.6133 
 451   0.0000       2.739788        74.5534 
 452   0.0000       2.757207        75.0274 
 453   0.0000       2.772841        75.4528 
 454   0.0000       2.845607        77.4329 
 455   0.0000       2.859728        77.8172 
 456   0.0000       2.864718        77.9529 
 457   0.0000       3.053246        83.0830 
 458   0.0000       3.069595        83.5279 
 459   0.0000       3.083173        83.8974 
 460   0.0000       3.086837        83.9971 
 461   0.0000       3.102040        84.4108 
 462   0.0000       3.137075        85.3641 
 463   0.0000       3.140722        85.4634 
 464   0.0000       3.180790        86.5537 
 465   0.0000      24.064986       654.8416 
 466   0.0000      24.141318       656.9187 
 467   0.0000      24.317557       661.7144 
 468   0.0000      24.467098       665.7836 
 469   0.0000      24.699752       672.1144 
 470   0.0000      24.802839       674.9196 
 471   0.0000      24.882784       677.0950 
 472   0.0000      24.955912       679.0849 
 473   0.0000      25.117630       683.4855 
 474   0.0000      25.324326       689.1099 
 475   0.0000      25.456685       692.7116 
 476   0.0000      25.476231       693.2435 
 477   0.0000      25.713525       699.7006 
 478   0.0000      25.720885       699.9009 
 479   0.0000      25.956268       706.3060 
 480   0.0000      25.995704       707.3791 
 481   0.0000      26.120119       710.7646 
 482   0.0000      26.325538       716.3543 
 483   0.0000      26.442270       719.5307 
 484   0.0000      26.589105       723.5263 
 485   0.0000      26.797098       729.1861 
 486   0.0000      26.806955       729.4543 
 487   0.0000      26.986524       734.3406 
 488   0.0000      27.081669       736.9297 
 489   0.0000      27.207030       740.3409 
 490   0.0000      27.280891       742.3508 
 491   0.0000      27.430855       746.4315 
 492   0.0000      27.668383       752.8950 
 493   0.0000      27.909573       759.4581 
 494   0.0000      28.098908       764.6101 
 495   0.0000      28.209298       767.6140 
 496   0.0000      28.819136       784.2086 
 497   0.0000      28.937643       787.4333 
 498   0.0000      29.032947       790.0267 
 499   0.0000      29.216818       795.0300 
 500   0.0000      30.907813       841.0444 
 501   0.0000      44.117833      1200.5073 
 502   0.0000      44.194562      1202.5952 
 503   0.0000      44.222635      1203.3591 
 504   0.0000      44.243952      1203.9391 
 505   0.0000      44.297634      1205.3999 
 506   0.0000      44.323955      1206.1161 
 507   0.0000      44.326112      1206.1748 
 508   0.0000      44.346830      1206.7386 
 509   0.0000      44.359460      1207.0823 
 510   0.0000      44.363300      1207.1868 
 511   0.0000      44.407369      1208.3860 
 512   0.0000      44.484679      1210.4897 
 513   0.0000     202.679535      5515.1905 
 514   0.0000     202.710048      5516.0208 
 515   0.0000     202.722294      5516.3541 
 516   0.0000     202.731114      5516.5941 
 517   0.0000     202.755240      5517.2506 
 518   0.0000     202.764973      5517.5154 
 519   0.0000     202.766601      5517.5597 
 520   0.0000     202.773838      5517.7566 
 521   0.0000     202.778301      5517.8781 
 522   0.0000     202.781349      5517.9610 
 523   0.0000     202.799262      5518.4485 
 524   0.0000     202.820284      5519.0205 

                 SPIN DOWN ORBITALS
  NO   OCC          E(Eh)            E(eV) 
   0   1.0000    -217.731403     -5924.7727 
   1   1.0000     -25.347621      -689.7438 
   2   1.0000     -21.496099      -584.9386 
   3   1.0000     -21.494315      -584.8900 
   4   1.0000     -21.480878      -584.5244 
   5   1.0000      -4.404375      -119.8491 
   6   1.0000      -4.402780      -119.8057 
   7   1.0000      -4.398626      -119.6927 
   8   1.0000      -4.397806      -119.6704 
   9   1.0000      -4.389781      -119.4520 
  10   1.0000      -4.389650      -119.4484 
  11   1.0000      -4.388102      -119.4063 
  12   1.0000      -4.387903      -119.4009 
  13   1.0000      -4.387755      -119.3969 
  14   1.0000      -4.387487      -119.3896 
  15   1.0000      -4.383788      -119.2889 
  16   1.0000      -4.382931      -119.2656 
  17   1.0000      -2.991449       -81.4015 
  18   1.0000      -2.525502       -68.7224 
  19   1.0000      -2.524030       -68.6823 
  20   1.0000      -2.522216       -68.6330 
  21   1.0000      -2.520971       -68.5991 
  22   1.0000      -2.520393       -68.5834 
  23   1.0000      -2.519942       -68.5711 
  24   1.0000      -2.518321       -68.5270 
  25   1.0000      -2.517155       -68.4953 
  26   1.0000      -2.516680       -68.4824 
  27   1.0000      -2.515266       -68.4439 
  28   1.0000      -2.513900       -68.4067 
  29   1.0000      -2.513033       -68.3831 
  30   1.0000      -2.509630       -68.2905 
  31   1.0000      -2.509504       -68.2871 
  32   1.0000      -2.509173       -68.2781 
  33   1.0000      -2.508925       -68.2713 
  34   1.0000      -2.506691       -68.2105 
  35   1.0000      -2.506516       -68.2058 
  36   1.0000      -2.506130       -68.1953 
  37   1.0000      -2.506071       -68.1937 
  38   1.0000      -2.505239       -68.1710 
  39   1.0000      -2.504847       -68.1603 
  40   1.0000      -2.503908       -68.1348 
  41   1.0000      -2.503658       -68.1280 
  42   1.0000      -2.503472       -68.1229 
  43   1.0000      -2.502769       -68.1038 
  44   1.0000      -2.501986       -68.0825 
  45   1.0000      -2.501899       -68.0801 
  46   1.0000      -2.501622       -68.0726 
  47   1.0000      -2.501090       -68.0581 
  48   1.0000      -2.500771       -68.0495 
  49   1.0000      -2.500486       -68.0417 
  50   1.0000      -2.499060       -68.0029 
  51   1.0000      -2.498456       -67.9865 
  52   1.0000      -2.496952       -67.9455 
  53   1.0000      -2.495933       -67.9178 
  54   1.0000      -1.856637       -50.5217 
  55   1.0000      -1.853042       -50.4238 
  56   1.0000      -1.824512       -49.6475 
  57   1.0000      -0.482371       -13.1260 
  58   1.0000      -0.473620       -12.8878 
  59   1.0000      -0.466203       -12.6860 
  60   1.0000      -0.461150       -12.5485 
  61   1.0000      -0.458371       -12.4729 
  62   1.0000      -0.455809       -12.4032 
  63   1.0000      -0.451849       -12.2954 
  64   1.0000      -0.450487       -12.2584 
  65   1.0000      -0.444578       -12.0976 
  66   1.0000      -0.442185       -12.0325 
  67   1.0000      -0.441797       -12.0219 
  68   1.0000      -0.441292       -12.0082 
  69   1.0000      -0.438377       -11.9288 
  70   1.0000      -0.436146       -11.8681 
  71   1.0000      -0.433695       -11.8014 
  72   1.0000      -0.428346       -11.6559 
  73   1.0000      -0.427590       -11.6353 
  74   1.0000      -0.426104       -11.5949 
  75   1.0000      -0.420652       -11.4465 
  76   1.0000      -0.419553       -11.4166 
  77   1.0000      -0.414897       -11.2899 
  78   1.0000      -0.414385       -11.2760 
  79   1.0000      -0.410604       -11.1731 
  80   1.0000      -0.409712       -11.1488 
  81   1.0000      -0.406675       -11.0662 
  82   1.0000      -0.404423       -11.0049 
  83   1.0000      -0.397627       -10.8200 
  84   1.0000      -0.397317       -10.8115 
  85   1.0000      -0.391718       -10.6592 
  86   1.0000      -0.384991       -10.4761 
  87   1.0000      -0.382997       -10.4219 
  88   1.0000      -0.380441       -10.3523 
  89   1.0000      -0.379334       -10.3222 
  90   1.0000      -0.378368       -10.2959 
  91   1.0000      -0.377234       -10.2651 
  92   1.0000      -0.375747       -10.2246 
  93   1.0000      -0.373276       -10.1573 
  94   1.0000      -0.370841       -10.0911 
  95   1.0000      -0.370412       -10.0794 
  96   1.0000      -0.369055       -10.0425 
  97   1.0000      -0.366877        -9.9832 
  98   1.0000      -0.366810        -9.9814 
  99   1.0000      -0.363521        -9.8919 
 100   1.0000      -0.362892        -9.8748 
 101   1.0000      -0.361629        -9.8404 
 102   1.0000      -0.359384        -9.7793 
 103   1.0000      -0.357509        -9.7283 
 104   1.0000      -0.353613        -9.6223 
 105   1.0000      -0.352839        -9.6012 
 106   1.0000      -0.351374        -9.5614 
 107   1.0000      -0.348881        -9.4935 
 108   1.0000      -0.348475        -9.4825 
 109   1.0000      -0.345834        -9.4106 
 110   1.0000      -0.344096        -9.3633 
 111   1.0000      -0.340937        -9.2774 
 112   1.0000      -0.339522        -9.2389 
 113   1.0000      -0.336424        -9.1546 
 114   1.0000      -0.331986        -9.0338 
 115   1.0000      -0.327625        -8.9151 
 116   1.0000      -0.326317        -8.8795 
 117   1.0000      -0.322852        -8.7853 
 118   1.0000      -0.319737        -8.7005 
 119   1.0000      -0.305025        -8.3002 
 120   1.0000      -0.261482        -7.1153 
 121   1.0000      -0.238596        -6.4925 
 122   1.0000      -0.224013        -6.0957 
 123   1.0000      -0.211162        -5.7460 
 124   0.0000      -0.125917        -3.4264 
 125   0.0000      -0.084784        -2.3071 
 126   0.0000      -0.064884        -1.7656 
 127   0.0000      -0.051322        -1.3965 
 128   0.0000      -0.042509        -1.1567 
 129   0.0000      -0.038961        -1.0602 
 130   0.0000      -0.034018        -0.9257 
 131   0.0000      -0.005954        -0.1620 
 132   0.0000       0.002887         0.0786 
 133   0.0000       0.005220         0.1420 
 134   0.0000       0.020258         0.5512 
 135   0.0000       0.022281         0.6063 
 136   0.0000       0.025975         0.7068 
 137   0.0000       0.031269         0.8509 
 138   0.0000       0.033994         0.9250 
 139   0.0000       0.039037         1.0623 
 140   0.0000       0.045812         1.2466 
 141   0.0000       0.046735         1.2717 
 142   0.0000       0.071828         1.9545 
 143   0.0000       0.072743         1.9794 
 144   0.0000       0.079277         2.1572 
 145   0.0000       0.087989         2.3943 
 146   0.0000       0.093376         2.5409 
 147   0.0000       0.096503         2.6260 
 148   0.0000       0.099298         2.7020 
 149   0.0000       0.100588         2.7371 
 150   0.0000       0.101681         2.7669 
 151   0.0000       0.107570         2.9271 
 152   0.0000       0.108586         2.9548 
 153   0.0000       0.114317         3.1107 
 154   0.0000       0.115878         3.1532 
 155   0.0000       0.118625         3.2280 
 156   0.0000       0.124090         3.3767 
 157   0.0000       0.125650         3.4191 
 158   0.0000       0.132482         3.6050 
 159   0.0000       0.134365         3.6563 
 160   0.0000       0.141974         3.8633 
 161   0.0000       0.143187         3.8963 
 162   0.0000       0.146551         3.9879 
 163   0.0000       0.147337         4.0093 
 164   0.0000       0.159289         4.3345 
 165   0.0000       0.160922         4.3789 
 166   0.0000       0.169046         4.6000 
 167   0.0000       0.174133         4.7384 
 168   0.0000       0.175277         4.7695 
 169   0.0000       0.177276         4.8239 
 170   0.0000       0.186822         5.0837 
 171   0.0000       0.205041         5.5794 
 172   0.0000       0.212403         5.7798 
 173   0.0000       0.213482         5.8092 
 174   0.0000       0.218444         5.9442 
 175   0.0000       0.223194         6.0734 
 176   0.0000       0.230806         6.2805 
 177   0.0000       0.232709         6.3323 
 178   0.0000       0.235686         6.4133 
 179   0.0000       0.275501         7.4968 
 180   0.0000       0.288483         7.8500 
 181   0.0000       0.295407         8.0384 
 182   0.0000       0.304903         8.2968 
 183   0.0000       0.311784         8.4841 
 184   0.0000       0.318559         8.6684 
 185   0.0000       0.319772         8.7014 
 186   0.0000       0.322977         8.7887 
 187   0.0000       0.327720         8.9177 
 188   0.0000       0.328216         8.9312 
 189   0.0000       0.332163         9.0386 
 190   0.0000       0.336790         9.1645 
 191   0.0000       0.342599         9.3226 
 192   0.0000       0.344854         9.3839 
 193   0.0000       0.348602         9.4860 
 194   0.0000       0.350024         9.5246 
 195   0.0000       0.352082         9.5806 
 196   0.0000       0.359238         9.7754 
 197   0.0000       0.361000         9.8233 
 198   0.0000       0.363269         9.8851 
 199   0.0000       0.376477        10.2445 
 200   0.0000       0.387255        10.5377 
 201   0.0000       0.388340        10.5673 
 202   0.0000       0.392789        10.6883 
 203   0.0000       0.394991        10.7482 
 204   0.0000       0.406477        11.0608 
 205   0.0000       0.416296        11.3280 
 206   0.0000       0.422008        11.4834 
 207   0.0000       0.422338        11.4924 
 208   0.0000       0.425573        11.5804 
[...]
      dxz     :    -0.001189
      dyz     :    -0.002403
      dx2y2   :     0.000332
      dxy     :    -0.006510
      f0      :    -0.000016  f :    -0.000034
      f+1     :     0.000002
      f-1     :     0.000004
      f+2     :     0.000004
      f-2     :     0.000000
      f+3     :    -0.000007
      f-3     :    -0.000022
  1 Aus       :    -0.004427  s :    -0.004427
      pz      :    -0.008127  p :    -0.025230
      px      :    -0.024763
      py      :     0.007660
      dz2     :    -0.007775  d :    -0.009149
      dxz     :    -0.000917
      dyz     :     0.003011
      dx2y2   :    -0.001988
      dxy     :    -0.001479
      f0      :    -0.000035  f :    -0.000036
      f+1     :    -0.000003
      f-1     :     0.000008
      f+2     :     0.000005
      f-2     :     0.000002
      f+3     :    -0.000003
      f-3     :    -0.000009
  2 Aus       :    -0.069731  s :    -0.069731
      pz      :    -0.012158  p :    -0.080751
      px      :    -0.021595
      py      :    -0.046998
      dz2     :     0.000569  d :     0.002446
      dxz     :     0.004974
      dyz     :     0.001273
      dx2y2   :    -0.005534
      dxy     :     0.001165
      f0      :     0.000049  f :     0.000428
      f+1     :     0.000157
      f-1     :     0.000123
      f+2     :     0.000049
      f-2     :     0.000079
      f+3     :    -0.000019
      f-3     :    -0.000009
  3 Aus       :    -0.068777  s :    -0.068777
      pz      :    -0.019577  p :    -0.047024
      px      :    -0.031340
      py      :     0.003894
      dz2     :    -0.008501  d :    -0.012378
      dxz     :    -0.000523
      dyz     :    -0.000312
      dx2y2   :    -0.000765
      dxy     :    -0.002276
      f0      :     0.000015  f :     0.000300
      f+1     :     0.000013
      f-1     :     0.000034
      f+2     :     0.000057
      f-2     :     0.000049
      f+3     :     0.000071
      f-3     :     0.000061
  4 Aus       :    -0.089019  s :    -0.089019
      pz      :    -0.007768  p :    -0.015883
      px      :    -0.007994
      py      :    -0.000120
      dz2     :     0.004597  d :     0.008273
      dxz     :     0.000380
      dyz     :     0.005762
      dx2y2   :    -0.002087
      dxy     :    -0.000380
      f0      :     0.000006  f :     0.000307
      f+1     :     0.000011
      f-1     :     0.000128
      f+2     :     0.000062
      f-2     :     0.000094
      f+3     :    -0.000005
      f-3     :     0.000010
  5 Aus       :    -0.060681  s :    -0.060681
      pz      :    -0.000035  p :    -0.055191
      px      :    -0.017135
      py      :    -0.038021
      dz2     :     0.005046  d :    -0.011638
      dxz     :    -0.001770
      dyz     :    -0.002976
      dx2y2   :    -0.007936
      dxy     :    -0.004002
      f0      :     0.000046  f :     0.000185
      f+1     :     0.000085
      f-1     :    -0.000015
      f+2     :     0.000068
      f-2     :     0.000023
      f+3     :    -0.000001
      f-3     :    -0.000021
  6 Aus       :    -0.108777  s :    -0.108777
      pz      :    -0.012702  p :    -0.025374
      px      :    -0.015051
      py      :     0.002380
      dz2     :     0.005613  d :     0.008907
      dxz     :    -0.004970
      dyz     :     0.009086
      dx2y2   :     0.000645
      dxy     :    -0.001466
      f0      :     0.000027  f :     0.000330
      f+1     :    -0.000022
      f-1     :     0.000134
      f+2     :     0.000108
      f-2     :     0.000050
      f+3     :     0.000010
      f-3     :     0.000022
  7 Aus       :    -0.071036  s :    -0.071036
      pz      :    -0.008052  p :    -0.079042
      px      :    -0.020538
      py      :    -0.050452
      dz2     :     0.002294  d :     0.003000
      dxz     :     0.005596
      dyz     :     0.002619
      dx2y2   :    -0.009489
      dxy     :     0.001980
      f0      :     0.000057  f :     0.000442
      f+1     :     0.000168
      f-1     :     0.000135
      f+2     :     0.000048
      f-2     :     0.000066
      f+3     :    -0.000021
      f-3     :    -0.000010
  8 Aus       :    -0.071762  s :    -0.071762
      pz      :    -0.002920  p :    -0.048789
      px      :    -0.023481
      py      :    -0.022389
      dz2     :     0.005260  d :    -0.012355
      dxz     :    -0.000992
      dyz     :    -0.003588
      dx2y2   :    -0.009539
      dxy     :    -0.003495
      f0      :     0.000070  f :     0.000300
      f+1     :     0.000136
      f-1     :    -0.000023
      f+2     :     0.000086
      f-2     :     0.000025
      f+3     :     0.000011
      f-3     :    -0.000005
  9 Aus       :    -0.089017  s :    -0.089017
      pz      :    -0.021522  p :    -0.018218
      px      :    -0.008538
      py      :     0.011841
      dz2     :     0.001944  d :     0.009013
      dxz     :    -0.004399
      dyz     :     0.000918
      dx2y2   :     0.004168
      dxy     :     0.006382
      f0      :    -0.000003  f :     0.000308
      f+1     :     0.000038
      f-1     :     0.000078
      f+2     :    -0.000038
      f-2     :     0.000030
      f+3     :     0.000141
      f-3     :     0.000062
 10 Aus       :    -0.059214  s :    -0.059214
      pz      :    -0.020703  p :    -0.057237
      px      :    -0.024674
      py      :    -0.011861
      dz2     :    -0.006957  d :    -0.012488
      dxz     :    -0.002580
      dyz     :     0.000808
      dx2y2   :    -0.001066
      dxy     :    -0.002693
      f0      :     0.000021  f :     0.000170
      f+1     :    -0.000001
      f-1     :     0.000025
      f+2     :     0.000028
      f-2     :     0.000016
      f+3     :     0.000041
      f-3     :     0.000040
 11 Aus       :    -0.111912  s :    -0.111912
      pz      :    -0.015378  p :    -0.027475
      px      :    -0.015541
      py      :     0.003445
      dz2     :     0.002881  d :     0.008924
      dxz     :    -0.006431
      dyz     :     0.000752
      dx2y2   :     0.005881
      dxy     :     0.005842
      f0      :     0.000017  f :     0.000340
      f+1     :     0.000023
      f-1     :     0.000087
      f+2     :    -0.000026
      f-2     :     0.000002
      f+3     :     0.000172
      f-3     :     0.000064
 12 Crs       :     0.022128  s :     0.022128
      pz      :     0.018273  p :     0.057652
      px      :     0.021260
      py      :     0.018119
      dz2     :     0.592887  d :     3.260935
      dxz     :     0.602795
      dyz     :     0.711042
      dx2y2   :     0.735263
      dxy     :     0.618948
      f0      :     0.000018  f :     0.000099
      f+1     :    -0.000005
      f-1     :     0.000035
      f+2     :     0.000027
      f-2     :     0.000013
      f+3     :     0.000003
      f-3     :     0.000007


                      *****************************
                      * MAYER POPULATION ANALYSIS *
                      *****************************

  NA   - Mulliken gross atomic population
  ZA   - Total nuclear charge
  QA   - Mulliken gross atomic charge
  VA   - Mayer's total valence
  BVA  - Mayer's bonded valence
  FA   - Mayer's free valence

  ATOM       NA         ZA         QA         VA         BVA        FA
  0 Au    18.6819    19.0000     0.3181     1.2374     1.2343     0.0031
  1 Au    18.6890    19.0000     0.3110     1.2430     1.2396     0.0033
  2 Au    18.5797    19.0000     0.4203     1.4300     1.4122     0.0178
  3 Au    18.6107    19.0000     0.3893     1.5134     1.4890     0.0244
  4 Au    18.8935    19.0000     0.1065     1.9120     1.8746     0.0374
  5 Au    18.7855    19.0000     0.2145     1.8267     1.8019     0.0247
  6 Au    18.5417    19.0000     0.4583     1.3831     1.3428     0.0403
  7 Au    18.5826    19.0000     0.4174     1.4338     1.4155     0.0183
  8 Au    18.6056    19.0000     0.3944     1.5122     1.4859     0.0263
  9 Au    18.8940    19.0000     0.1060     1.9013     1.8633     0.0380
 10 Au    18.7930    19.0000     0.2070     1.8317     1.8073     0.0244
 11 Au    18.5518    19.0000     0.4482     1.3864     1.3433     0.0431
 12 Cr    27.7909    24.0000    -3.7909     9.8991     6.2399     3.6592

  Mayer bond orders larger than 0.100000
B(  0-Au,  4-Au) :   0.3011 B(  0-Au,  9-Au) :   0.1792 B(  0-Au, 10-Au) :   0.2648 
B(  0-Au, 12-Cr) :   0.3747 B(  1-Au,  4-Au) :   0.1827 B(  1-Au,  5-Au) :   0.2667 
B(  1-Au,  9-Au) :   0.3008 B(  1-Au, 12-Cr) :   0.3717 B(  2-Au,  4-Au) :   0.3688 
B(  2-Au, 11-Au) :   0.2217 B(  2-Au, 12-Cr) :   0.5579 B(  3-Au,  5-Au) :   0.3854 
B(  3-Au,  6-Au) :   0.1960 B(  3-Au, 12-Cr) :   0.5887 B(  4-Au, 10-Au) :   0.1784 
B(  4-Au, 12-Cr) :   0.5066 B(  5-Au,  9-Au) :   0.1760 B(  5-Au, 12-Cr) :   0.6364 
B(  6-Au,  7-Au) :   0.2136 B(  6-Au, 11-Au) :   0.1536 B(  6-Au, 12-Cr) :   0.4562 
B(  7-Au,  9-Au) :   0.3724 B(  7-Au, 12-Cr) :   0.5624 B(  8-Au, 10-Au) :   0.3855 
B(  8-Au, 11-Au) :   0.1923 B(  8-Au, 12-Cr) :   0.5766 B(  9-Au, 12-Cr) :   0.5018 
B( 10-Au, 12-Cr) :   0.6467 B( 11-Au, 12-Cr) :   0.4603 

-------
TIMINGS
-------

Total SCF time: 0 days 2 hours 15 min 1 sec 

Total time                  ....    8101.530 sec
Sum of individual times     ....    7907.373 sec  ( 97.6%)

Fock matrix formation       ....    5859.639 sec  ( 72.3%)
  Split-RI-J                ....     682.579 sec  ( 11.6% of F)
  Chain of spheres X        ....    4082.539 sec  ( 69.7% of F)
  XC integration            ....     647.560 sec  ( 11.1% of F)
    Basis function eval.    ....      73.592 sec  ( 11.4% of XC)
    Density eval.           ....     233.898 sec  ( 36.1% of XC)
    XC-Functional eval.     ....      11.350 sec  (  1.8% of XC)
    XC-Potential eval.      ....     195.742 sec  ( 30.2% of XC)
Diagonalization             ....     656.915 sec  (  8.1%)
Density matrix formation    ....      99.324 sec  (  1.2%)
Population analysis         ....       2.571 sec  (  0.0%)
Initial guess               ....       0.507 sec  (  0.0%)
Orbital Transformation      ....     375.455 sec  (  4.6%)
Orbital Orthonormalization  ....       0.299 sec  (  0.0%)
DIIS solution               ....     899.044 sec  ( 11.1%)
Grid generation             ....      10.587 sec  (  0.1%)

Maximum memory used throughout the entire SCF-calculation: 127.9 MB


           ************************************************************
           *        Program running with 6 parallel MPI-processes     *
           *              working on a common directory               *
           ************************************************************

------------------------------------------------------------------------------
                                ORCA  MP2 
------------------------------------------------------------------------------

Freezing NCore=10 chemical core electrons

   <<< Use J-auxbasis for calculation of Separable RI-J derivative contributions (Dim=1157) >>> 


-------------
RI-MP2 ENERGY
-------------
Dimension of the basis                    ...  525
Memory devoted to MP2                     ...  256 MB   
Data format for buffers                   ... DOUBLE
Compression type for matrix containers    ... UNCOMPRESSED
Overall scaling of the MP2 energy         ...   2.700e-01
Calculating two index integrals           ... done (    0.108 sec)
Cholesky decomposition of V**-1           ... done (   22.952 sec)

-----------------
RI-TRANSFORMATION (AUX index driven)
-----------------

Dimension of the orbital-basis         ... 525
Dimension of the aux-basis             ... 1994
Transformation of internal/external MOs...    5- 126 to  127- 524
Number Format for Storage              ... Double (8 Byte)
Integral mode                          ... Direct

First Phase: integral generation and transformation of MO indices
  Aux angular momentum 0               ... done (    0.281 sec)
  Aux angular momentum 1               ... done (    0.730 sec)
  Aux angular momentum 2               ... done (    1.024 sec)
  Aux angular momentum 3               ... done (    0.888 sec)
  Aux angular momentum 4               ... done (    0.783 sec)
  Aux angular momentum 5               ... done (    0.947 sec)
Closing buffer VIA ( 0.72 GB; CompressionRatio= 1.00)
  Phase 1 completed in     5.016 sec
Second Phase: sorting and transformation of aux index

IA-Transformation
Memory available                       ... 176 MB 
Max. # MO pairs treated in a batch     ... 21    
# of internal orbitals                 ... 122
# batches for internal orbitals        ... 1
Closing buffer IAV ( 0.72 GB; CompressionRatio= 1.00)
(ia|v) transformation done in     3.900 sec

  Phase 2 completed in     4.097 sec
RI-Integral transformation completed in     9.192 sec

-----------------
RI-TRANSFORMATION (AUX index driven)
-----------------

Dimension of the orbital-basis         ... 525
Dimension of the aux-basis             ... 1994
Transformation of internal/external MOs...    5- 124 to  125- 524
Number Format for Storage              ... Double (8 Byte)
Integral mode                          ... Direct

First Phase: integral generation and transformation of MO indices
  Aux angular momentum 0               ... done (    0.170 sec)
  Aux angular momentum 1               ... done (    0.436 sec)
  Aux angular momentum 2               ... done (    0.930 sec)
  Aux angular momentum 3               ... done (    0.945 sec)
  Aux angular momentum 4               ... done (    0.720 sec)
  Aux angular momentum 5               ... done (    0.818 sec)
Closing buffer VIA ( 0.71 GB; CompressionRatio= 1.00)
  Phase 1 completed in     4.604 sec
Second Phase: sorting and transformation of aux index

IA-Transformation
Memory available                       ... 176 MB 
Max. # MO pairs treated in a batch     ... 20    
# of internal orbitals                 ... 120
# batches for internal orbitals        ... 1
Closing buffer IAV ( 0.71 GB; CompressionRatio= 1.00)
(ia|v) transformation done in     4.043 sec

  Phase 2 completed in     4.274 sec
RI-Integral transformation completed in     8.912 sec
Opening buffers                              ... done

Starting loop over batches of integrals:

Operator 0  - window                       ... (  5-126)x(127-524)
Operator 0  - Memory available             ...   256 MB
Operator 0  - Memory needed per MO         ...   6.1 MB
Operator 0  - Number of orbitals per batch ... 21
Operator 0  - Number of batches            ... 1

OPERATOR  0   PASS   0:  MOs     5 ...   25 +   26 ...   46 +   47 ...   67 +   68 ...   88
                            +   89 ...  109 +  110 ...  126
  Reading integrals       ... ok
  Internal MO   7
  Internal MO  10
  Internal MO  13
  Internal MO  16
  Internal MO  19
  Internal MO  22
  Internal MO  25

Operator 1  - window                       ... (  5-124)x(125-524)
Operator 1  - Memory available             ...   256 MB
Operator 1  - Memory needed per MO         ...   6.1 MB
Operator 1  - Number of orbitals per batch ... 20
Operator 1  - Number of batches            ... 1

OPERATOR  1   PASS   0:  MOs     5 ...   24 +   25 ...   44 +   45 ...   64 +   65 ...   84
                            +   85 ...  104 +  105 ...  124
  Reading integrals       ... ok
  Internal MO   7
  Internal MO  10
  Internal MO  13
  Internal MO  16
  Internal MO  19
  Internal MO  22
Time spent in pair loops =   252.392 sec
Deleting buffer (Ka|jb)[aa] ...done
Deleting buffer (Ka|jb)[ba] ...done
Deleting buffer (Ka|jb)[ab] ...done
Deleting buffer (Ka|jb)[bb] ...done

Correlation energy components}
 E2 and T2 for alpha/alpha pairs :     -0.366474989 Eh      0.000000000
 E2 and T2 for beta/beta   pairs :     -0.355292923 Eh      0.000000000
 E2 and T2 for alpha/beta  pairs :     -1.225138318 Eh      0.000000000


-----------------------------------------------
 RI-MP2 CORRELATION ENERGY:     -1.946906230 Eh
-----------------------------------------------


-------
TIMINGS
-------

Total time                :  360.648 sec
Integral trafo            :   18.124 sec (  5.0%)
I/O of integrals          :    0.258 sec (  0.1%)
K(i,j) Operators          :  174.377 sec ( 48.4%)
T(i,j) pair energies      :    4.302 sec (  1.2%)
V-calculation             :    0.108 sec (  0.0%)
V**(-1/2)                 :   22.952 sec (  6.4%)
Gamma(ia|P)               :    0.000 sec (  0.0%)
Gamma-Trafo               :    0.000 sec (  0.0%)
D(virtual)                :    0.000 sec (  0.0%)
D(internal)               :    0.000 sec (  0.0%)
W(virtual)                :    0.000 sec (  0.0%)
W(internal)               :    0.000 sec (  0.0%)
L(virtual)                :    0.000 sec (  0.0%)
L(internal)               :    0.000 sec (  0.0%)
G(D)                      :    0.000 sec (  0.0%)
G(Z)                      :    0.000 sec (  0.0%)
Z-Vector Solution         :    0.000 sec (  0.0%)
3-Index Derivative        :    0.000 sec (  0.0%)
2-Index Derivative        :    0.000 sec (  0.0%)
Separable Gradient (RIJ)  :    0.000 sec (  0.0%)
Separable Gradient (COSX) :    0.000 sec (  0.0%)


---------------------------------------
MP2 TOTAL ENERGY:    -2671.292841906 Eh
---------------------------------------

Maximum memory used throughout the entire MP2-calculation: 257.7 MB

-------------------------   --------------------
FINAL SINGLE POINT ENERGY     -2671.292841905532
-------------------------   --------------------


                            ***************************************
                            *     ORCA property calculations      *
                            ***************************************


  WARNING: The energy has been calculated at the MP2 level but the densities
           used in the property calculations are still SCF densities
           MP2 response densities have not been calculated 
           use %mp2 Density relaxed end
           or  %mp2 Density unrelaxed end

                                    ---------------------
                                    Active property flags
                                    ---------------------
   (+) Dipole Moment


------------------------------------------------------------------------------
                       ORCA ELECTRIC PROPERTIES CALCULATION
------------------------------------------------------------------------------

Dipole Moment Calculation                       ... on
Quadrupole Moment Calculation                   ... off
Polarizability Calculation                      ... off
GBWName                                         ... b2plyp_job2.gbw
Electron density                                ... b2plyp_job2.scfp
The origin for moment calculation is the CENTER OF MASS  = (14.395761, 15.755095 15.394163)

-------------
DIPOLE MOMENT
-------------
                                X             Y             Z
Electronic contribution:      4.18171      20.47854     -10.35152
Nuclear contribution   :     -4.13038     -20.19841      10.22261
                        -----------------------------------------
Total Dipole Moment    :      0.05133       0.28013      -0.12891
                        -----------------------------------------
Magnitude (a.u.)       :      0.31261
Magnitude (Debye)      :      0.79459



--------------------
Rotational spectrum 
--------------------
 
Rotational constants in cm-1:     0.001721     0.001155     0.000992 
Rotational constants in MHz :    51.581608    34.640620    29.725386 

 Dipole components along the rotational axes: 
x,y,z [a.u.] :     0.312325     0.013236     0.001571 
x,y,z [Debye]:     0.793866     0.033643     0.003993 

 

Timings for individual modules:

Sum of individual times         ...     8485.978 sec (= 141.433 min)
GTO integral calculation        ...       20.987 sec (=   0.350 min)   0.2 %
SCF iterations                  ...     8102.639 sec (= 135.044 min)  95.5 %
MP2 module                      ...      362.352 sec (=   6.039 min)   4.3 %



                             ****ORCA TERMINATED NORMALLY****
TOTAL RUN TIME: 0 days 3 hours 5 minutes 5 seconds 235 msec
