
                                 *****************
                                 * O   R   C   A *
                                 *****************

                                            #,                                       
                                            ###                                      
                                            ####                                     
                                            #####                                    
                                            ######                                   
                                           ########,                                 
                                     ,,################,,,,,                         
                               ,,#################################,,                 
                          ,,##########################################,,             
                       ,#########################################, ''#####,          
                    ,#############################################,,   '####,        
                  ,##################################################,,,,####,       
                ,###########''''           ''''###############################       
              ,#####''   ,,,,##########,,,,          '''####'''          '####       
            ,##' ,,,,###########################,,,                        '##       
           ' ,,###''''                  '''############,,,                           
         ,,##''                                '''############,,,,        ,,,,,,###''
      ,#''                                            '''#######################'''  
     '                                                          ''''####''''         
             ,#######,   #######,   ,#######,      ##                                
            ,#'     '#,  ##    ##  ,#'     '#,    #''#        ######   ,####,        
            ##       ##  ##   ,#'  ##            #'  '#       #        #'  '#        
            ##       ##  #######   ##           ,######,      #####,   #    #        
            '#,     ,#'  ##    ##  '#,     ,#' ,#      #,         ##   #,  ,#        
             '#######'   ##     ##  '#######'  #'      '#     #####' # '####'        



                  #######################################################
                  #                        -***-                        #
                  #          Department of theory and spectroscopy      #
                  #    Directorship and core code : Frank Neese         #
                  #        Max Planck Institute fuer Kohlenforschung    #
                  #                Kaiser Wilhelm Platz 1               #
                  #                 D-45470 Muelheim/Ruhr               #
                  #                      Germany                        #
                  #                                                     #
                  #                  All rights reserved                #
                  #                        -***-                        #
                  #######################################################


                         Program Version 5.0.3 -  RELEASE  -


 With contributions from (in alphabetic order):
   Daniel Aravena         : Magnetic Suceptibility
   Michael Atanasov       : Ab Initio Ligand Field Theory (pilot matlab implementation)
   Alexander A. Auer      : GIAO ZORA, VPT2 properties, NMR spectrum
   Ute Becker             : Parallelization
   Giovanni Bistoni       : ED, misc. LED, open-shell LED, HFLD
   Martin Brehm           : Molecular dynamics
   Dmytro Bykov           : SCF Hessian
   Vijay G. Chilkuri      : MRCI spin determinant printing, contributions to CSF-ICE
   Dipayan Datta          : RHF DLPNO-CCSD density
   Achintya Kumar Dutta   : EOM-CC, STEOM-CC
   Dmitry Ganyushin       : Spin-Orbit,Spin-Spin,Magnetic field MRCI
   Miquel Garcia          : C-PCM and meta-GGA Hessian, CC/C-PCM, Gaussian charge scheme
   Yang Guo               : DLPNO-NEVPT2, F12-NEVPT2, CIM, IAO-localization
   Andreas Hansen         : Spin unrestricted coupled pair/coupled cluster methods
   Benjamin Helmich-Paris : MC-RPA, TRAH-SCF, COSX integrals
   Lee Huntington         : MR-EOM, pCC
   Robert Izsak           : Overlap fitted RIJCOSX, COSX-SCS-MP3, EOM
   Marcus Kettner         : VPT2
   Christian Kollmar      : KDIIS, OOCD, Brueckner-CCSD(T), CCSD density, CASPT2, CASPT2-K
   Simone Kossmann        : Meta GGA functionals, TD-DFT gradient, OOMP2, MP2 Hessian
   Martin Krupicka        : Initial AUTO-CI
   Lucas Lang             : DCDCAS
   Marvin Lechner         : AUTO-CI (C++ implementation), FIC-MRCC
   Dagmar Lenk            : GEPOL surface, SMD
   Dimitrios Liakos       : Extrapolation schemes; Compound Job, initial MDCI parallelization
   Dimitrios Manganas     : Further ROCIS development; embedding schemes
   Dimitrios Pantazis     : SARC Basis sets
   Anastasios Papadopoulos: AUTO-CI, single reference methods and gradients
   Taras Petrenko         : DFT Hessian,TD-DFT gradient, ASA, ECA, R-Raman, ABS, FL, XAS/XES, NRVS
   Peter Pinski           : DLPNO-MP2, DLPNO-MP2 Gradient
   Christoph Reimann      : Effective Core Potentials
   Marius Retegan         : Local ZFS, SOC
   Christoph Riplinger    : Optimizer, TS searches, QM/MM, DLPNO-CCSD(T), (RO)-DLPNO pert. Triples
   Tobias Risthaus        : Range-separated hybrids, TD-DFT gradient, RPA, STAB
   Michael Roemelt        : Original ROCIS implementation
   Masaaki Saitow         : Open-shell DLPNO-CCSD energy and density
   Barbara Sandhoefer     : DKH picture change effects
   Avijit Sen             : IP-ROCIS
   Kantharuban Sivalingam : CASSCF convergence, NEVPT2, FIC-MRCI
   Bernardo de Souza      : ESD, SOC TD-DFT
   Georgi Stoychev        : AutoAux, RI-MP2 NMR, DLPNO-MP2 response
   Willem Van den Heuvel  : Paramagnetic NMR
   Boris Wezisla          : Elementary symmetry handling
   Frank Wennmohs         : Technical directorship


 We gratefully acknowledge several colleagues who have allowed us to
 interface, adapt or use parts of their codes:
   Stefan Grimme, W. Hujo, H. Kruse, P. Pracht,  : VdW corrections, initial TS optimization,
                  C. Bannwarth, S. Ehlert          DFT functionals, gCP, sTDA/sTD-DF
   Ed Valeev, F. Pavosevic, A. Kumar             : LibInt (2-el integral package), F12 methods
   Garnet Chan, S. Sharma, J. Yang, R. Olivares  : DMRG
   Ulf Ekstrom                                   : XCFun DFT Library
   Mihaly Kallay                                 : mrcc  (arbitrary order and MRCC methods)
   Jiri Pittner, Ondrej Demel                    : Mk-CCSD
   Frank Weinhold                                : gennbo (NPA and NBO analysis)
   Christopher J. Cramer and Donald G. Truhlar   : smd solvation model
   Lars Goerigk                                  : TD-DFT with DH, B97 family of functionals
   V. Asgeirsson, H. Jonsson                     : NEB implementation
   FAccTs GmbH                                   : IRC, NEB, NEB-TS, DLPNO-Multilevel, CI-OPT
                                                   MM, QMMM, 2- and 3-layer-ONIOM, Crystal-QMMM,
                                                   LR-CPCM, SF, NACMEs, symmetry and pop. for TD-DFT,
                                                   nearIR, NL-DFT gradient (VV10), updates on ESD,
                                                   ML-optimized integration grids
   S Lehtola, MJT Oliveira, MAL Marques          : LibXC Library
   Liviu Ungur et al                             : ANISO software


 Your calculation uses the libint2 library for the computation of 2-el integrals
 For citations please refer to: http://libint.valeyev.net

 Your ORCA version has been built with support for libXC version: 5.1.0
 For citations please refer to: https://tddft.org/programs/libxc/

 This ORCA versions uses:
   CBLAS   interface :  Fast vector & matrix operations
   LAPACKE interface :  Fast linear algebra routines
   SCALAPACK package :  Parallel linear algebra routines
   Shared memory     :  Shared parallel matrices
   BLAS/LAPACK       :  OpenBLAS 0.3.15  USE64BITINT DYNAMIC_ARCH NO_AFFINITY Haswell SINGLE_THREADED
        Core in use  :  Haswell
   Copyright (c) 2011-2014, The OpenBLAS Project




***************************************
The coordinates will be read from file: pbe.xyz
***************************************


================================================================================

cite the ECPs for Au [Def2-ECP] as follows:
Ce-Yb(ecp-28): M. Dolg, H. Stoll, H.Preuss, J. Chem. Phys., 1989, 90, 1730-1734.
Y-Cd(ecp-28), Hf-Hg(ecp-46): D. Andrae,U. Haeussermann, M. Dolg, H. Stoll, H. Preuss, Theor. Chim. Acta, 1990, 77, 123-141.
In-Sb(ecp-28), Tl-Bi(ecp-46): B. Metz, H. Stoll, M. Dolg, J. Chem. Phys., 2000, 113, 2563-2569.
Te-Xe(ecp-28), Po-Rn(ecp-46): K. A. Peterson, D. Figgen, E. Goll, H. Stoll, M. Dolg, J. Chem. Phys., 2003, 119, 11113-11123.
Rb(ecp-28), Cs(ecp-46): T. Leininger, A. Nicklass, W. Kuechle, H. Stoll, M. Dolg, A. Bergner, Chem. Phys. Lett., 1996, 255, 274-280.
Sr(ecp-28), Ba(ecp-46): M. Kaupp, P. V. Schleyer, H. Stoll and H. Preuss, J. Chem. Phys., 1991, 94, 1360-1366.
La(ecp-46): M. Dolg, H. Stoll, A. Savin, H. Preuss, Theor. Chim. Acta, 1989, 75, 173-194.
Lu(ecp-28): X. Cao, M. Dolg, J. Chem. Phys., 2001, 115, 7348-7355.

ECP parameters for Au [Def2-ECP] have been obtained from:
TURBOMOLE (7.0.2)

----- Orbital basis set information -----
Your calculation utilizes the basis: def2-TZVP
   F. Weigend and R. Ahlrichs, Phys. Chem. Chem. Phys. 7, 3297 (2005).

----- AuxJ basis set information -----
Your calculation utilizes the auxiliary basis: def2/J
   F. Weigend, Phys. Chem. Chem. Phys. 8, 1057 (2006).

----- AuxC basis set information -----
Your calculation utilizes the auxiliary basis: def2-TZVP/C
  H-La, Hf-Rn : A. Hellweg, C. Hattig, S. Hofener and W. Klopper, Theor. Chem. Acc. 117, 587 (2007).
        Ce-Lu : J. Chmela and M. E. Harding, Mol. Phys. (2018).

================================================================================
                                        WARNINGS
                       Please study these warnings very carefully!
================================================================================


IMPORTANT NOTE: CASSCF must signal convergence for a subsequent CASPT2/NEVPT2! 
                Set maxiter=1 to run CASPT2/NEVPT2 with arbitrary orbitals.


INFO   : the flag for use of the SHARK integral package has been found!

================================================================================
                                       INPUT FILE
================================================================================
NAME = nevpt2.inp
|  1> !SC-NEVPT2 def2-TZVP def2-TZVP/C
|  2> !MOREAD RIJCOSX def2/J
|  3> %maxcore 4000
|  4> %moinp "casscf.gbw"
|  5> %pal nprocs 8 end 
|  6> 
|  7> %casscf
|  8>  mult 5,3
|  9>  bweight 1,1
| 10>  nroots 5,45
| 11>  nel 6
| 12>  norb 5
| 13>  ptsettings
| 14>   d4tpre 1e-14 # default = 1e-10
| 15>   d3tpre 1e-14
| 16>  end
| 17>  rel           
| 18>    dosoc true   
| 19>    gtensor true 
| 20>  end           
| 21> end
| 22> 
| 23> 
| 24> *xyzfile 0 5 pbe.xyz
| 25> 
| 26> 
| 27>                          ****END OF INPUT****
================================================================================

                       ****************************
                       * Single Point Calculation *
                       ****************************

---------------------------------
CARTESIAN COORDINATES (ANGSTROEM)
---------------------------------
  Au     7.224144    6.548428    7.981805
  Au     8.870167    4.558443    7.009359
  Au    11.017945    9.287893    8.411283
  Au    10.317770    6.637031    8.010846
  Au     6.410670    9.139128    8.666003
  Au     8.649246   10.897291    8.806437
  Au     8.749586    8.163871    9.799014
  Au    10.955362    8.229995    5.715411
  Au    10.093025   10.929489    6.293701
  Au     8.605046    6.675049    5.293246
  Au     4.778953   10.269205    6.780315
  Au     7.326877   11.076820    6.269857
  Au     6.306002    8.191638    5.795906
  Au     8.574422    9.317317    4.443175
  Cr     8.664938    8.742817    7.121321

----------------------------
CARTESIAN COORDINATES (A.U.)
----------------------------
  NO LB      ZA    FRAG     MASS         X           Y           Z
   0 Au   19.0000*   0   196.966   13.651654   12.374736   15.083425
   1 Au   19.0000*   0   196.966   16.762186    8.614209   13.245769
   2 Au   19.0000*   0   196.966   20.820899   17.551574   15.895021
   3 Au   19.0000*   0   196.966   19.497760   12.542171   15.138304
   4 Au   19.0000*   0   196.966   12.114411   17.270448   16.376373
   5 Au   19.0000*   0   196.966   16.344707   20.592895   16.641754
   6 Au   19.0000*   0   196.966   16.534321   15.427481   18.517453
   7 Au   19.0000*   0   196.966   20.702634   15.552436   10.800561
   8 Au   19.0000*   0   196.966   19.073054   20.653741   11.893371
   9 Au   19.0000*   0   196.966   16.261180   12.614015   10.002785
  10 Au   19.0000*   0   196.966    9.030912   19.405985   12.812939
  11 Au   19.0000*   0   196.966   13.845791   20.932156   11.848313
  12 Au   19.0000*   0   196.966   11.916617   15.479953   10.952675
  13 Au   19.0000*   0   196.966   16.203310   17.607178    8.396384
  14 Cr   24.0000    0    52.000   16.374359   16.521529   13.457346
* core charge reduced due to ECP

--------------------------------
INTERNAL COORDINATES (ANGSTROEM)
--------------------------------
 Au     0   0   0     0.000000000000     0.00000000     0.00000000
 Au     1   0   0     2.759544279000     0.00000000     0.00000000
 Au     1   2   0     4.699153679193    88.34045935     0.00000000
 Au     2   1   3     2.723795248513    68.72364199     9.72619210
 Au     1   2   3     2.800283851027   157.90078416    19.73212790
 Au     5   1   2     2.849926572730   110.76901814   342.15447411
 Au     5   1   2     2.775853658816    61.96032720   302.12358139
 Au     4   2   1     2.865846811784   104.35438199   263.37915063
 Au     3   1   2     2.834513524339    90.33843338   110.44667647
 Au     2   1   3     2.737764865054    66.77226780   290.83116427
 Au     5   1   2     2.737772106591   112.75105609    98.64240580
 Au    11   5   1     2.721162754487    72.16078965   265.08493022
 Au    11   5   1     2.759931971460    66.74566346   339.11587486
 Au    10   2   1     2.775812949553   158.27173935    49.98750637
 Cr     6   5   1     2.735255147277    59.21778146    29.45896307

---------------------------
INTERNAL COORDINATES (A.U.)
---------------------------
 Au     0   0   0     0.000000000000     0.00000000     0.00000000
 Au     1   0   0     5.214782941740     0.00000000     0.00000000
 Au     1   2   0     8.880113514883    88.34045935     0.00000000
 Au     2   1   3     5.147227064566    68.72364199     9.72619210
 Au     1   2   3     5.291769575684   157.90078416    19.73212790
 Au     5   1   2     5.385580724245   110.76901814   342.15447411
 Au     5   1   2     5.245603203005    61.96032720   302.12358139
 Au     4   2   1     5.415665616042   104.35438199   263.37915063
 Au     3   1   2     5.356454283896    90.33843338   110.44667647
 Au     2   1   3     5.173625814024    66.77226780   290.83116427
 Au     5   1   2     5.173639498546   112.75105609    98.64240580
 Au    11   5   1     5.142252371808    72.16078965   265.08493022
 Au    11   5   1     5.215515574314    66.74566346   339.11587486
 Au    10   2   1     5.245526273647   158.27173935    49.98750637
 Cr     6   5   1     5.168883134752    59.21778146    29.45896307

---------------------
BASIS SET INFORMATION
---------------------
There are 2 groups of distinct atoms

 Group   1 Type Au  : 8s7p6d1f contracted to 6s4p3d1f pattern {311111/4111/411/1}
 Group   2 Type Cr  : 17s11p7d1f contracted to 6s4p4d1f pattern {842111/6311/4111/1}

Atom   0Au   basis set group =>   1
Atom   1Au   basis set group =>   1
Atom   2Au   basis set group =>   1
Atom   3Au   basis set group =>   1
Atom   4Au   basis set group =>   1
Atom   5Au   basis set group =>   1
Atom   6Au   basis set group =>   1
Atom   7Au   basis set group =>   1
Atom   8Au   basis set group =>   1
Atom   9Au   basis set group =>   1
Atom  10Au   basis set group =>   1
Atom  11Au   basis set group =>   1
Atom  12Au   basis set group =>   1
Atom  13Au   basis set group =>   1
Atom  14Cr   basis set group =>   2
---------------------------------
AUXILIARY/J BASIS SET INFORMATION
---------------------------------
There are 2 groups of distinct atoms

 Group   1 Type Au  : 11s5p5d3f3g contracted to 8s5p5d2f3g pattern {41111111/11111/11111/21/111}
 Group   2 Type Cr  : 19s5p5d3f3g contracted to 8s5p5d2f3g pattern {121111111/11111/11111/21/111}

Atom   0Au   basis set group =>   1
Atom   1Au   basis set group =>   1
Atom   2Au   basis set group =>   1
Atom   3Au   basis set group =>   1
Atom   4Au   basis set group =>   1
Atom   5Au   basis set group =>   1
Atom   6Au   basis set group =>   1
Atom   7Au   basis set group =>   1
Atom   8Au   basis set group =>   1
Atom   9Au   basis set group =>   1
Atom  10Au   basis set group =>   1
Atom  11Au   basis set group =>   1
Atom  12Au   basis set group =>   1
Atom  13Au   basis set group =>   1
Atom  14Cr   basis set group =>   2
---------------------------------
AUXILIARY/C BASIS SET INFORMATION
---------------------------------
There are 2 groups of distinct atoms

 Group   1 Type Au  : 8s8p7d5f3g2h contracted to 8s8p7d5f3g2h pattern {11111111/11111111/1111111/11111/111/11}
 Group   2 Type Cr  : 11s9p8d6f5g2h contracted to 9s8p8d6f5g2h pattern {311111111/21111111/11111111/111111/11111/11}

Atom   0Au   basis set group =>   1
Atom   1Au   basis set group =>   1
Atom   2Au   basis set group =>   1
Atom   3Au   basis set group =>   1
Atom   4Au   basis set group =>   1
Atom   5Au   basis set group =>   1
Atom   6Au   basis set group =>   1
Atom   7Au   basis set group =>   1
Atom   8Au   basis set group =>   1
Atom   9Au   basis set group =>   1
Atom  10Au   basis set group =>   1
Atom  11Au   basis set group =>   1
Atom  12Au   basis set group =>   1
Atom  13Au   basis set group =>   1
Atom  14Cr   basis set group =>   2
-------------------------
ECP PARAMETER INFORMATION
-------------------------

 Group 1, Type Au ECP Def2-ECP (replacing 60 core electrons, lmax=3)

Atom   0Au   ECP group =>   1
Atom   1Au   ECP group =>   1
Atom   2Au   ECP group =>   1
Atom   3Au   ECP group =>   1
Atom   4Au   ECP group =>   1
Atom   5Au   ECP group =>   1
Atom   6Au   ECP group =>   1
Atom   7Au   ECP group =>   1
Atom   8Au   ECP group =>   1
Atom   9Au   ECP group =>   1
Atom  10Au   ECP group =>   1
Atom  11Au   ECP group =>   1
Atom  12Au   ECP group =>   1
Atom  13Au   ECP group =>   1



           ************************************************************
           *        Program running with 8 parallel MPI-processes     *
           *              working on a common directory               *
           ************************************************************
------------------------------------------------------------------------------
                           ORCA GTO INTEGRAL CALCULATION
                           -- RI-GTO INTEGRALS CHOSEN --
------------------------------------------------------------------------------
------------------------------------------------------------------------------
                   ___                                                        
                  /   \      - P O W E R E D   B Y -                         
                 /     \                                                     
                 |  |  |   _    _      __       _____    __    __             
                 |  |  |  | |  | |    /  \     |  _  \  |  |  /  |          
                  \  \/   | |  | |   /    \    | | | |  |  | /  /          
                 / \  \   | |__| |  /  /\  \   | |_| |  |  |/  /          
                |  |  |   |  __  | /  /__\  \  |    /   |      \           
                |  |  |   | |  | | |   __   |  |    \   |  |\   \          
                \     /   | |  | | |  |  |  |  | |\  \  |  | \   \       
                 \___/    |_|  |_| |__|  |__|  |_| \__\ |__|  \__/        
                                                                              
                      - O R C A' S   B I G   F R I E N D -                    
                                      &                                       
                       - I N T E G R A L  F E E D E R -                       
                                                                              
 v1 FN, 2020, v2 2021                                                         
------------------------------------------------------------------------------


Reading SHARK input file nevpt2.SHARKINP.tmp ... ok
----------------------
SHARK INTEGRAL PACKAGE
----------------------

Number of atoms                             ...     15
Number of basis functions                   ...    605
Number of shells                            ...    211
Maximum angular momentum                    ...      3
Integral batch strategy                     ... SHARK/LIBINT Hybrid
RI-J (if used) integral strategy            ... SPLIT-RIJ (Revised 2003 algorithm where possible)
Printlevel                                  ...      1
Contraction scheme used                     ... SEGMENTED contraction
Coulomb Range Separation                    ... NOT USED
Exchange Range Separation                   ... NOT USED
Finite Nucleus Model                        ... NOT USED
Auxiliary Coulomb fitting basis             ... AVAILABLE
   # of basis functions in Aux-J            ...   1335
   # of shells in Aux-J                     ...    345
   Maximum angular momentum in Aux-J        ...      4
Auxiliary J/K fitting basis                 ... NOT available
Auxiliary Correlation fitting basis         ... AVAILABLE
   # of basis functions in Aux-C            ...   2296
   # of shells in Aux-C                     ...    500
   Maximum angular momentum in Aux-C        ...      5
Auxiliary 'external' fitting basis          ... NOT available
Integral threshold                          ...     1.000000e-10
Primitive cut-off                           ...     1.000000e-11
Primitive pair pre-selection threshold      ...     1.000000e-11

Calculating pre-screening integrals         ... done (  0.2 sec) Dimension = 211
Organizing shell pair data                  ... done ( 28.5 sec)
Shell pair information
Total number of shell pairs                 ...     22366
Shell pairs after pre-screening             ...     18041
Total number of primitive shell pairs       ...     59609
Primitive shell pairs kept                  ...     35071
          la=0 lb=0:   2825 shell pairs
          la=1 lb=0:   4114 shell pairs
          la=1 lb=1:   1537 shell pairs
          la=2 lb=0:   3598 shell pairs
          la=2 lb=1:   2498 shell pairs
          la=2 lb=2:   1026 shell pairs
          la=3 lb=0:    972 shell pairs
          la=3 lb=1:    732 shell pairs
          la=3 lb=2:    638 shell pairs
          la=3 lb=3:    101 shell pairs

Calculating one electron integrals          ... done (  0.0 sec)
Calculating ECP integrals                   ... done (  9.9 sec)
Calculating RI/J V-Matrix + Cholesky decomp.... done (  0.1 sec)
Calculating RI/C V-Matrix + Cholesky decomp.... done (  0.5 sec)
Calculating Nuclear repulsion               ... done (  0.0 sec) ENN=   5654.461817842268 Eh

SHARK setup successfully completed in  40.3 seconds

Maximum memory used throughout the entire GTOINT-calculation: 44.6 MB


           ************************************************************
           *        Program running with 8 parallel MPI-processes     *
           *              working on a common directory               *
           ************************************************************
-------------------------------------------------------------------------------
                                 ORCA SCF
-------------------------------------------------------------------------------

------------
SCF SETTINGS
------------
Hamiltonian:
 Ab initio Hamiltonian  Method          .... Hartree-Fock(GTOs)
 RI-approximation to the Coulomb term is turned on
   Number of AuxJ basis functions       .... 1335
   RIJ-COSX (HFX calculated with COS-X)).... on


General Settings:
 Integral files         IntName         .... nevpt2
 Hartree-Fock type      HFTyp           .... CASSCF
 Total Charge           Charge          ....    0
 Multiplicity           Mult            ....    5
 Number of Electrons    NEL             ....  290
 Basis Dimension        Dim             ....  605
 Nuclear Repulsion      ENuc            ....   5654.4618178423 Eh


Diagonalization of the overlap matrix:
Smallest eigenvalue                        ... 5.522e-05
Time for diagonalization                   ...    4.592 sec
Threshold for overlap eigenvalues          ... 1.000e-08
Number of eigenvalues below threshold      ... 0
Time for construction of square roots      ...    0.742 sec
Total time needed                          ...    5.582 sec

---------------------
INITIAL GUESS: MOREAD
---------------------
Guess MOs are being read from file: casscf.gbw
Input Geometry matches current geometry (good)
Input basis set matches current basis set (good)
MOs were renormalized
Gram-Schmidt orthogonalization of all MOs with pivot on actives
                      ------------------
                      INITIAL GUESS DONE (   4.4 sec)
                      ------------------
--------------------
COSX GRID GENERATION
--------------------

GRIDX 1
-------
General Integration Accuracy     IntAcc      ... 3.816
Radial Grid Type                 RadialGrid  ... OptM3 with GC (2021)
Angular Grid (max. ang.)         AngularGrid ... 1 (Lebedev-50)
Angular grid pruning method      GridPruning ... 4 (adaptive)
Weight generation scheme         WeightScheme... Becke
Basis function cutoff            BFCut       ... 1.0000e-10
Integration weight cutoff        WCut        ... 1.0000e-14
Angular grids for H and He will be reduced by one unit
Partially contracted basis set               ... on
Rotationally invariant grid construction     ... off

Total number of grid points                  ...    17363
Total number of batches                      ...      277
Average number of points per batch           ...       62
Average number of grid points per atom       ...     1158
UseSFitting                                  ... on

GRIDX 2
-------
General Integration Accuracy     IntAcc      ... 4.020
Radial Grid Type                 RadialGrid  ... OptM3 with GC (2021)
Angular Grid (max. ang.)         AngularGrid ... 2 (Lebedev-110)
Angular grid pruning method      GridPruning ... 4 (adaptive)
Weight generation scheme         WeightScheme... Becke
Basis function cutoff            BFCut       ... 1.0000e-10
Integration weight cutoff        WCut        ... 1.0000e-14
Angular grids for H and He will be reduced by one unit
Partially contracted basis set               ... on
Rotationally invariant grid construction     ... off

Total number of grid points                  ...    52619
Total number of batches                      ...      831
Average number of points per batch           ...       63
Average number of grid points per atom       ...     3508
UseSFitting                                  ... on

GRIDX 3
-------
General Integration Accuracy     IntAcc      ... 4.338
Radial Grid Type                 RadialGrid  ... OptM3 with GC (2021)
Angular Grid (max. ang.)         AngularGrid ... 3 (Lebedev-194)
Angular grid pruning method      GridPruning ... 4 (adaptive)
Weight generation scheme         WeightScheme... Becke
Basis function cutoff            BFCut       ... 1.0000e-10
Integration weight cutoff        WCut        ... 1.0000e-14
Angular grids for H and He will be reduced by one unit
Partially contracted basis set               ... on
Rotationally invariant grid construction     ... off

Total number of grid points                  ...    95666
Total number of batches                      ...     1503
Average number of points per batch           ...       63
Average number of grid points per atom       ...     6378
UseSFitting                                  ... on

Time for X-Grid setup             =   17.937 sec



 ... the calculation is a CASSCF calculation -I'm leaving here GOOD LUCK!!!



           ************************************************************
           *        Program running with 8 parallel MPI-processes     *
           *              working on a common directory               *
           ************************************************************
-------------------------------------------------------------------------------
                              ORCA-CASSCF
-------------------------------------------------------------------------------

Setting up the integral package       ... done
Setting up the integral package (RI)  ... done
Building the CAS space                ... done (5 configurations for Mult=5)
Building the CAS space                ... done (35 configurations for Mult=3)

 CASSCF (estimated) memory needed     ... 150.4 MB
 NEVPT2 (estimated) memory needed     ... 543.4 MB


SYSTEM-SPECIFIC SETTINGS:
Number of active electrons          ...    6
Number of active orbitals           ...    5
Total number of electrons           ...  290
Total number of orbitals            ...  605
Total number aux. functions         ... 2296

Determined orbital ranges:
   Internal       0 -  141 ( 142 orbitals)
   Active       142 -  146 (   5 orbitals)
   External     147 -  604 ( 458 orbitals)
Number of rotation parameters      ...  68036

CI-STEP:
CI strategy                         ... General CI
Number of multiplicity blocks       ...    2
BLOCK  1 WEIGHT=   0.5000
  Multiplicity                      ...    5
  #(Configurations)                 ...    5
  #(CSFs)                           ...    5
  #(Roots)                          ...    5
    ROOT=0 WEIGHT=    0.100000
    ROOT=1 WEIGHT=    0.100000
    ROOT=2 WEIGHT=    0.100000
    ROOT=3 WEIGHT=    0.100000
    ROOT=4 WEIGHT=    0.100000

BLOCK  2 WEIGHT=   0.5000
  Multiplicity                      ...    3
  #(Configurations)                 ...   35
  #(CSFs)                           ...   45
  #(Roots)                          ...   45
    ROOT=0 WEIGHT=    0.011111
    ROOT=1 WEIGHT=    0.011111
    ROOT=2 WEIGHT=    0.011111
    ROOT=3 WEIGHT=    0.011111
    ROOT=4 WEIGHT=    0.011111
    ROOT=5 WEIGHT=    0.011111
    ROOT=6 WEIGHT=    0.011111
    ROOT=7 WEIGHT=    0.011111
    ROOT=8 WEIGHT=    0.011111
    ROOT=9 WEIGHT=    0.011111
    ROOT=10 WEIGHT=    0.011111
    ROOT=11 WEIGHT=    0.011111
    ROOT=12 WEIGHT=    0.011111
    ROOT=13 WEIGHT=    0.011111
    ROOT=14 WEIGHT=    0.011111
    ROOT=15 WEIGHT=    0.011111
    ROOT=16 WEIGHT=    0.011111
    ROOT=17 WEIGHT=    0.011111
    ROOT=18 WEIGHT=    0.011111
    ROOT=19 WEIGHT=    0.011111
    ROOT=20 WEIGHT=    0.011111
    ROOT=21 WEIGHT=    0.011111
    ROOT=22 WEIGHT=    0.011111
    ROOT=23 WEIGHT=    0.011111
    ROOT=24 WEIGHT=    0.011111
    ROOT=25 WEIGHT=    0.011111
    ROOT=26 WEIGHT=    0.011111
    ROOT=27 WEIGHT=    0.011111
    ROOT=28 WEIGHT=    0.011111
    ROOT=29 WEIGHT=    0.011111
    ROOT=30 WEIGHT=    0.011111
    ROOT=31 WEIGHT=    0.011111
    ROOT=32 WEIGHT=    0.011111
    ROOT=33 WEIGHT=    0.011111
    ROOT=34 WEIGHT=    0.011111
    ROOT=35 WEIGHT=    0.011111
    ROOT=36 WEIGHT=    0.011111
    ROOT=37 WEIGHT=    0.011111
    ROOT=38 WEIGHT=    0.011111
    ROOT=39 WEIGHT=    0.011111
    ROOT=40 WEIGHT=    0.011111
    ROOT=41 WEIGHT=    0.011111
    ROOT=42 WEIGHT=    0.011111
    ROOT=43 WEIGHT=    0.011111
    ROOT=44 WEIGHT=    0.011111

  PrintLevel                        ...    1
  N(GuessMat)                       ...       512
  MaxDim(CI)                        ...        10
  MaxIter(CI)                       ...        64
  Energy Tolerance CI               ...  1.00e-08
  Residual Tolerance CI             ...  1.00e-08
  Shift(CI)                         ...  1.00e-04

INTEGRAL-TRANSFORMATION-STEP:
  Algorithm                         ... RI-MO

ORBITAL-IMPROVEMENT-STEP:
  Algorithm                         ... SuperCI(PT)
  Default Parametrization           ... CAYLEY
  Act-Act rotations                 ... depends on algorithm used

  Note: SuperCI(PT) will ignore FreezeIE, FreezeAct and FreezeGrad. In general Default settings are encouraged.
        In conjunction with ShiftUp, ShiftDn or GradScaling the performance of SuperCI(PT) is less optimal.  

  MaxRot                            ... 2.00e-01 
  Max. no of vectors (DIIS)         ... 15
  DThresh (cut-off) metric          ... 1.00e-06
  Switch step at gradient           ...  3.00e-02 
  Switch step at iteration          ...        50   
  Switch step to                    ... SuperCI(PT)    

SCF-SETTINGS:
  Incremental                       ... off
  RIJCOSX approximation             ... on
  UseFinalGrid                      ... on
  RI-JK approximation               ... off
  AO integral handling              ... DIRECT
  Integral Neglect Thresh           ...  1.00e-10
  Primitive cutoff TCut             ...  1.00e-11
  Energy convergence tolerance      ...  1.00e-07
  Orbital gradient convergence      ...  1.00e-03
  Max. number of iterations         ...        75  

PT2-SETTINGS:
  A PT2 calculation will be performed on top of the CASSCF wave function (PT2 = SC-NEVPT2)   
 CI step strategy                   ... General CI
  D4C handling                      ... on the fly 
  CI truncation for D4C at          ...  1.00e-14
  CI truncation for D3  at          ...  1.00e-14
  Orbitals                          ... canonical for each state 
  Last  frozen  orbital             ... 4
  First deleted orbital             ... 605
  RI Step                           ... store IJV(array) (MC_ONDISK during integral transformation) 

PROPERTIES-SETTINGS:
  Spin orbit coupling               ... true
  GTensor                           ... true
  QDPT diagonal energies            ... NEVPT2 energies 

FINAL ORBITALS:
  Active   Orbitals                 ... natural 
  Internal Orbitals                 ... canonical 
  External Orbitals                 ... canonical 

------------------
CAS-SCF ITERATIONS
------------------


MACRO-ITERATION   1: 
   --- Inactive Energy E0 = -2922.60854961 Eh
CI-ITERATION   0: 
 -2930.568768988   0.000000000000 (    0.24)
 -2930.564650758   0.000000000000
 -2930.540451324   0.000000000000
 -2930.535229198   0.000000000000
 -2930.533249436   0.000000000000
   CI-PROBLEM SOLVED
   DENSITIES MADE
CI-ITERATION   0: 
 -2930.551035384   0.000000000000 (    1.58)
 -2930.540597125   0.000000000000
 -2930.535204172   0.000000000000
 -2930.528930326   0.000000000000
 -2930.526887872   0.000000000000
 -2930.521642296   0.000000000000
 -2930.518190447   0.000000000000
 -2930.517949094   0.000000000000
 -2930.515751165   0.000000000000
 -2930.511696990   0.000000000000
 -2930.507198272   0.000000000000
 -2930.496214442   0.000000000000
 -2930.492951711   0.000000000000
 -2930.491756446   0.000000000000
 -2930.489545784   0.000000000000
 -2930.488129260   0.000000000000
 -2930.486183353   0.000000000000
 -2930.482987913   0.000000000000
 -2930.482246062   0.000000000000
 -2930.481836181   0.000000000000
 -2930.480726705   0.000000000000
 -2930.480401244   0.000000000000
 -2930.479540850   0.000000000000
 -2930.477043019   0.000000000000
 -2930.473676043   0.000000000000
 -2930.472657725   0.000000000000
 -2930.471201842   0.000000000000
 -2930.467627376   0.000000000000
 -2930.463757558   0.000000000000
 -2930.429197939   0.000000000000
 -2930.424630364   0.000000000000
 -2930.424286893   0.000000000000
 -2930.419762856   0.000000000000
 -2930.417157396   0.000000000000
 -2930.414065603   0.000000000000
 -2930.386237672   0.000000000000
 -2930.262707197   0.000000000000
 -2930.257873948   0.000000000000
 -2930.248680047   0.000000000000
 -2930.235183930   0.000000000000
 -2930.218315419   0.000000000000
 -2930.217654017   0.000000000000
 -2930.212310360   0.000000000000
 -2930.204267629   0.000000000000
 -2930.202506877   0.000000000000
   CI-PROBLEM SOLVED
   DENSITIES MADE

                 <<<<<<<<<<<<<<<<<<INITIAL CI STATE CHECK>>>>>>>>>>>>>>>>>>

BLOCK  1 MULT= 5 NROOTS= 5 
ROOT   0:  E=   -2930.5687689880 Eh
      0.46706 [     4]: 21111
      0.29652 [     2]: 11211
      0.16590 [     0]: 11112
      0.07048 [     1]: 11121
ROOT   1:  E=   -2930.5646507578 Eh  0.112 eV    903.8 cm**-1
      0.46712 [     0]: 11112
      0.46445 [     1]: 11121
      0.05493 [     4]: 21111
      0.01322 [     2]: 11211
ROOT   2:  E=   -2930.5404513242 Eh  0.771 eV   6215.0 cm**-1
      0.37964 [     2]: 11211
      0.35225 [     0]: 11112
      0.26354 [     1]: 11121
      0.00390 [     4]: 21111
ROOT   3:  E=   -2930.5352291979 Eh  0.913 eV   7361.1 cm**-1
      0.37650 [     4]: 21111
      0.24149 [     2]: 11211
      0.20693 [     3]: 12111
      0.16110 [     1]: 11121
      0.01398 [     0]: 11112
ROOT   4:  E=   -2930.5332494359 Eh  0.967 eV   7795.6 cm**-1
      0.79208 [     3]: 12111
      0.09760 [     4]: 21111
      0.06912 [     2]: 11211
      0.04044 [     1]: 11121

BLOCK  2 MULT= 3 NROOTS=45 
ROOT   0:  E=   -2930.5510353836 Eh
      0.20392 [    27]: 21102
      0.15155 [    28]: 21111
      0.14621 [    11]: 11121
      0.08955 [    10]: 11112
      0.08512 [    29]: 21120
      0.08318 [    12]: 11202
      0.07681 [    14]: 11220
      0.06395 [    13]: 11211
      0.02741 [     0]: 01122
      0.01903 [     2]: 01221
      0.01866 [    30]: 21201
      0.01722 [    31]: 21210
      0.01467 [     1]: 01212
ROOT   1:  E=   -2930.5405971250 Eh  0.284 eV   2290.9 cm**-1
      0.12179 [    28]: 21111
      0.10023 [     0]: 01122
      0.10019 [    25]: 21012
      0.09286 [     2]: 01221
      0.09264 [    10]: 11112
      0.08718 [    13]: 11211
      0.06715 [    11]: 11121
      0.06317 [     9]: 11022
      0.06272 [    26]: 21021
      0.05860 [     1]: 01212
      0.05662 [    14]: 11220
      0.05504 [    29]: 21120
      0.01736 [    27]: 21102
      0.01422 [    31]: 21210
      0.00576 [    12]: 11202
ROOT   2:  E=   -2930.5352041717 Eh  0.431 eV   3474.5 cm**-1
      0.15524 [    11]: 11121
      0.10296 [    29]: 21120
      0.09005 [    18]: 12111
      0.07310 [     4]: 02121
      0.06159 [    19]: 12120
      0.05964 [    28]: 21111
      0.05462 [    16]: 12021
      0.05270 [    13]: 11211
      0.05132 [     3]: 02112
      0.04715 [    26]: 21021
      0.03729 [    14]: 11220
      0.03711 [    15]: 12012
      0.03602 [    10]: 11112
      0.03002 [     0]: 01122
      0.02105 [     2]: 01221
      0.01665 [     1]: 01212
      0.01370 [     9]: 11022
      0.01289 [    25]: 21012
      0.01245 [    31]: 21210
      0.01106 [    32]: 22011
      0.00869 [    34]: 22110
      0.00588 [    30]: 21201
      0.00288 [    33]: 22101
ROOT   3:  E=   -2930.5289303262 Eh  0.602 eV   4851.5 cm**-1
      0.14806 [    29]: 21120
      0.13882 [    19]: 12120
      0.12105 [    18]: 12111
      0.07549 [    34]: 22110
      0.07330 [     4]: 02121
      0.07166 [    16]: 12021
      0.05594 [    11]: 11121
      0.05297 [    31]: 21210
      0.04847 [    13]: 11211
      0.04812 [    32]: 22011
      0.03130 [    14]: 11220
      0.03020 [    26]: 21021
      0.02857 [    28]: 21111
      0.01799 [    15]: 12012
      0.01399 [     3]: 02112
      0.01195 [     5]: 02211
      0.01006 [    21]: 12210
      0.00553 [     2]: 01221
      0.00413 [    17]: 12102
      0.00402 [    10]: 11112
ROOT   4:  E=   -2930.5268878716 Eh  0.657 eV   5299.8 cm**-1
      0.27836 [    11]: 11121
      0.23213 [     0]: 01122
      0.16293 [    13]: 11211
      0.11981 [     9]: 11022
      0.07963 [    10]: 11112
      0.06711 [     1]: 01212
      0.02118 [     2]: 01221
      0.01948 [    14]: 11220
      0.00803 [    27]: 21102
      0.00289 [    25]: 21012
ROOT   5:  E=   -2930.5216422955 Eh  0.800 eV   6451.0 cm**-1
      0.19989 [    10]: 11112
      0.16875 [    11]: 11121
      0.14845 [    13]: 11211
      0.14435 [     2]: 01221
      0.07708 [    28]: 21111
      0.06808 [     0]: 01122
      0.05244 [    12]: 11202
      0.05182 [    30]: 21201
      0.02358 [    14]: 11220
      0.01995 [    27]: 21102
      0.01741 [    26]: 21021
      0.01343 [    25]: 21012
      0.00437 [     9]: 11022
ROOT   6:  E=   -2930.5181904470 Eh  0.894 eV   7208.6 cm**-1
      0.18095 [    10]: 11112
      0.13586 [     1]: 01212
      0.11279 [    11]: 11121
      0.09612 [    28]: 21111
      0.09520 [    29]: 21120
      0.07807 [     2]: 01221
      0.06560 [    31]: 21210
      0.04807 [    13]: 11211
      0.04803 [    14]: 11220
      0.03756 [    30]: 21201
      0.03121 [    12]: 11202
      0.02444 [    25]: 21012
      0.01982 [    27]: 21102
      0.01415 [     0]: 01122
      0.00587 [    26]: 21021
      0.00251 [     5]: 02211
ROOT   7:  E=   -2930.5179490944 Eh  0.900 eV   7261.6 cm**-1
      0.21376 [    28]: 21111
      0.15463 [    11]: 11121
      0.14788 [    14]: 11220
      0.09092 [    12]: 11202
      0.07893 [    30]: 21201
      0.06241 [    13]: 11211
      0.05816 [    29]: 21120
      0.05616 [    26]: 21021
      0.02953 [    27]: 21102
      0.02653 [     1]: 01212
      0.01685 [    10]: 11112
      0.01375 [    25]: 21012
      0.00779 [    32]: 22011
      0.00519 [     4]: 02121
      0.00481 [    18]: 12111
      0.00459 [     8]: 10221
      0.00429 [    33]: 22101
      0.00386 [    16]: 12021
      0.00344 [     5]: 02211
      0.00289 [     0]: 01122
      0.00257 [     6]: 10122
      0.00257 [     2]: 01221
ROOT   8:  E=   -2930.5157511645 Eh  0.960 eV   7744.0 cm**-1
      0.19916 [    17]: 12102
      0.19110 [    19]: 12120
      0.14895 [    33]: 22101
      0.14224 [     4]: 02121
      0.13925 [    18]: 12111
      0.03250 [    32]: 22011
      0.02814 [     5]: 02211
      0.01970 [    34]: 22110
      0.01567 [    16]: 12021
      0.01497 [     3]: 02112
      0.01335 [    20]: 12201
      0.00985 [    13]: 11211
      0.00896 [    29]: 21120
      0.00614 [    27]: 21102
      0.00534 [     0]: 01122
      0.00487 [    11]: 11121
      0.00334 [    28]: 21111
      0.00276 [    15]: 12012
ROOT   9:  E=   -2930.5116969899 Eh  1.070 eV   8633.8 cm**-1
      0.25921 [    31]: 21210
      0.12907 [    28]: 21111
      0.10665 [    10]: 11112
      0.08866 [    13]: 11211
      0.04999 [    18]: 12111
      0.04560 [    29]: 21120
      0.04275 [    25]: 21012
      0.03461 [     1]: 01212
      0.03155 [     0]: 01122
      0.02709 [    11]: 11121
      0.02552 [     2]: 01221
      0.02393 [    15]: 12012
      0.02282 [    14]: 11220
      0.02233 [     3]: 02112
      0.01776 [     9]: 11022
      0.01329 [    21]: 12210
      0.01026 [    16]: 12021
      0.00995 [     4]: 02121
      0.00969 [    34]: 22110
      0.00650 [    33]: 22101
      0.00606 [    27]: 21102
      0.00512 [    20]: 12201
      0.00341 [    12]: 11202
ROOT  10:  E=   -2930.5071982715 Eh  1.193 eV   9621.1 cm**-1
      0.15635 [     3]: 02112
      0.14170 [    34]: 22110
      0.11714 [    15]: 12012
      0.10739 [    18]: 12111
      0.10217 [    21]: 12210
      0.10135 [    32]: 22011
      0.09415 [     5]: 02211
      0.02978 [    13]: 11211
      0.02242 [    31]: 21210
      0.02024 [    30]: 21201
      0.01526 [    10]: 11112
      0.01514 [    11]: 11121
      0.01179 [    29]: 21120
      0.01003 [    28]: 21111
      0.00871 [     7]: 10212
      0.00651 [    26]: 21021
      0.00602 [     4]: 02121
      0.00564 [    33]: 22101
      0.00416 [     0]: 01122
      0.00334 [    25]: 21012
      0.00287 [    12]: 11202
      0.00258 [    27]: 21102
      0.00253 [     6]: 10122
ROOT  11:  E=   -2930.4962144421 Eh  1.492 eV  12031.8 cm**-1
      0.24008 [    13]: 11211
      0.15646 [    28]: 21111
      0.10745 [    12]: 11202
      0.09345 [    14]: 11220
      0.07597 [    27]: 21102
      0.07448 [    31]: 21210
      0.05023 [    29]: 21120
      0.04577 [    24]: 20211
      0.03992 [     1]: 01212
      0.03392 [    10]: 11112
      0.01295 [    23]: 20121
      0.01231 [    22]: 20112
      0.01201 [    26]: 21021
      0.00860 [    25]: 21012
      0.00703 [     0]: 01122
      0.00683 [     9]: 11022
      0.00502 [    30]: 21201
      0.00490 [     8]: 10221
      0.00479 [    11]: 11121
      0.00348 [     6]: 10122
ROOT  12:  E=   -2930.4929517108 Eh  1.581 eV  12747.9 cm**-1
      0.26896 [     7]: 10212
      0.06921 [    24]: 20211
      0.06174 [     1]: 01212
      0.05989 [     6]: 10122
      0.05510 [    22]: 20112
      0.05118 [    10]: 11112
      0.04691 [    23]: 20121
      0.04533 [     8]: 10221
      0.04043 [    15]: 12012
      0.04040 [    18]: 12111
      0.04032 [    27]: 21102
      0.03530 [    13]: 11211
      0.02727 [    11]: 11121
      0.02602 [    32]: 22011
      0.02550 [    28]: 21111
      0.02061 [     3]: 02112
      0.01787 [    31]: 21210
      0.01399 [    30]: 21201
      0.01384 [    21]: 12210
      0.01270 [    34]: 22110
      0.00800 [     2]: 01221
      0.00783 [     5]: 02211
      0.00404 [     0]: 01122
ROOT  13:  E=   -2930.4917564457 Eh  1.613 eV  13010.2 cm**-1
      0.42637 [    24]: 20211
      0.11535 [     8]: 10221
      0.04894 [    18]: 12111
      0.04490 [    22]: 20112
      0.04115 [    11]: 11121
      0.03265 [    32]: 22011
      0.03212 [     5]: 02211
      0.02984 [    12]: 11202
      0.02980 [    28]: 21111
      0.02211 [    30]: 21201
      0.02191 [    20]: 12201
      0.02044 [    13]: 11211
      0.01947 [     3]: 02112
      0.01678 [     6]: 10122
      0.01604 [    17]: 12102
      0.01410 [    23]: 20121
      0.01188 [    33]: 22101
      0.01096 [    27]: 21102
      0.00869 [    10]: 11112
      0.00818 [    31]: 21210
      0.00746 [    15]: 12012
      0.00666 [    14]: 11220
      0.00602 [     2]: 01221
      0.00302 [    21]: 12210
ROOT  14:  E=   -2930.4895457838 Eh  1.673 eV  13495.4 cm**-1
      0.23386 [    28]: 21111
      0.15911 [    10]: 11112
      0.10266 [     1]: 01212
      0.05980 [     7]: 10212
      0.04812 [    24]: 20211
      0.03876 [    31]: 21210
      0.03639 [    11]: 11121
      0.03594 [    13]: 11211
      0.03384 [     0]: 01122
      0.03019 [     2]: 01221
      0.02484 [    27]: 21102
      0.02403 [    12]: 11202
      0.02260 [    15]: 12012
      0.02051 [    29]: 21120
      0.01701 [    33]: 22101
      0.01690 [    32]: 22011
      0.01587 [    17]: 12102
      0.01545 [    23]: 20121
      0.01326 [    14]: 11220
      0.01116 [    18]: 12111
      0.00987 [     6]: 10122
      0.00757 [    22]: 20112
      0.00438 [    30]: 21201
      0.00363 [    16]: 12021
      0.00319 [     8]: 10221
      0.00280 [    20]: 12201
      0.00270 [     9]: 11022
ROOT  15:  E=   -2930.4881292596 Eh  1.712 eV  13806.3 cm**-1
      0.17737 [    13]: 11211
      0.13038 [    30]: 21201
      0.10051 [    10]: 11112
      0.09997 [    11]: 11121
      0.09651 [     8]: 10221
      0.05617 [    12]: 11202
      0.04914 [    23]: 20121
      0.04239 [    25]: 21012
      0.03388 [    28]: 21111
      0.02591 [    26]: 21021
      0.02444 [     2]: 01221
      0.02307 [    24]: 20211
      0.02049 [     4]: 02121
      0.02021 [     6]: 10122
      0.01887 [    16]: 12021
      0.01772 [    22]: 20112
      0.01060 [     9]: 11022
      0.01004 [    20]: 12201
      0.00828 [     5]: 02211
      0.00804 [    31]: 21210
      0.00615 [    18]: 12111
      0.00573 [     0]: 01122
      0.00486 [    27]: 21102
ROOT  16:  E=   -2930.4861833526 Eh  1.765 eV  14233.4 cm**-1
      0.30145 [    28]: 21111
      0.15585 [    11]: 11121
      0.13971 [    13]: 11211
      0.10566 [    10]: 11112
      0.06769 [    23]: 20121
      0.03262 [    14]: 11220
      0.03150 [     8]: 10221
      0.03057 [    29]: 21120
      0.01992 [    18]: 12111
      0.01927 [    31]: 21210
      0.01599 [     4]: 02121
      0.01125 [    24]: 20211
      0.00975 [    25]: 21012
      0.00777 [    32]: 22011
      0.00772 [    27]: 21102
      0.00657 [    12]: 11202
      0.00569 [     1]: 01212
      0.00569 [    16]: 12021
      0.00440 [     3]: 02112
      0.00411 [     5]: 02211
      0.00301 [    19]: 12120
      0.00259 [    22]: 20112
ROOT  17:  E=   -2930.4829879128 Eh  1.852 eV  14934.7 cm**-1
      0.16826 [    11]: 11121
      0.11000 [    26]: 21021
      0.10120 [    13]: 11211
      0.08914 [    23]: 20121
      0.06273 [     8]: 10221
      0.04688 [    30]: 21201
      0.04585 [    18]: 12111
      0.04583 [     4]: 02121
      0.03992 [    28]: 21111
      0.03480 [     7]: 10212
      0.03362 [    22]: 20112
      0.03263 [    32]: 22011
      0.03222 [    25]: 21012
      0.02399 [     2]: 01221
      0.02167 [    12]: 11202
      0.01755 [    15]: 12012
      0.01350 [    16]: 12021
      0.01219 [     9]: 11022
      0.01179 [     6]: 10122
      0.01117 [    29]: 21120
      0.01017 [    10]: 11112
      0.01002 [     3]: 02112
      0.00504 [    24]: 20211
      0.00469 [    14]: 11220
      0.00454 [    19]: 12120
      0.00392 [    33]: 22101
      0.00363 [    27]: 21102
ROOT  18:  E=   -2930.4822460617 Eh  1.872 eV  15097.5 cm**-1
      0.12305 [    11]: 11121
      0.09862 [    10]: 11112
      0.08674 [    15]: 12012
      0.07871 [    28]: 21111
      0.06507 [    23]: 20121
      0.05818 [    13]: 11211
      0.05023 [    18]: 12111
      0.04965 [     0]: 01122
      0.04784 [    30]: 21201
      0.04033 [    29]: 21120
      0.03994 [     6]: 10122
      0.03734 [     4]: 02121
      0.03226 [    26]: 21021
      0.02235 [    20]: 12201
      0.02168 [     2]: 01221
      0.02007 [     9]: 11022
      0.01888 [    16]: 12021
      0.01833 [    24]: 20211
      0.01616 [    22]: 20112
      0.01362 [     8]: 10221
      0.01330 [    14]: 11220
      0.01164 [    27]: 21102
      0.01076 [     7]: 10212
      0.00787 [    12]: 11202
      0.00683 [    33]: 22101
      0.00445 [     3]: 02112
      0.00313 [    21]: 12210
ROOT  19:  E=   -2930.4818361813 Eh  1.883 eV  15187.5 cm**-1
      0.10017 [    10]: 11112
      0.07976 [    28]: 21111
      0.07524 [    17]: 12102
      0.06779 [     3]: 02112
      0.06496 [    11]: 11121
      0.06436 [    26]: 21021
      0.05166 [     2]: 01221
      0.04963 [    18]: 12111
      0.04282 [     4]: 02121
      0.04158 [     8]: 10221
      0.03995 [     9]: 11022
      0.03649 [    13]: 11211
      0.03451 [     1]: 01212
      0.03010 [     6]: 10122
      0.02406 [     5]: 02211
      0.02366 [    25]: 21012
      0.02005 [    27]: 21102
      0.01829 [    12]: 11202
      0.01791 [    22]: 20112
      0.01738 [    16]: 12021
      0.01590 [    29]: 21120
      0.01551 [    15]: 12012
      0.01353 [    20]: 12201
      0.01059 [    32]: 22011
      0.00971 [    33]: 22101
      0.00845 [    23]: 20121
      0.00595 [    31]: 21210
      0.00566 [    21]: 12210
      0.00413 [    14]: 11220
      0.00379 [     7]: 10212
      0.00271 [    19]: 12120
ROOT  20:  E=   -2930.4807267050 Eh  1.913 eV  15431.0 cm**-1
      0.20104 [    10]: 11112
      0.11879 [    11]: 11121
      0.09608 [     9]: 11022
      0.08273 [    13]: 11211
      0.07469 [     6]: 10122
      0.06439 [    23]: 20121
      0.05355 [    17]: 12102
      0.05053 [    18]: 12111
      0.03872 [     3]: 02112
      0.03105 [    14]: 11220
      0.02694 [    34]: 22110
      0.02384 [    26]: 21021
      0.02251 [    33]: 22101
      0.02153 [    12]: 11202
      0.01945 [     2]: 01221
      0.01356 [     5]: 02211
      0.01212 [    32]: 22011
      0.01055 [    15]: 12012
      0.00915 [    22]: 20112
      0.00891 [     1]: 01212
      0.00763 [    24]: 20211
      0.00325 [    28]: 21111
ROOT  21:  E=   -2930.4804012442 Eh  1.922 eV  15502.4 cm**-1
      0.12519 [    10]: 11112
      0.11383 [    28]: 21111
      0.10286 [     7]: 10212
      0.10196 [     6]: 10122
      0.06515 [    31]: 21210
      0.04830 [    27]: 21102
      0.04629 [    17]: 12102
      0.04408 [    13]: 11211
      0.04244 [     9]: 11022
      0.03603 [     3]: 02112
      0.03042 [     1]: 01212
      0.02937 [     8]: 10221
      0.02832 [    12]: 11202
      0.02560 [     2]: 01221
      0.02310 [    18]: 12111
      0.02124 [    20]: 12201
      0.01839 [    33]: 22101
      0.01795 [    19]: 12120
      0.01316 [    11]: 11121
      0.01162 [    16]: 12021
      0.01153 [    34]: 22110
      0.00809 [    15]: 12012
      0.00727 [    29]: 21120
      0.00693 [    21]: 12210
      0.00563 [    14]: 11220
      0.00467 [     0]: 01122
      0.00416 [    24]: 20211
      0.00281 [    25]: 21012
ROOT  22:  E=   -2930.4795408497 Eh  1.945 eV  15691.2 cm**-1
      0.10721 [    10]: 11112
      0.09349 [     0]: 01122
      0.08432 [    28]: 21111
      0.08368 [    16]: 12021
      0.08097 [    30]: 21201
      0.07709 [     8]: 10221
      0.06282 [    17]: 12102
      0.05905 [    33]: 22101
      0.05880 [    13]: 11211
      0.04493 [     3]: 02112
      0.04126 [    11]: 11121
      0.02239 [    24]: 20211
      0.02113 [     5]: 02211
      0.02092 [    31]: 21210
      0.02000 [     6]: 10122
      0.01625 [    25]: 21012
      0.01552 [    19]: 12120
      0.01350 [    22]: 20112
      0.01190 [    23]: 20121
      0.01006 [     9]: 11022
      0.00926 [    27]: 21102
      0.00807 [    12]: 11202
      0.00778 [    20]: 12201
      0.00742 [    21]: 12210
      0.00728 [    18]: 12111
      0.00372 [    29]: 21120
      0.00339 [    14]: 11220
ROOT  23:  E=   -2930.4770430192 Eh  2.013 eV  16239.4 cm**-1
      0.28784 [    10]: 11112
      0.18613 [    11]: 11121
      0.12067 [     3]: 02112
      0.09789 [    15]: 12012
      0.04108 [    17]: 12102
      0.03775 [    24]: 20211
      0.03538 [    18]: 12111
      0.02728 [     7]: 10212
      0.02082 [     5]: 02211
      0.01841 [     1]: 01212
      0.01707 [    22]: 20112
      0.01693 [    25]: 21012
      0.01669 [    28]: 21111
      0.01425 [    13]: 11211
      0.01196 [    27]: 21102
      0.01069 [     2]: 01221
      0.00828 [    26]: 21021
      0.00743 [     0]: 01122
      0.00651 [    29]: 21120
      0.00397 [    23]: 20121
      0.00278 [     4]: 02121
      0.00269 [    14]: 11220
ROOT  24:  E=   -2930.4736760433 Eh  2.105 eV  16978.4 cm**-1
      0.19477 [    18]: 12111
      0.17147 [    20]: 12201
      0.11324 [    16]: 12021
      0.08650 [    15]: 12012
      0.04555 [    32]: 22011
      0.04443 [    28]: 21111
      0.03927 [    26]: 21021
      0.03640 [    10]: 11112
      0.03611 [     5]: 02211
      0.03353 [    19]: 12120
      0.02667 [    29]: 21120
      0.02269 [    11]: 11121
      0.02125 [    34]: 22110
      0.02077 [     4]: 02121
      0.01963 [    21]: 12210
      0.01801 [    31]: 21210
      0.01271 [     3]: 02112
      0.01228 [    25]: 21012
      0.00756 [     1]: 01212
      0.00582 [    33]: 22101
      0.00568 [     0]: 01122
      0.00531 [    13]: 11211
      0.00428 [     9]: 11022
      0.00401 [     6]: 10122
      0.00396 [    27]: 21102
      0.00255 [     7]: 10212
ROOT  25:  E=   -2930.4726577250 Eh  2.133 eV  17201.9 cm**-1
      0.15943 [    28]: 21111
      0.13796 [    13]: 11211
      0.10082 [    30]: 21201
      0.09239 [    11]: 11121
      0.08659 [    18]: 12111
      0.08649 [    33]: 22101
      0.04835 [     6]: 10122
      0.04387 [    16]: 12021
      0.03491 [    10]: 11112
      0.03048 [    20]: 12201
      0.02388 [    32]: 22011
      0.02382 [     8]: 10221
      0.01870 [     0]: 01122
      0.01421 [     7]: 10212
      0.01404 [    29]: 21120
      0.01235 [    14]: 11220
      0.01177 [    15]: 12012
      0.01138 [    19]: 12120
      0.01085 [     3]: 02112
      0.01077 [    25]: 21012
      0.00837 [    23]: 20121
      0.00549 [    24]: 20211
      0.00382 [    27]: 21102
      0.00260 [    21]: 12210
ROOT  26:  E=   -2930.4712018419 Eh  2.172 eV  17521.4 cm**-1
      0.23023 [    13]: 11211
      0.11357 [    10]: 11112
      0.09404 [    12]: 11202
      0.08635 [    11]: 11121
      0.07816 [     9]: 11022
      0.07097 [    23]: 20121
      0.07050 [     1]: 01212
      0.06510 [    25]: 21012
      0.02652 [    28]: 21111
      0.02591 [     8]: 10221
      0.02277 [    27]: 21102
      0.02022 [     0]: 01122
      0.01857 [     2]: 01221
      0.01517 [    16]: 12021
      0.01375 [    24]: 20211
      0.01219 [    26]: 21021
      0.00926 [     4]: 02121
      0.00507 [    18]: 12111
      0.00464 [    33]: 22101
      0.00352 [    20]: 12201
      0.00291 [    30]: 21201
ROOT  27:  E=   -2930.4676273765 Eh  2.270 eV  18305.9 cm**-1
      0.13677 [    17]: 12102
      0.11012 [    28]: 21111
      0.09195 [    34]: 22110
      0.09178 [    21]: 12210
      0.06331 [    31]: 21210
      0.05228 [    33]: 22101
      0.04396 [     5]: 02211
      0.04332 [    11]: 11121
      0.04197 [    30]: 21201
      0.04159 [    32]: 22011
      0.04110 [    27]: 21102
      0.04043 [    13]: 11211
      0.03655 [     3]: 02112
      0.03492 [    10]: 11112
      0.02655 [    18]: 12111
      0.02109 [     1]: 01212
      0.01594 [    14]: 11220
      0.01446 [    19]: 12120
      0.01030 [    26]: 21021
      0.00711 [    23]: 20121
      0.00596 [    15]: 12012
      0.00596 [     4]: 02121
      0.00481 [    22]: 20112
      0.00404 [     8]: 10221
ROOT  28:  E=   -2930.4637575576 Eh  2.375 eV  19155.3 cm**-1
      0.26049 [    18]: 12111
      0.09644 [    22]: 20112
      0.09376 [    33]: 22101
      0.07452 [    34]: 22110
      0.07151 [     7]: 10212
      0.05242 [    32]: 22011
      0.05001 [     8]: 10221
      0.03787 [     6]: 10122
      0.03595 [    19]: 12120
      0.03074 [     5]: 02211
      0.03053 [     4]: 02121
      0.02731 [    21]: 12210
      0.01913 [    24]: 20211
      0.01558 [    23]: 20121
      0.01545 [    26]: 21021
      0.01360 [    13]: 11211
      0.00992 [    15]: 12012
      0.00922 [    20]: 12201
      0.00804 [    11]: 11121
      0.00748 [    10]: 11112
      0.00608 [    16]: 12021
      0.00586 [     9]: 11022
      0.00475 [    28]: 21111
      0.00443 [    14]: 11220
      0.00417 [     2]: 01221
      0.00395 [     3]: 02112
      0.00392 [    30]: 21201
      0.00376 [    25]: 21012
ROOT  29:  E=   -2930.4291979385 Eh  3.315 eV  26740.2 cm**-1
      0.11957 [    25]: 21012
      0.11857 [    26]: 21021
      0.11245 [    30]: 21201
      0.09085 [    13]: 11211
      0.06001 [    11]: 11121
      0.05922 [    28]: 21111
      0.04380 [    12]: 11202
      0.03806 [     8]: 10221
      0.03410 [     2]: 01221
      0.03365 [    31]: 21210
      0.03269 [     1]: 01212
      0.02945 [    33]: 22101
      0.02833 [    18]: 12111
      0.02563 [    10]: 11112
      0.02165 [    24]: 20211
      0.01927 [    23]: 20121
      0.01683 [    34]: 22110
      0.01447 [    16]: 12021
      0.01228 [    22]: 20112
      0.01075 [    27]: 21102
      0.01053 [    29]: 21120
      0.01051 [    32]: 22011
      0.00891 [     7]: 10212
      0.00860 [    19]: 12120
      0.00744 [     6]: 10122
      0.00586 [    15]: 12012
      0.00584 [    17]: 12102
      0.00458 [     9]: 11022
      0.00406 [    14]: 11220
      0.00284 [    20]: 12201
      0.00259 [    21]: 12210
ROOT  30:  E=   -2930.4246303644 Eh  3.440 eV  27742.7 cm**-1
      0.22558 [    18]: 12111
      0.20636 [    23]: 20121
      0.10744 [     4]: 02121
      0.08684 [    24]: 20211
      0.06284 [    16]: 12021
      0.05992 [    32]: 22011
      0.04643 [     5]: 02211
      0.03729 [    33]: 22101
      0.02743 [    20]: 12201
      0.01615 [     8]: 10221
      0.01510 [    28]: 21111
      0.01234 [     6]: 10122
      0.01194 [     3]: 02112
      0.00950 [    13]: 11211
      0.00947 [     0]: 01122
      0.00928 [     9]: 11022
      0.00841 [    25]: 21012
      0.00834 [    19]: 12120
      0.00727 [     2]: 01221
      0.00710 [    17]: 12102
      0.00636 [    34]: 22110
      0.00610 [    10]: 11112
      0.00402 [    21]: 12210
ROOT  31:  E=   -2930.4242868925 Eh  3.449 eV  27818.1 cm**-1
      0.17798 [     9]: 11022
      0.09804 [    13]: 11211
      0.09532 [    26]: 21021
      0.07016 [     0]: 01122
      0.06474 [    12]: 11202
      0.05344 [    27]: 21102
      0.05233 [    18]: 12111
      0.04323 [     2]: 01221
      0.04252 [     1]: 01212
      0.03988 [    15]: 12012
      0.03946 [    28]: 21111
      0.03456 [     6]: 10122
      0.03169 [    25]: 21012
      0.01947 [    32]: 22011
      0.01791 [    17]: 12102
      0.01646 [     8]: 10221
      0.01555 [     7]: 10212
      0.01531 [    16]: 12021
      0.01487 [    10]: 11112
      0.01108 [    24]: 20211
      0.00952 [    14]: 11220
      0.00862 [    29]: 21120
      0.00777 [    11]: 11121
      0.00642 [    19]: 12120
      0.00498 [    30]: 21201
      0.00343 [    33]: 22101
      0.00251 [    31]: 21210
ROOT  32:  E=   -2930.4197628564 Eh  3.572 eV  28811.0 cm**-1
      0.18559 [    22]: 20112
      0.14286 [     3]: 02112
      0.09175 [     7]: 10212
      0.08923 [    15]: 12012
      0.07821 [    18]: 12111
      0.07258 [     5]: 02211
      0.06201 [     4]: 02121
      0.05608 [     6]: 10122
      0.05334 [    17]: 12102
      0.04936 [    16]: 12021
      0.03844 [    20]: 12201
      0.01367 [     8]: 10221
      0.01209 [    21]: 12210
      0.01033 [    33]: 22101
      0.00931 [    28]: 21111
      0.00817 [    24]: 20211
      0.00556 [    32]: 22011
      0.00532 [    11]: 11121
      0.00488 [    10]: 11112
      0.00376 [    13]: 11211
ROOT  33:  E=   -2930.4171573962 Eh  3.643 eV  29382.8 cm**-1
      0.14082 [    32]: 22011
      0.11430 [    18]: 12111
      0.08032 [    34]: 22110
      0.07201 [     8]: 10221
      0.05721 [    33]: 22101
      0.05241 [    25]: 21012
      0.04635 [    24]: 20211
      0.04545 [    28]: 21111
      0.04160 [    23]: 20121
      0.03921 [    21]: 12210
      0.03558 [    20]: 12201
      0.02961 [    13]: 11211
      0.02899 [    12]: 11202
      0.02746 [    26]: 21021
      0.02689 [    19]: 12120
      0.01861 [    30]: 21201
      0.01689 [    27]: 21102
      0.01582 [     6]: 10122
      0.01384 [     9]: 11022
      0.01353 [     7]: 10212
      0.01322 [    16]: 12021
      0.01286 [    11]: 11121
      0.01027 [    22]: 20112
      0.00970 [     1]: 01212
      0.00885 [    10]: 11112
      0.00831 [    15]: 12012
      0.00713 [    29]: 21120
      0.00347 [    17]: 12102
ROOT  34:  E=   -2930.4140656028 Eh  3.727 eV  30061.4 cm**-1
      0.20365 [    18]: 12111
      0.13217 [    15]: 12012
      0.11224 [    17]: 12102
      0.08598 [     6]: 10122
      0.08581 [    16]: 12021
      0.07283 [     7]: 10212
      0.04430 [    20]: 12201
      0.04126 [    19]: 12120
      0.03633 [     9]: 11022
      0.02399 [    21]: 12210
      0.01919 [    13]: 11211
      0.01585 [    28]: 21111
      0.01514 [     8]: 10221
      0.01431 [    26]: 21021
      0.01294 [    27]: 21102
      0.01215 [    12]: 11202
      0.01003 [    25]: 21012
      0.00888 [     0]: 01122
      0.00868 [    32]: 22011
      0.00779 [    10]: 11112
      0.00710 [     5]: 02211
      0.00637 [     2]: 01221
      0.00485 [     1]: 01212
      0.00344 [    23]: 20121
      0.00313 [    30]: 21201
      0.00263 [    11]: 11121
ROOT  35:  E=   -2930.3862376719 Eh  4.484 eV  36168.9 cm**-1
      0.11958 [    20]: 12201
      0.11521 [    16]: 12021
      0.10159 [    32]: 22011
      0.09014 [     8]: 10221
      0.07698 [     5]: 02211
      0.07681 [    22]: 20112
      0.06681 [     7]: 10212
      0.05436 [    21]: 12210
      0.04654 [    34]: 22110
      0.04211 [    24]: 20211
      0.03976 [    23]: 20121
      0.03747 [    33]: 22101
      0.03000 [     4]: 02121
      0.02138 [    15]: 12012
      0.02068 [     6]: 10122
      0.01509 [     3]: 02112
      0.01353 [    19]: 12120
      0.00847 [    11]: 11121
      0.00437 [     9]: 11022
      0.00344 [    13]: 11211
      0.00275 [    18]: 12111
      0.00256 [    26]: 21021
ROOT  36:  E=   -2930.2627071967 Eh  7.846 eV  63280.7 cm**-1
      0.18035 [    18]: 12111
      0.17359 [    21]: 12210
      0.17058 [     5]: 02211
      0.10097 [     4]: 02121
      0.09813 [    19]: 12120
      0.08575 [     3]: 02112
      0.07030 [    16]: 12021
      0.06850 [    15]: 12012
      0.01266 [    20]: 12201
      0.00552 [    13]: 11211
      0.00453 [    11]: 11121
      0.00414 [     2]: 01221
      0.00377 [    10]: 11112
      0.00315 [    17]: 12102
      0.00300 [    34]: 22110
      0.00284 [    28]: 21111
ROOT  37:  E=   -2930.2578739477 Eh  7.977 eV  64341.5 cm**-1
      0.22011 [    18]: 12111
      0.19686 [    34]: 22110
      0.13839 [    32]: 22011
      0.10453 [    21]: 12210
      0.10406 [     5]: 02211
      0.08410 [    19]: 12120
      0.06719 [     4]: 02121
      0.05701 [    16]: 12021
      0.00926 [     3]: 02112
      0.00563 [    15]: 12012
      0.00389 [    33]: 22101
ROOT  38:  E=   -2930.2486800468 Eh  8.228 eV  66359.3 cm**-1
      0.12901 [    11]: 11121
      0.12335 [     2]: 01221
      0.12000 [    13]: 11211
      0.10744 [    14]: 11220
      0.09612 [    28]: 21111
      0.09008 [    10]: 11112
      0.07840 [    31]: 21210
      0.06199 [     1]: 01212
      0.04865 [    25]: 21012
      0.03895 [    26]: 21021
      0.03843 [    29]: 21120
      0.01760 [    21]: 12210
      0.01010 [     9]: 11022
      0.00992 [    18]: 12111
      0.00946 [     0]: 01122
      0.00611 [     5]: 02211
      0.00551 [    30]: 21201
      0.00300 [    19]: 12120
ROOT  39:  E=   -2930.2351839303 Eh  8.595 eV  69321.4 cm**-1
      0.35087 [    22]: 20112
      0.26892 [     6]: 10122
      0.12668 [    23]: 20121
      0.11594 [     7]: 10212
      0.10242 [     8]: 10221
      0.01737 [    24]: 20211
      0.00379 [    10]: 11112
      0.00251 [    25]: 21012
ROOT  40:  E=   -2930.2183154188 Eh  9.054 eV  73023.6 cm**-1
      0.23478 [    10]: 11112
      0.11740 [     0]: 01122
      0.10418 [    11]: 11121
      0.10252 [    25]: 21012
      0.06891 [     2]: 01221
      0.06617 [     9]: 11022
      0.06415 [    27]: 21102
      0.06037 [     1]: 01212
      0.05032 [    26]: 21021
      0.03929 [    28]: 21111
      0.03373 [    13]: 11211
      0.02425 [    12]: 11202
      0.00784 [    30]: 21201
      0.00527 [    22]: 20112
      0.00400 [     6]: 10122
      0.00341 [    14]: 11220
      0.00283 [    29]: 21120
ROOT  41:  E=   -2930.2176540167 Eh  9.072 eV  73168.8 cm**-1
      0.21122 [    18]: 12111
      0.20357 [    20]: 12201
      0.14481 [    21]: 12210
      0.11720 [    17]: 12102
      0.10249 [    19]: 12120
      0.06320 [     5]: 02211
      0.04125 [     4]: 02121
      0.03392 [     3]: 02112
      0.01975 [    13]: 11211
      0.00703 [    27]: 21102
      0.00693 [    11]: 11121
      0.00608 [     1]: 01212
      0.00597 [    30]: 21201
      0.00517 [    33]: 22101
      0.00506 [    28]: 21111
      0.00462 [     2]: 01221
      0.00458 [    12]: 11202
      0.00316 [    34]: 22110
      0.00265 [    14]: 11220
ROOT  42:  E=   -2930.2123103596 Eh  9.217 eV  74341.5 cm**-1
      0.15518 [    25]: 21012
      0.13030 [    28]: 21111
      0.12797 [    10]: 11112
      0.11670 [     9]: 11022
      0.10884 [    11]: 11121
      0.10392 [    27]: 21102
      0.06564 [    13]: 11211
      0.06230 [    26]: 21021
      0.03881 [    12]: 11202
      0.03779 [    29]: 21120
      0.03469 [    14]: 11220
      0.00662 [    31]: 21210
      0.00595 [    30]: 21201
      0.00261 [     0]: 01122
ROOT  43:  E=   -2930.2042676294 Eh  9.436 eV  76106.7 cm**-1
      0.18438 [    13]: 11211
      0.09658 [    14]: 11220
      0.09302 [    30]: 21201
      0.08831 [    28]: 21111
      0.06734 [    31]: 21210
      0.06718 [    20]: 12201
      0.06115 [    12]: 11202
      0.05914 [    27]: 21102
      0.05069 [    21]: 12210
      0.04181 [    33]: 22101
      0.03808 [    29]: 21120
      0.03418 [     2]: 01221
      0.02212 [    10]: 11112
      0.02094 [    34]: 22110
      0.02000 [    11]: 11121
      0.01590 [     5]: 02211
      0.01590 [    18]: 12111
      0.01346 [     1]: 01212
      0.00365 [     0]: 01122
ROOT  44:  E=   -2930.2025068775 Eh  9.484 eV  76493.2 cm**-1
      0.20821 [    33]: 22101
      0.17884 [    18]: 12111
      0.12384 [    34]: 22110
      0.10163 [    20]: 12201
      0.06970 [    19]: 12120
      0.05529 [    21]: 12210
      0.04115 [     5]: 02211
      0.03969 [    13]: 11211
      0.03902 [     4]: 02121
      0.02204 [    14]: 11220
      0.01516 [    28]: 21111
      0.01462 [    17]: 12102
      0.01397 [    30]: 21201
      0.01276 [    12]: 11202
      0.01134 [    27]: 21102
      0.01107 [    31]: 21210
      0.00898 [     2]: 01221
      0.00707 [    10]: 11112
      0.00589 [    29]: 21120
      0.00514 [    11]: 11121
      0.00439 [    32]: 22011
      0.00385 [     1]: 01212
      0.00314 [     3]: 02112

                 <<<<<<<<<<<<<<<<<<INITIAL CI STATE CHECK>>>>>>>>>>>>>>>>>>

   E(CAS)= -2930.489883912 Eh DE=    0.000000e+00
   --- Energy gap subspaces: Ext-Act = 0.127   Act-Int = 0.053
   N(occ)=  1.20000 1.20000 1.20000 1.20000 1.20000
   ||g|| =     9.846861e-04 Max(G)=    1.612970e-04 Rot=158,143
                     ---- THE CAS-SCF GRADIENT HAS CONVERGED ----
                            --- FINALIZING ORBITALS ---
                    ---- DOING ONE FINAL ITERATION FOR PRINTING ----
   --- Forming Natural Orbitals
   --- Canonicalize Internal Space
   --- Canonicalize External Space

MACRO-ITERATION   2: 
   --- Inactive Energy E0 = -2922.60854961 Eh
   --- All densities will be recomputed
CI-ITERATION   0: 
 -2930.568768988   0.000000000000 (    0.25)
 -2930.564650758   0.000000000000
 -2930.540451324   0.000000000000
 -2930.535229198   0.000000000000
 -2930.533249435   0.000000000000
   CI-PROBLEM SOLVED
   DENSITIES MADE
CI-ITERATION   0: 
 -2930.551035384   0.000000000000 (    1.60)
 -2930.540597125   0.000000000000
 -2930.535204171   0.000000000000
 -2930.528930325   0.000000000000
 -2930.526887871   0.000000000000
 -2930.521642296   0.000000000000
 -2930.518190447   0.000000000000
 -2930.517949095   0.000000000000
 -2930.515751163   0.000000000000
 -2930.511696990   0.000000000000
 -2930.507198270   0.000000000000
 -2930.496214443   0.000000000000
 -2930.492951712   0.000000000000
 -2930.491756447   0.000000000000
 -2930.489545784   0.000000000000
 -2930.488129260   0.000000000000
 -2930.486183353   0.000000000000
 -2930.482987913   0.000000000000
 -2930.482246062   0.000000000000
 -2930.481836181   0.000000000000
 -2930.480726705   0.000000000000
 -2930.480401245   0.000000000000
 -2930.479540850   0.000000000000
 -2930.477043019   0.000000000000
 -2930.473676042   0.000000000000
 -2930.472657725   0.000000000000
 -2930.471201842   0.000000000000
 -2930.467627376   0.000000000000
 -2930.463757557   0.000000000000
 -2930.429197938   0.000000000000
 -2930.424630364   0.000000000000
 -2930.424286892   0.000000000000
 -2930.419762856   0.000000000000
 -2930.417157396   0.000000000000
 -2930.414065602   0.000000000000
 -2930.386237672   0.000000000000
 -2930.262707195   0.000000000000
 -2930.257873946   0.000000000000
 -2930.248680047   0.000000000000
 -2930.235183932   0.000000000000
 -2930.218315418   0.000000000000
 -2930.217654016   0.000000000000
 -2930.212310359   0.000000000000
 -2930.204267630   0.000000000000
 -2930.202506877   0.000000000000
   CI-PROBLEM SOLVED
   DENSITIES MADE
   E(CAS)= -2930.489883912 Eh DE=    1.850822e-10
   --- Energy gap subspaces: Ext-Act = 0.127   Act-Int = 0.048
   N(occ)=  1.20000 1.20000 1.20000 1.20000 1.20000
   ||g|| =     9.846861e-04 Max(G)=   -1.577414e-04 Rot=158,142
--------------
CASSCF RESULTS
--------------

Final CASSCF energy       : -2930.489883912 Eh  -79742.6838 eV

----------------
ORBITAL ENERGIES
----------------

  NO   OCC          E(Eh)            E(eV) 
   0   2.0000    -220.600093     -6002.8337 
   1   2.0000     -26.453456      -719.8351 
   2   2.0000     -22.383218      -609.0783 
   3   2.0000     -22.381505      -609.0317 
   4   2.0000     -22.380831      -609.0134 
   5   2.0000      -4.715337      -128.3109 
   6   2.0000      -4.715217      -128.3076 
   7   2.0000      -4.714585      -128.2904 
   8   2.0000      -4.714375      -128.2847 
   9   2.0000      -4.714182      -128.2794 
  10   2.0000      -4.713925      -128.2724 
  11   2.0000      -4.711024      -128.1935 
  12   2.0000      -4.710604      -128.1821 
  13   2.0000      -4.710004      -128.1657 
  14   2.0000      -4.709727      -128.1582 
  15   2.0000      -4.706686      -128.0754 
  16   2.0000      -4.706644      -128.0743 
  17   2.0000      -4.703338      -127.9843 
  18   2.0000      -4.703086      -127.9775 
  19   2.0000      -3.495382       -95.1142 
  20   2.0000      -2.755843       -74.9903 
  21   2.0000      -2.755730       -74.9872 
  22   2.0000      -2.755415       -74.9787 
  23   2.0000      -2.755162       -74.9718 
  24   2.0000      -2.753151       -74.9170 
  25   2.0000      -2.752880       -74.9097 
  26   2.0000      -2.752070       -74.8876 
  27   2.0000      -2.751930       -74.8838 
  28   2.0000      -2.751787       -74.8799 
  29   2.0000      -2.751446       -74.8706 
  30   2.0000      -2.750415       -74.8426 
  31   2.0000      -2.750321       -74.8400 
  32   2.0000      -2.749825       -74.8265 
  33   2.0000      -2.749590       -74.8201 
  34   2.0000      -2.749224       -74.8102 
  35   2.0000      -2.748801       -74.7987 
  36   2.0000      -2.748350       -74.7864 
  37   2.0000      -2.747738       -74.7698 
  38   2.0000      -2.747654       -74.7675 
  39   2.0000      -2.747385       -74.7601 
  40   2.0000      -2.746881       -74.7464 
  41   2.0000      -2.746631       -74.7396 
  42   2.0000      -2.746093       -74.7250 
  43   2.0000      -2.745869       -74.7189 
  44   2.0000      -2.745460       -74.7078 
  45   2.0000      -2.744978       -74.6947 
  46   2.0000      -2.744902       -74.6926 
  47   2.0000      -2.744026       -74.6688 
  48   2.0000      -2.743713       -74.6602 
  49   2.0000      -2.743268       -74.6481 
  50   2.0000      -2.742539       -74.6283 
  51   2.0000      -2.742375       -74.6238 
  52   2.0000      -2.740511       -74.5731 
  53   2.0000      -2.740438       -74.5711 
  54   2.0000      -2.740135       -74.5629 
  55   2.0000      -2.739627       -74.5490 
  56   2.0000      -2.739259       -74.5390 
  57   2.0000      -2.738981       -74.5315 
  58   2.0000      -2.737325       -74.4864 
  59   2.0000      -2.737080       -74.4797 
  60   2.0000      -2.736863       -74.4738 
  61   2.0000      -2.736695       -74.4693 
  62   2.0000      -2.251838       -61.2756 
  63   2.0000      -2.250150       -61.2297 
  64   2.0000      -2.249743       -61.2186 
  65   2.0000      -0.578472       -15.7410 
  66   2.0000      -0.551890       -15.0177 
  67   2.0000      -0.551139       -14.9973 
  68   2.0000      -0.548823       -14.9342 
  69   2.0000      -0.546496       -14.8709 
  70   2.0000      -0.544999       -14.8302 
  71   2.0000      -0.543685       -14.7944 
  72   2.0000      -0.542371       -14.7587 
  73   2.0000      -0.540647       -14.7117 
  74   2.0000      -0.538393       -14.6504 
  75   2.0000      -0.538082       -14.6420 
  76   2.0000      -0.536489       -14.5986 
  77   2.0000      -0.536351       -14.5949 
  78   2.0000      -0.534628       -14.5480 
  79   2.0000      -0.533231       -14.5100 
  80   2.0000      -0.531235       -14.4556 
  81   2.0000      -0.528249       -14.3744 
  82   2.0000      -0.528194       -14.3729 
  83   2.0000      -0.525878       -14.3099 
  84   2.0000      -0.525785       -14.3073 
  85   2.0000      -0.523974       -14.2580 
  86   2.0000      -0.519225       -14.1288 
  87   2.0000      -0.518257       -14.1025 
  88   2.0000      -0.517020       -14.0688 
  89   2.0000      -0.508299       -13.8315 
  90   2.0000      -0.499220       -13.5845 
  91   2.0000      -0.498801       -13.5731 
  92   2.0000      -0.497224       -13.5302 
  93   2.0000      -0.495278       -13.4772 
  94   2.0000      -0.492117       -13.3912 
  95   2.0000      -0.490537       -13.3482 
  96   2.0000      -0.487079       -13.2541 
  97   2.0000      -0.483644       -13.1606 
  98   2.0000      -0.482210       -13.1216 
  99   2.0000      -0.471845       -12.8396 
 100   2.0000      -0.471217       -12.8225 
 101   2.0000      -0.467962       -12.7339 
 102   2.0000      -0.466518       -12.6946 
 103   2.0000      -0.463428       -12.6105 
 104   2.0000      -0.459173       -12.4947 
 105   2.0000      -0.455986       -12.4080 
 106   2.0000      -0.455076       -12.3832 
 107   2.0000      -0.454554       -12.3690 
 108   2.0000      -0.452136       -12.3032 
 109   2.0000      -0.450665       -12.2632 
 110   2.0000      -0.449984       -12.2447 
 111   2.0000      -0.448893       -12.2150 
 112   2.0000      -0.447116       -12.1667 
 113   2.0000      -0.446817       -12.1585 
 114   2.0000      -0.445016       -12.1095 
 115   2.0000      -0.442953       -12.0534 
 116   2.0000      -0.442052       -12.0289 
 117   2.0000      -0.440578       -11.9887 
 118   2.0000      -0.437778       -11.9125 
 119   2.0000      -0.437622       -11.9083 
 120   2.0000      -0.436164       -11.8686 
 121   2.0000      -0.433226       -11.7887 
 122   2.0000      -0.432172       -11.7600 
 123   2.0000      -0.431582       -11.7440 
 124   2.0000      -0.429541       -11.6884 
 125   2.0000      -0.426475       -11.6050 
 126   2.0000      -0.425192       -11.5701 
 127   2.0000      -0.423949       -11.5362 
 128   2.0000      -0.422309       -11.4916 
 129   2.0000      -0.421193       -11.4612 
 130   2.0000      -0.418712       -11.3937 
 131   2.0000      -0.414929       -11.2908 
 132   2.0000      -0.410454       -11.1690 
 133   2.0000      -0.398405       -10.8412 
 134   2.0000      -0.394423       -10.7328 
 135   2.0000      -0.390210       -10.6182 
 136   2.0000      -0.365916        -9.9571 
 137   2.0000      -0.352319        -9.5871 
 138   2.0000      -0.342175        -9.3111 
 139   2.0000      -0.256599        -6.9824 
 140   2.0000      -0.253138        -6.8882 
 141   2.0000      -0.222886        -6.0650 
 142   1.2000      -0.169169        -4.6033 
 143   1.2000      -0.160868        -4.3774 
 144   1.2000      -0.151043        -4.1101 
 145   1.2000      -0.174606        -4.7513 
 146   1.2000      -0.156263        -4.2521 
 147   0.0000      -0.024186        -0.6581 
 148   0.0000       0.004017         0.1093 
 149   0.0000       0.013715         0.3732 
 150   0.0000       0.023231         0.6322 
 151   0.0000       0.027089         0.7371 
 152   0.0000       0.031920         0.8686 
 153   0.0000       0.046156         1.2560 
 154   0.0000       0.048980         1.3328 
 155   0.0000       0.049552         1.3484 
 156   0.0000       0.050979         1.3872 
 157   0.0000       0.054102         1.4722 
 158   0.0000       0.057208         1.5567 
 159   0.0000       0.065586         1.7847 
 160   0.0000       0.073825         2.0089 
 161   0.0000       0.077620         2.1122 
 162   0.0000       0.099646         2.7115 
 163   0.0000       0.106091         2.8869 
 164   0.0000       0.107989         2.9385 
 165   0.0000       0.124851         3.3974 
 166   0.0000       0.128940         3.5086 
 167   0.0000       0.131643         3.5822 
 168   0.0000       0.135505         3.6873 
 169   0.0000       0.139501         3.7960 
 170   0.0000       0.139783         3.8037 
 171   0.0000       0.141558         3.8520 
[...]
 3 117 1523507.7      6.6   0.000000000   0.00000   0.00083   0.00155   0.00105
 3 118 1523508.0      6.6   0.000000000   0.00001   0.00171   0.00121   0.00142
 3 119 1523509.4      6.6   0.000000000   0.00000   0.00122   0.00069   0.00147
 3 120 1523510.8      6.6   0.000000000   0.00001   0.00107   0.00255   0.00085
 3 121 1523511.0      6.6   0.000000000   0.00001   0.00170   0.00173   0.00017
 3 122 1525002.0      6.6   0.000000000   0.00000   0.00072   0.00148   0.00009
 3 123 1525003.7      6.6   0.000000000   0.00045   0.01644   0.01190   0.00606
 3 124 1525004.0      6.6   0.000000000   0.00016   0.00973   0.00757   0.00327
 3 125 1525997.9      6.6   0.000000000   0.00000   0.00033   0.00047   0.00039
 3 126 1525999.4      6.6   0.000000000   0.00000   0.00073   0.00033   0.00153
 3 127 1526000.7      6.6   0.000000000   0.00000   0.00137   0.00086   0.00089
 3 128 1526006.5      6.6   0.000000000   0.00000   0.00000   0.00019   0.00009
 3 129 1526006.6      6.6   0.000000000   0.00000   0.00007   0.00001   0.00018
 3 130 1526174.8      6.6   0.000000000   0.00000   0.00087   0.00087   0.00101
 3 131 1526176.7      6.6   0.000000000   0.00001   0.00112   0.00196   0.00011
 3 132 1526180.0      6.6   0.000000000   0.00052   0.01883   0.01281   0.00217
 3 133 1526273.5      6.6   0.000000000   0.00000   0.00063   0.00033   0.00044
 3 134 1526278.8      6.6   0.000000000   0.00000   0.00035   0.00025   0.00097
 3 135 1526331.7      6.6   0.000000000   0.00008   0.00774   0.00366   0.00154
 3 136 1526425.6      6.6   0.000000000   0.00010   0.00883   0.00237   0.00389
 3 137 1526483.8      6.6   0.000000000   0.00000   0.00103   0.00018   0.00067
 3 138 1526484.3      6.6   0.000000000   0.00000   0.00036   0.00060   0.00005
 3 139 1526856.5      6.5   0.000000000   0.00213   0.03163   0.03313   0.00521
 3 140 1526857.0      6.5   0.000000000   0.00003   0.00376   0.00408   0.00195
 3 141 1526857.8      6.5   0.000000000   0.00006   0.00537   0.00555   0.00023
 3 142 1529682.2      6.5   0.000000000   0.00022   0.00031   0.00154   0.01477
 3 143 1529682.6      6.5   0.000000000   0.01898   0.00836   0.00996   0.13717
 3 144 1529682.8      6.5   0.000000000   0.00010   0.00066   0.00079   0.00990
 3 145 1542090.9      6.5   0.000000000   0.00002   0.00070   0.00077   0.00377
 3 146 1542091.2      6.5   0.000000000   0.00003   0.00066   0.00145   0.00543
 3 147 1542091.3      6.5   0.000000000   0.00992   0.01105   0.02535   0.09568
 3 148 1619936.1      6.2   0.000000000   0.00000   0.00022   0.00005   0.00013
 3 149 1619936.2      6.2   0.000000000   0.00001   0.00311   0.00072   0.00206
 3 150 1619936.2      6.2   0.000000000   0.00000   0.00007   0.00000   0.00008
 3 151 1639851.3      6.1   0.000000000   0.00000   0.00035   0.00117   0.00091
 3 152 1639851.4      6.1   0.000000000   0.00007   0.00208   0.00622   0.00487
 3 153 1639851.6      6.1   0.000000000   0.00001   0.00071   0.00211   0.00164
 3 154 1713505.6      5.8   0.000000000   0.00005   0.00571   0.00426   0.00087
 3 155 1713505.7      5.8   0.000000000   0.00038   0.01545   0.01152   0.00236
 3 156 1713505.7      5.8   0.000000000   0.00000   0.00103   0.00078   0.00017
 3 157 2035685.1      4.9   0.000000000   0.00000   0.00002   0.00005   0.00011
 3 158 2035685.1      4.9   0.000000000   0.00001   0.00058   0.00135   0.00320
 3 159 2035685.1      4.9   0.000000000   0.00930   0.01547   0.03749   0.08750
 4  5       0.0   2928304651.3   0.000000000   0.00000   0.00000   0.00000   0.00000
 4  6 1148564.1      8.7   0.000000000   0.00001   0.00173   0.00045   0.00237
 4  7 1148564.2      8.7   0.000000000   0.00000   0.00013   0.00003   0.00017
 4  8 1148564.2      8.7   0.000000000   0.00000   0.00006   0.00001   0.00008
 4  9 1419944.3      7.0   0.000000000   0.00002   0.00460   0.00107   0.00078
 4 10 1419944.3      7.0   0.000000000   0.00000   0.00196   0.00044   0.00033
 4 11 1419944.3      7.0   0.000000000   0.00003   0.00568   0.00131   0.00096
 4 12 1477058.6      6.8   0.000000000   0.00000   0.00014   0.00024   0.00032
 4 13 1477058.6      6.8   0.000000000   0.00000   0.00039   0.00041   0.00121
 4 14 1477058.9      6.8   0.000000000   0.00000   0.00085   0.00058   0.00010
 4 15 1477059.2      6.8   0.000000000   0.00000   0.00009   0.00010   0.00008
 4 16 1477059.3      6.8   0.000000000   0.00000   0.00012   0.00002   0.00010
 4 17 1483692.5      6.7   0.000000000   0.00000   0.00047   0.00124   0.00063
 4 18 1483692.5      6.7   0.000000000   0.00000   0.00088   0.00125   0.00131
 4 19 1483693.2      6.7   0.000000000   0.00000   0.00055   0.00015   0.00020
 4 20 1483693.3      6.7   0.000000000   0.00000   0.00007   0.00048   0.00027
 4 21 1483693.4      6.7   0.000000000   0.00000   0.00024   0.00015   0.00024
 4 22 1484819.1      6.7   0.000000000   0.00258   0.02281   0.02468   0.03808
 4 23 1484819.3      6.7   0.000000000   0.00040   0.00844   0.01021   0.01508
 4 24 1484819.4      6.7   0.000000000   0.01574   0.05634   0.06107   0.09400
 4 25 1488486.8      6.7   0.000000000   0.00050   0.01158   0.01065   0.01574
 4 26 1488486.9      6.7   0.000000000   0.00007   0.00472   0.00435   0.00504
 4 27 1488487.1      6.7   0.000000000   0.00549   0.04075   0.03960   0.04760
 4 28 1494899.4      6.7   0.000000000   0.00000   0.00037   0.00079   0.00136
 4 29 1494899.7      6.7   0.000000000   0.00013   0.00176   0.00542   0.00972
 4 30 1494899.8      6.7   0.000000000   0.00053   0.00367   0.01098   0.01982
 4 31 1497704.1      6.7   0.000000000   0.00048   0.01595   0.00451   0.01427
 4 32 1497705.3      6.7   0.000000000   0.00009   0.00778   0.00296   0.00457
 4 33 1497705.6      6.7   0.000000000   0.00226   0.03503   0.01033   0.03048
 4 34 1500950.0      6.7   0.000000000   0.01494   0.05869   0.01696   0.10589
 4 35 1500953.1      6.7   0.000000000   0.01139   0.03800   0.02006   0.09771
 4 36 1500956.2      6.7   0.000000000   0.00157   0.01135   0.00311   0.03782
 4 37 1500993.5      6.7   0.000000000   0.00086   0.01140   0.01369   0.02336
 4 38 1500994.8      6.7   0.000000000   0.00180   0.00580   0.00913   0.04104
 4 39 1500998.2      6.7   0.000000000   0.00026   0.00163   0.00017   0.01597
 4 40 1501673.3      6.7   0.000000000   0.00025   0.01326   0.00817   0.00213
 4 41 1501678.8      6.7   0.000000000   0.00110   0.02109   0.00500   0.02508
 4 42 1501692.0      6.7   0.000000000   0.01176   0.09809   0.03285   0.03257
 4 43 1501810.4      6.7   0.000000000   0.01379   0.06610   0.08657   0.04395
 4 44 1501818.1      6.7   0.000000000   0.00793   0.03349   0.07774   0.02772
 4 45 1501834.3      6.7   0.000000000   0.00126   0.02570   0.02104   0.01264
 4 46 1501955.9      6.7   0.000000000   0.00058   0.00364   0.02236   0.00830
 4 47 1501968.9      6.7   0.000000000   0.00120   0.02248   0.02600   0.00399
 4 48 1501971.4      6.7   0.000000000   0.02228   0.05383   0.13039   0.04881
 4 49 1503579.5      6.7   0.000000000   0.00358   0.00204   0.04749   0.03632
 4 50 1503580.6      6.7   0.000000000   0.01485   0.00971   0.09515   0.07553
 4 51 1503581.7      6.7   0.000000000   0.00302   0.00219   0.04776   0.02705
 4 52 1506184.2      6.6   0.000000000   0.00187   0.02732   0.00829   0.03244
 4 53 1506187.1      6.6   0.000000000   0.00012   0.00966   0.00446   0.00186
 4 54 1506190.6      6.6   0.000000000   0.00010   0.00203   0.00097   0.00949
 4 55 1507182.7      6.6   0.000000000   0.00032   0.00523   0.00424   0.01665
 4 56 1507191.7      6.6   0.000000000   0.00347   0.02097   0.01095   0.05396
 4 57 1507195.3      6.6   0.000000000   0.00658   0.06208   0.05225   0.00059
 4 58 1507225.4      6.6   0.000000000   0.00744   0.01405   0.03411   0.07797
 4 59 1507229.4      6.6   0.000000000   0.01325   0.09312   0.06520   0.01802
 4 60 1507259.2      6.6   0.000000000   0.00124   0.02679   0.02256   0.00302
 4 61 1507462.0      6.6   0.000000000   0.02960   0.02149   0.02219   0.16926
 4 62 1507479.4      6.6   0.000000000   0.03994   0.00899   0.06235   0.18965
 4 63 1507480.9      6.6   0.000000000   0.01122   0.00303   0.03461   0.10005
 4 64 1507525.6      6.6   0.000000000   0.05903   0.03553   0.09214   0.22199
 4 65 1507542.4      6.6   0.000000000   0.07849   0.05684   0.11601   0.24860
 4 66 1507544.9      6.6   0.000000000   0.00229   0.00787   0.02750   0.03839
 4 67 1509069.1      6.6   0.000000000   0.00877   0.08571   0.03707   0.00678
 4 68 1509070.1      6.6   0.000000000   0.00033   0.01674   0.00346   0.00604
 4 69 1509072.4      6.6   0.000000000   0.00923   0.08643   0.04008   0.01255
 4 70 1510249.2      6.6   0.000000000   0.00231   0.03933   0.02650   0.00773
 4 71 1510250.3      6.6   0.000000000   0.01895   0.10898   0.08206   0.01843
 4 72 1510252.2      6.6   0.000000000   0.00452   0.05335   0.04035   0.00691
 4 73 1511005.9      6.6   0.000000000   0.00020   0.01299   0.00389   0.00456
 4 74 1511006.9      6.6   0.000000000   0.00057   0.00263   0.01492   0.01843
 4 75 1511054.3      6.6   0.000000000   0.03000   0.03785   0.08832   0.14409
 4 76 1511134.4      6.6   0.000000000   0.01328   0.09905   0.05869   0.00523
 4 77 1511181.1      6.6   0.000000000   0.00035   0.00676   0.00999   0.01413
 4 78 1511182.7      6.6   0.000000000   0.00056   0.02002   0.01267   0.00092
 4 79 1511827.7      6.6   0.000000000   0.00108   0.02883   0.00911   0.01294
 4 80 1511828.4      6.6   0.000000000   0.01571   0.02639   0.02922   0.11900
 4 81 1511837.9      6.6   0.000000000   0.00003   0.00122   0.00144   0.00530
 4 82 1512060.5      6.6   0.000000000   0.00050   0.01834   0.01067   0.00680
 4 83 1512068.8      6.6   0.000000000   0.01746   0.10380   0.06357   0.05142
 4 84 1512070.5      6.6   0.000000000   0.00088   0.02204   0.00634   0.01895
 4 85 1512964.9      6.6   0.000000000   0.00200   0.02367   0.02455   0.02899
 4 86 1512965.7      6.6   0.000000000   0.00002   0.00035   0.00186   0.00378
 4 87 1512966.2      6.6   0.000000000   0.00404   0.03195   0.03250   0.04428
 4 88 1518844.2      6.6   0.000000000   0.00003   0.00437   0.00321   0.00010
 4 89 1518844.4      6.6   0.000000000   0.00010   0.00843   0.00503   0.00033
 4 90 1518846.8      6.6   0.000000000   0.01285   0.09340   0.06353   0.00961
 4 91 1519693.0      6.6   0.000000000   0.00003   0.00145   0.00426   0.00226
 4 92 1519694.2      6.6   0.000000000   0.00013   0.00816   0.00782   0.00055
 4 93 1519695.9      6.6   0.000000000   0.00459   0.04872   0.04705   0.00219
 4 94 1520086.9      6.6   0.000000000   0.00012   0.00176   0.00117   0.01078
 4 95 1520090.2      6.6   0.000000000   0.00006   0.00170   0.00008   0.00754
 4 96 1520090.5      6.6   0.000000000   0.00001   0.00219   0.00173   0.00047
 4 97 1520422.4      6.6   0.000000000   0.00002   0.00170   0.00168   0.00321
 4 98 1520422.6      6.6   0.000000000   0.00002   0.00151   0.00203   0.00374
 4 99 1520424.2      6.6   0.000000000   0.00062   0.00038   0.01750   0.01770
 4 100 1520590.0      6.6   0.000000000   0.00000   0.00005   0.00057   0.00026
 4 101 1520590.2      6.6   0.000000000   0.00000   0.00042   0.00048   0.00024
 4 102 1520596.0      6.6   0.000000000   0.00002   0.00254   0.00187   0.00300
 4 103 1520598.4      6.6   0.000000000   0.00000   0.00171   0.00026   0.00046
 4 104 1520599.7      6.6   0.000000000   0.00002   0.00185   0.00428   0.00113
 4 105 1521290.7      6.6   0.000000000   0.00005   0.00451   0.00553   0.00185
 4 106 1521291.4      6.6   0.000000000   0.00020   0.00843   0.01089   0.00374
 4 107 1521294.5      6.6   0.000000000   0.00868   0.05856   0.06913   0.02161
 4 108 1522070.4      6.6   0.000000000   0.00211   0.03915   0.02352   0.00508
 4 109 1522076.4      6.6   0.000000000   0.00001   0.00281   0.00111   0.00101
 4 110 1522077.3      6.6   0.000000000   0.00000   0.00179   0.00052   0.00039
 4 111 1522475.0      6.6   0.000000000   0.00000   0.00026   0.00041   0.00170
 4 112 1522478.3      6.6   0.000000000   0.00000   0.00089   0.00157   0.00130
 4 113 1522481.4      6.6   0.000000000   0.00001   0.00144   0.00051   0.00337
 4 114 1522937.8      6.6   0.000000000   0.00005   0.00001   0.00140   0.00720
 4 115 1522945.1      6.6   0.000000000   0.00001   0.00209   0.00177   0.00028
 4 116 1522947.7      6.6   0.000000000   0.00001   0.00018   0.00100   0.00252
 4 117 1523507.7      6.6   0.000000000   0.00001   0.00119   0.00149   0.00222
 4 118 1523508.0      6.6   0.000000000   0.00001   0.00227   0.00025   0.00019
 4 119 1523509.4      6.6   0.000000000   0.00001   0.00126   0.00330   0.00136
 4 120 1523510.8      6.6   0.000000000   0.00000   0.00125   0.00028   0.00035
 4 121 1523511.0      6.6   0.000000000   0.00000   0.00065   0.00131   0.00018
 4 122 1525002.0      6.6   0.000000000   0.00001   0.00270   0.00239   0.00116
 4 123 1525003.7      6.6   0.000000000   0.00016   0.00973   0.00772   0.00324
 4 124 1525004.0      6.6   0.000000000   0.00044   0.01627   0.01169   0.00593
 4 125 1525997.9      6.6   0.000000000   0.00000   0.00069   0.00042   0.00072
 4 126 1525999.4      6.6   0.000000000   0.00000   0.00030   0.00033   0.00045
 4 127 1526000.7      6.6   0.000000000   0.00000   0.00016   0.00008   0.00005
 4 128 1526006.5      6.6   0.000000000   0.00000   0.00160   0.00087   0.00024
 4 129 1526006.6      6.6   0.000000000   0.00000   0.00013   0.00013   0.00186
 4 130 1526174.8      6.6   0.000000000   0.00000   0.00146   0.00034   0.00066
 4 131 1526176.7      6.6   0.000000000   0.00051   0.01864   0.01258   0.00221
 4 132 1526180.0      6.6   0.000000000   0.00001   0.00126   0.00189   0.00012
 4 133 1526273.5      6.6   0.000000000   0.00001   0.00222   0.00169   0.00002
 4 134 1526278.8      6.6   0.000000000   0.00007   0.00758   0.00326   0.00263
 4 135 1526331.7      6.6   0.000000000   0.00000   0.00020   0.00066   0.00012
 4 136 1526425.6      6.6   0.000000000   0.00000   0.00112   0.00030   0.00015
 4 137 1526483.8      6.6   0.000000000   0.00009   0.00850   0.00236   0.00303
 4 138 1526484.3      6.6   0.000000000   0.00001   0.00246   0.00265   0.00094
 4 139 1526856.5      6.5   0.000000000   0.00007   0.00581   0.00601   0.00063
 4 140 1526857.0      6.5   0.000000000   0.00003   0.00370   0.00399   0.00117
 4 141 1526857.8      6.5   0.000000000   0.00212   0.03159   0.03304   0.00525
 4 142 1529682.2      6.5   0.000000000   0.01888   0.00837   0.00999   0.13677
 4 143 1529682.6      6.5   0.000000000   0.00025   0.00037   0.00156   0.01568
 4 144 1529682.8      6.5   0.000000000   0.00018   0.00049   0.00039   0.01326
 4 145 1542090.9      6.5   0.000000000   0.00991   0.01104   0.02533   0.09562
 4 146 1542091.2      6.5   0.000000000   0.00004   0.00083   0.00184   0.00629
 4 147 1542091.3      6.5   0.000000000   0.00002   0.00075   0.00088   0.00413
 4 148 1619936.1      6.2   0.000000000   0.00001   0.00309   0.00071   0.00205
 4 149 1619936.2      6.2   0.000000000   0.00000   0.00022   0.00005   0.00013
 4 150 1619936.2      6.2   0.000000000   0.00000   0.00029   0.00007   0.00019
 4 151 1639851.3      6.1   0.000000000   0.00001   0.00074   0.00229   0.00179
 4 152 1639851.4      6.1   0.000000000   0.00000   0.00056   0.00162   0.00126
 4 153 1639851.5      6.1   0.000000000   0.00006   0.00202   0.00605   0.00473
 4 154 1713505.6      5.8   0.000000000   0.00034   0.01475   0.01100   0.00225
 4 155 1713505.7      5.8   0.000000000   0.00004   0.00510   0.00380   0.00077
 4 156 1713505.7      5.8   0.000000000   0.00005   0.00537   0.00401   0.00082
 4 157 2035685.0      4.9   0.000000000   0.00187   0.00695   0.01683   0.03922
 4 158 2035685.1      4.9   0.000000000   0.00743   0.01383   0.03351   0.07823
 4 159 2035685.1      4.9   0.000000000   0.00001   0.00052   0.00119   0.00281

------------------------------------------------------------------------------
                           SOC CORRECTED DIPOLE MOMENTS
------------------------------------------------------------------------------
      TX        TY        TZ           |T|
   (Debye)   (Debye)   (Debye)      (Debye)
------------------------------------------------------------------------------
  21.92638  15.84006   2.69856     27.18374

--------------
CASSCF TIMINGS
--------------

Total time                       ...    13956.1 sec
Sum of individual times          ...    13333.5 sec ( 95.5%)

Calculation of AO operators
   F(Core) operator              ...       68.1 sec (  0.5%)
   G(Act) operator               ...       66.5 sec (  0.5%)
   J(AO) operators               ...        0.0 sec (  0.0%)
Calculation of MO transformed quantities
   J(MO) operators               ...        6.6 sec (  0.0%)
   (pq|rs) integrals             ...        0.0 sec (  0.0%)
   AO->MO one electron integrals ...        0.2 sec (  0.0%)
Configuration interaction steps
   CI-setup phase                ...        1.0 sec (  0.0%)
   CI-solution phase             ...       17.3 sec (  0.1%)
   Generation of densities       ...        8.2 sec (  0.1%)
Orbital improvement steps
   Orbital gradient              ...        0.2 sec (  0.0%)
PT2 
   NEVPT2 time                   ...    13020.8 sec ( 93.3%)
Properties                       ...       94.2 sec (  0.7%)
   SOC integral calculation      ...       48.9 sec (  0.4%)
   SSC RMEs (incl. integrals)    ...        0.0 sec (  0.0%)
   SOC RMEs                      ...        1.5 sec (  0.0%)

Maximum memory used throughout the entire CASSCF-calculation: 1659.5 MB

-------------------------   --------------------
FINAL SINGLE POINT ENERGY     -2937.928683594542
-------------------------   --------------------


                            ***************************************
                            *     ORCA property calculations      *
                            ***************************************

                                    ---------------------
                                    Active property flags
                                    ---------------------
   (+) Dipole Moment


------------------------------------------------------------------------------
                       ORCA ELECTRIC PROPERTIES CALCULATION
------------------------------------------------------------------------------

Dipole Moment Calculation                       ... on
Quadrupole Moment Calculation                   ... off
Polarizability Calculation                      ... off
GBWName                                         ... nevpt2.gbw
Electron density                                ... nevpt2.scfp
The origin for moment calculation is the CENTER OF MASS  = (15.919957, 16.193260 13.401421)

-------------
DIPOLE MOMENT
-------------
                                X             Y             Z
Electronic contribution:     -8.75033      -6.32490      -1.08266
Nuclear contribution   :      8.62633       6.23183       1.06167
                        -----------------------------------------
Total Dipole Moment    :     -0.12400      -0.09307      -0.02099
                        -----------------------------------------
Magnitude (a.u.)       :      0.15646
Magnitude (Debye)      :      0.39768



--------------------
Rotational spectrum 
--------------------
 
Rotational constants in cm-1:     0.001212     0.000997     0.000910 
Rotational constants in MHz :    36.341299    29.879706    27.282705 

 Dipole components along the rotational axes: 
x,y,z [a.u.] :    -0.002748    -0.156322    -0.005887 
x,y,z [Debye]:    -0.006986    -0.397338    -0.014965 

 

Timings for individual modules:

Sum of individual times         ...    14097.657 sec (= 234.961 min)
GTO integral calculation        ...       41.310 sec (=   0.689 min)   0.3 %
SCF iterations                  ...       74.280 sec (=   1.238 min)   0.5 %
CASSCF iterations               ...    13982.066 sec (= 233.034 min)  99.2 %
                             ****ORCA TERMINATED NORMALLY****
TOTAL RUN TIME: 0 days 3 hours 55 minutes 5 seconds 123 msec
