
                                 *****************
                                 * O   R   C   A *
                                 *****************

                                            #,                                       
                                            ###                                      
                                            ####                                     
                                            #####                                    
                                            ######                                   
                                           ########,                                 
                                     ,,################,,,,,                         
                               ,,#################################,,                 
                          ,,##########################################,,             
                       ,#########################################, ''#####,          
                    ,#############################################,,   '####,        
                  ,##################################################,,,,####,       
                ,###########''''           ''''###############################       
              ,#####''   ,,,,##########,,,,          '''####'''          '####       
            ,##' ,,,,###########################,,,                        '##       
           ' ,,###''''                  '''############,,,                           
         ,,##''                                '''############,,,,        ,,,,,,###''
      ,#''                                            '''#######################'''  
     '                                                          ''''####''''         
             ,#######,   #######,   ,#######,      ##                                
            ,#'     '#,  ##    ##  ,#'     '#,    #''#        ######   ,####,        
            ##       ##  ##   ,#'  ##            #'  '#       #        #'  '#        
            ##       ##  #######   ##           ,######,      #####,   #    #        
            '#,     ,#'  ##    ##  '#,     ,#' ,#      #,         ##   #,  ,#        
             '#######'   ##     ##  '#######'  #'      '#     #####' # '####'        



                  #######################################################
                  #                        -***-                        #
                  #          Department of theory and spectroscopy      #
                  #    Directorship and core code : Frank Neese         #
                  #        Max Planck Institute fuer Kohlenforschung    #
                  #                Kaiser Wilhelm Platz 1               #
                  #                 D-45470 Muelheim/Ruhr               #
                  #                      Germany                        #
                  #                                                     #
                  #                  All rights reserved                #
                  #                        -***-                        #
                  #######################################################


                         Program Version 5.0.3 -  RELEASE  -


 With contributions from (in alphabetic order):
   Daniel Aravena         : Magnetic Suceptibility
   Michael Atanasov       : Ab Initio Ligand Field Theory (pilot matlab implementation)
   Alexander A. Auer      : GIAO ZORA, VPT2 properties, NMR spectrum
   Ute Becker             : Parallelization
   Giovanni Bistoni       : ED, misc. LED, open-shell LED, HFLD
   Martin Brehm           : Molecular dynamics
   Dmytro Bykov           : SCF Hessian
   Vijay G. Chilkuri      : MRCI spin determinant printing, contributions to CSF-ICE
   Dipayan Datta          : RHF DLPNO-CCSD density
   Achintya Kumar Dutta   : EOM-CC, STEOM-CC
   Dmitry Ganyushin       : Spin-Orbit,Spin-Spin,Magnetic field MRCI
   Miquel Garcia          : C-PCM and meta-GGA Hessian, CC/C-PCM, Gaussian charge scheme
   Yang Guo               : DLPNO-NEVPT2, F12-NEVPT2, CIM, IAO-localization
   Andreas Hansen         : Spin unrestricted coupled pair/coupled cluster methods
   Benjamin Helmich-Paris : MC-RPA, TRAH-SCF, COSX integrals
   Lee Huntington         : MR-EOM, pCC
   Robert Izsak           : Overlap fitted RIJCOSX, COSX-SCS-MP3, EOM
   Marcus Kettner         : VPT2
   Christian Kollmar      : KDIIS, OOCD, Brueckner-CCSD(T), CCSD density, CASPT2, CASPT2-K
   Simone Kossmann        : Meta GGA functionals, TD-DFT gradient, OOMP2, MP2 Hessian
   Martin Krupicka        : Initial AUTO-CI
   Lucas Lang             : DCDCAS
   Marvin Lechner         : AUTO-CI (C++ implementation), FIC-MRCC
   Dagmar Lenk            : GEPOL surface, SMD
   Dimitrios Liakos       : Extrapolation schemes; Compound Job, initial MDCI parallelization
   Dimitrios Manganas     : Further ROCIS development; embedding schemes
   Dimitrios Pantazis     : SARC Basis sets
   Anastasios Papadopoulos: AUTO-CI, single reference methods and gradients
   Taras Petrenko         : DFT Hessian,TD-DFT gradient, ASA, ECA, R-Raman, ABS, FL, XAS/XES, NRVS
   Peter Pinski           : DLPNO-MP2, DLPNO-MP2 Gradient
   Christoph Reimann      : Effective Core Potentials
   Marius Retegan         : Local ZFS, SOC
   Christoph Riplinger    : Optimizer, TS searches, QM/MM, DLPNO-CCSD(T), (RO)-DLPNO pert. Triples
   Tobias Risthaus        : Range-separated hybrids, TD-DFT gradient, RPA, STAB
   Michael Roemelt        : Original ROCIS implementation
   Masaaki Saitow         : Open-shell DLPNO-CCSD energy and density
   Barbara Sandhoefer     : DKH picture change effects
   Avijit Sen             : IP-ROCIS
   Kantharuban Sivalingam : CASSCF convergence, NEVPT2, FIC-MRCI
   Bernardo de Souza      : ESD, SOC TD-DFT
   Georgi Stoychev        : AutoAux, RI-MP2 NMR, DLPNO-MP2 response
   Willem Van den Heuvel  : Paramagnetic NMR
   Boris Wezisla          : Elementary symmetry handling
   Frank Wennmohs         : Technical directorship


 We gratefully acknowledge several colleagues who have allowed us to
 interface, adapt or use parts of their codes:
   Stefan Grimme, W. Hujo, H. Kruse, P. Pracht,  : VdW corrections, initial TS optimization,
                  C. Bannwarth, S. Ehlert          DFT functionals, gCP, sTDA/sTD-DF
   Ed Valeev, F. Pavosevic, A. Kumar             : LibInt (2-el integral package), F12 methods
   Garnet Chan, S. Sharma, J. Yang, R. Olivares  : DMRG
   Ulf Ekstrom                                   : XCFun DFT Library
   Mihaly Kallay                                 : mrcc  (arbitrary order and MRCC methods)
   Jiri Pittner, Ondrej Demel                    : Mk-CCSD
   Frank Weinhold                                : gennbo (NPA and NBO analysis)
   Christopher J. Cramer and Donald G. Truhlar   : smd solvation model
   Lars Goerigk                                  : TD-DFT with DH, B97 family of functionals
   V. Asgeirsson, H. Jonsson                     : NEB implementation
   FAccTs GmbH                                   : IRC, NEB, NEB-TS, DLPNO-Multilevel, CI-OPT
                                                   MM, QMMM, 2- and 3-layer-ONIOM, Crystal-QMMM,
                                                   LR-CPCM, SF, NACMEs, symmetry and pop. for TD-DFT,
                                                   nearIR, NL-DFT gradient (VV10), updates on ESD,
                                                   ML-optimized integration grids
   S Lehtola, MJT Oliveira, MAL Marques          : LibXC Library
   Liviu Ungur et al                             : ANISO software


 Your calculation uses the libint2 library for the computation of 2-el integrals
 For citations please refer to: http://libint.valeyev.net

 Your ORCA version has been built with support for libXC version: 5.1.0
 For citations please refer to: https://tddft.org/programs/libxc/

 This ORCA versions uses:
   CBLAS   interface :  Fast vector & matrix operations
   LAPACKE interface :  Fast linear algebra routines
   SCALAPACK package :  Parallel linear algebra routines
   Shared memory     :  Shared parallel matrices
   BLAS/LAPACK       :  OpenBLAS 0.3.15  USE64BITINT DYNAMIC_ARCH NO_AFFINITY Haswell SINGLE_THREADED
        Core in use  :  Haswell
   Copyright (c) 2011-2014, The OpenBLAS Project




***************************************
The coordinates will be read from file: pbe.xyz
***************************************


================================================================================

cite the ECPs for Au [Def2-ECP] as follows:
Ce-Yb(ecp-28): M. Dolg, H. Stoll, H.Preuss, J. Chem. Phys., 1989, 90, 1730-1734.
Y-Cd(ecp-28), Hf-Hg(ecp-46): D. Andrae,U. Haeussermann, M. Dolg, H. Stoll, H. Preuss, Theor. Chim. Acta, 1990, 77, 123-141.
In-Sb(ecp-28), Tl-Bi(ecp-46): B. Metz, H. Stoll, M. Dolg, J. Chem. Phys., 2000, 113, 2563-2569.
Te-Xe(ecp-28), Po-Rn(ecp-46): K. A. Peterson, D. Figgen, E. Goll, H. Stoll, M. Dolg, J. Chem. Phys., 2003, 119, 11113-11123.
Rb(ecp-28), Cs(ecp-46): T. Leininger, A. Nicklass, W. Kuechle, H. Stoll, M. Dolg, A. Bergner, Chem. Phys. Lett., 1996, 255, 274-280.
Sr(ecp-28), Ba(ecp-46): M. Kaupp, P. V. Schleyer, H. Stoll and H. Preuss, J. Chem. Phys., 1991, 94, 1360-1366.
La(ecp-46): M. Dolg, H. Stoll, A. Savin, H. Preuss, Theor. Chim. Acta, 1989, 75, 173-194.
Lu(ecp-28): X. Cao, M. Dolg, J. Chem. Phys., 2001, 115, 7348-7355.

ECP parameters for Au [Def2-ECP] have been obtained from:
TURBOMOLE (7.0.2)

----- Orbital basis set information -----
Your calculation utilizes the basis: def2-TZVP
   F. Weigend and R. Ahlrichs, Phys. Chem. Chem. Phys. 7, 3297 (2005).

----- AuxJ basis set information -----
Your calculation utilizes the auxiliary basis: def2/J
   F. Weigend, Phys. Chem. Chem. Phys. 8, 1057 (2006).

================================================================================
                                        WARNINGS
                       Please study these warnings very carefully!
================================================================================

Using LibXC functional ID 497 : Re-regularized SCAN exchange by Furness et al
[ 1]  J. W. Furness, A. D. Kaplan, J. Ning, J. P. Perdew, and J. Sun, J. Phys. Chem. Lett. 11, 8208 (2020)
[ 2]  J. W. Furness, A. D. Kaplan, J. Ning, J. P. Perdew, and J. Sun, J. Phys. Chem. Lett. 11, 9248 (2020)
Using LibXC functional ID 498 : Re-regularized SCAN correlation by Furness et al
[ 1]  J. W. Furness, A. D. Kaplan, J. Ning, J. P. Perdew, and J. Sun, J. Phys. Chem. Lett. 11, 8208 (2020)
[ 2]  J. W. Furness, A. D. Kaplan, J. Ning, J. P. Perdew, and J. Sun, J. Phys. Chem. Lett. 11, 9248 (2020)
Using LibXC functional ID 497 : Re-regularized SCAN exchange by Furness et al
[ 1]  J. W. Furness, A. D. Kaplan, J. Ning, J. P. Perdew, and J. Sun, J. Phys. Chem. Lett. 11, 8208 (2020)
[ 2]  J. W. Furness, A. D. Kaplan, J. Ning, J. P. Perdew, and J. Sun, J. Phys. Chem. Lett. 11, 9248 (2020)
Using LibXC functional ID 498 : Re-regularized SCAN correlation by Furness et al
[ 1]  J. W. Furness, A. D. Kaplan, J. Ning, J. P. Perdew, and J. Sun, J. Phys. Chem. Lett. 11, 8208 (2020)
[ 2]  J. W. Furness, A. D. Kaplan, J. Ning, J. P. Perdew, and J. Sun, J. Phys. Chem. Lett. 11, 9248 (2020)

WARNING: your system is open-shell and RHF/RKS was chosen
  ===> : WILL SWITCH to UHF/UKS


INFO   : the flag for use of the SHARK integral package has been found!



***************************************
The coordinates will be read from file: pbe.xyz
***************************************


================================================================================

cite the ECPs for Au [Def2-ECP] as follows:
Ce-Yb(ecp-28): M. Dolg, H. Stoll, H.Preuss, J. Chem. Phys., 1989, 90, 1730-1734.
Y-Cd(ecp-28), Hf-Hg(ecp-46): D. Andrae,U. Haeussermann, M. Dolg, H. Stoll, H. Preuss, Theor. Chim. Acta, 1990, 77, 123-141.
In-Sb(ecp-28), Tl-Bi(ecp-46): B. Metz, H. Stoll, M. Dolg, J. Chem. Phys., 2000, 113, 2563-2569.
Te-Xe(ecp-28), Po-Rn(ecp-46): K. A. Peterson, D. Figgen, E. Goll, H. Stoll, M. Dolg, J. Chem. Phys., 2003, 119, 11113-11123.
Rb(ecp-28), Cs(ecp-46): T. Leininger, A. Nicklass, W. Kuechle, H. Stoll, M. Dolg, A. Bergner, Chem. Phys. Lett., 1996, 255, 274-280.
Sr(ecp-28), Ba(ecp-46): M. Kaupp, P. V. Schleyer, H. Stoll and H. Preuss, J. Chem. Phys., 1991, 94, 1360-1366.
La(ecp-46): M. Dolg, H. Stoll, A. Savin, H. Preuss, Theor. Chim. Acta, 1989, 75, 173-194.
Lu(ecp-28): X. Cao, M. Dolg, J. Chem. Phys., 2001, 115, 7348-7355.

ECP parameters for Au [Def2-ECP] have been obtained from:
TURBOMOLE (7.0.2)

----- Orbital basis set information -----
Your calculation utilizes the basis: def2-TZVP
   F. Weigend and R. Ahlrichs, Phys. Chem. Chem. Phys. 7, 3297 (2005).

----- AuxJ basis set information -----
Your calculation utilizes the auxiliary basis: def2/J
   F. Weigend, Phys. Chem. Chem. Phys. 8, 1057 (2006).

================================================================================
                                        WARNINGS
                       Please study these warnings very carefully!
================================================================================

Using LibXC functional ID 497 : Re-regularized SCAN exchange by Furness et al
[ 1]  J. W. Furness, A. D. Kaplan, J. Ning, J. P. Perdew, and J. Sun, J. Phys. Chem. Lett. 11, 8208 (2020)
[ 2]  J. W. Furness, A. D. Kaplan, J. Ning, J. P. Perdew, and J. Sun, J. Phys. Chem. Lett. 11, 9248 (2020)
Using LibXC functional ID 498 : Re-regularized SCAN correlation by Furness et al
[ 1]  J. W. Furness, A. D. Kaplan, J. Ning, J. P. Perdew, and J. Sun, J. Phys. Chem. Lett. 11, 8208 (2020)
[ 2]  J. W. Furness, A. D. Kaplan, J. Ning, J. P. Perdew, and J. Sun, J. Phys. Chem. Lett. 11, 9248 (2020)
Using LibXC functional ID 497 : Re-regularized SCAN exchange by Furness et al
[ 1]  J. W. Furness, A. D. Kaplan, J. Ning, J. P. Perdew, and J. Sun, J. Phys. Chem. Lett. 11, 8208 (2020)
[ 2]  J. W. Furness, A. D. Kaplan, J. Ning, J. P. Perdew, and J. Sun, J. Phys. Chem. Lett. 11, 9248 (2020)
Using LibXC functional ID 498 : Re-regularized SCAN correlation by Furness et al
[ 1]  J. W. Furness, A. D. Kaplan, J. Ning, J. P. Perdew, and J. Sun, J. Phys. Chem. Lett. 11, 8208 (2020)
[ 2]  J. W. Furness, A. D. Kaplan, J. Ning, J. P. Perdew, and J. Sun, J. Phys. Chem. Lett. 11, 9248 (2020)

INFO   : the flag for use of the SHARK integral package has been found!

================================================================================
                                       INPUT FILE
================================================================================
NAME = scan.inp
|  1> !R2SCAN def2-TZVP VERYSLOWCONV
|  2> !KDIIS
|  3> %scf
|  4>   AutoTRAHIter 200
|  5>   maxiter 400
|  6> end
|  7> 
|  8> %pal nprocs 6 end 
|  9> 
| 10> *xyzfile 0 5 pbe.xyz
| 11> 
| 12> $new_job
| 13> 
| 14> !R2SCAN def2-TZVP VERYSLOWCONV
| 15> !KDIIS
| 16> %scf
| 17>   AutoTRAHIter 200
| 18>   maxiter 400
| 19> end
| 20> 
| 21> 
| 22> %pal nprocs 6 end 
| 23> 
| 24> *xyzfile 0 3 pbe.xyz
| 25> 
| 26> 
| 27> 
| 28> 
| 29> 
| 30>                          ****END OF INPUT****
================================================================================


                 $$$$$$$$$$$$$$$$$$$$$$$$$$$$$$$$$$$$$$$$$$$$$$ 
                 $ THERE ARE  2 JOBS TO BE PROCESSED THIS RUN $
                 $$$$$$$$$$$$$$$$$$$$$$$$$$$$$$$$$$$$$$$$$$$$$$ 




                 $$$$$$$$$$$$$$$$  JOB NUMBER  1 $$$$$$$$$$$$$$


                       ****************************
                       * Single Point Calculation *
                       ****************************

---------------------------------
CARTESIAN COORDINATES (ANGSTROEM)
---------------------------------
  Au     9.028935   10.595957    5.983178
  Au    11.495132    7.997151    6.959634
  Au     6.151757   10.627535    5.861381
  Au    10.162649    8.596231    4.507448
  Au     7.354983    8.523824    4.546806
  Au     7.438273   10.577203    8.312559
  Au     6.129728    8.104077    7.088306
  Au     7.594631    5.866290    7.825779
  Au     7.600523    8.120461    9.525949
  Au    10.121894    7.020827    9.249551
  Au    10.200756    5.232472    7.166417
  Au    10.069224    9.760165    8.561309
  Au     8.518820    6.111357    5.079949
  Au    11.394727    6.154484    4.847112
  Cr     8.810124    8.070580    6.910861

----------------------------
CARTESIAN COORDINATES (A.U.)
----------------------------
  NO LB      ZA    FRAG     MASS         X           Y           Z
   0 Au   19.0000*   0   196.966   17.062214   20.023456   11.306567
   1 Au   19.0000*   0   196.966   21.722651   15.112425   13.151802
   2 Au   19.0000*   0   196.966   11.625137   20.083130   11.076404
   3 Au   19.0000*   0   196.966   19.204624   16.244522    8.517843
   4 Au   19.0000*   0   196.966   13.898904   16.107693    8.592218
   5 Au   19.0000*   0   196.966   14.056298   19.988016   15.708459
   6 Au   19.0000*   0   196.966   11.583507   15.314485   13.394958
   7 Au   19.0000*   0   196.966   14.351772   11.085682   14.788579
   8 Au   19.0000*   0   196.966   14.362907   15.345448   18.001435
   9 Au   19.0000*   0   196.966   19.127608   13.267440   17.479118
  10 Au   19.0000*   0   196.966   19.276635    9.887940   13.542566
  11 Au   19.0000*   0   196.966   19.028075   18.444039   16.178529
  12 Au   19.0000*   0   196.966   16.098237   11.548791    9.599712
  13 Au   19.0000*   0   196.966   21.532914   11.630289    9.159715
  14 Cr   24.0000    0    52.000   16.648721   15.251185   13.059635
* core charge reduced due to ECP

--------------------------------
INTERNAL COORDINATES (ANGSTROEM)
--------------------------------
 Au     0   0   0     0.000000000000     0.00000000     0.00000000
 Au     1   0   0     3.713406075298     0.00000000     0.00000000
 Au     1   2   0     2.879927597130   133.02314027     0.00000000
 Au     1   2   3     2.731664249748    49.76673606   274.20084699
 Au     3   1   2     2.757073922555    64.90002825   308.15783709
 Au     3   1   2     2.768741498346    59.87727968    70.44065905
 Au     3   1   2     2.806006473238    88.82481219     7.21103903
 Au     7   3   1     2.774435461966   146.87038576   346.09449839
 Au     6   3   1     2.744853398921   115.79130051   260.33192635
 Au     9   6   3     2.764580328256   111.45201084   102.63988972
 Au    10   9   6     2.746611545936   111.16158096   262.24195884
 Au     6   3   1     2.766103782001   121.79872416   340.46896860
 Au     5   3   1     2.731072224969   140.07698575    78.24875612
 Au     4   1   2     2.755996610801   140.13355036    22.03725841
 Cr    12   6   3     2.676566923036    71.55296985   316.65012730

---------------------------
INTERNAL COORDINATES (A.U.)
---------------------------
 Au     0   0   0     0.000000000000     0.00000000     0.00000000
 Au     1   0   0     7.017320506353     0.00000000     0.00000000
 Au     1   2   0     5.442274444098   133.02314027     0.00000000
 Au     1   2   3     5.162097321847    49.76673606   274.20084699
 Au     3   1   2     5.210114644604    64.90002825   308.15783709
 Au     3   1   2     5.232163167496    59.87727968    70.44065905
 Au     3   1   2     5.302583764430    88.82481219     7.21103903
 Au     7   3   1     5.242923199355   146.87038576   346.09449839
 Au     6   3   1     5.187021201724   115.79130051   260.33192635
 Au     9   6   3     5.224299695630   111.45201084   102.63988972
 Au    10   9   6     5.190343618085   111.16158096   262.24195884
 Au     6   3   1     5.227178605986   121.79872416   340.46896860
 Au     5   3   1     5.160978557150   140.07698575    78.24875612
 Au     4   1   2     5.208078820428   140.13355036    22.03725841
 Cr    12   6   3     5.057978463650    71.55296985   316.65012730

---------------------
BASIS SET INFORMATION
---------------------
There are 2 groups of distinct atoms

 Group   1 Type Au  : 8s7p6d1f contracted to 6s4p3d1f pattern {311111/4111/411/1}
 Group   2 Type Cr  : 17s11p7d1f contracted to 6s4p4d1f pattern {842111/6311/4111/1}

Atom   0Au   basis set group =>   1
Atom   1Au   basis set group =>   1
Atom   2Au   basis set group =>   1
Atom   3Au   basis set group =>   1
Atom   4Au   basis set group =>   1
Atom   5Au   basis set group =>   1
Atom   6Au   basis set group =>   1
Atom   7Au   basis set group =>   1
Atom   8Au   basis set group =>   1
Atom   9Au   basis set group =>   1
Atom  10Au   basis set group =>   1
Atom  11Au   basis set group =>   1
Atom  12Au   basis set group =>   1
Atom  13Au   basis set group =>   1
Atom  14Cr   basis set group =>   2
---------------------------------
AUXILIARY/J BASIS SET INFORMATION
---------------------------------
There are 2 groups of distinct atoms

 Group   1 Type Au  : 11s5p5d3f3g contracted to 8s5p5d2f3g pattern {41111111/11111/11111/21/111}
 Group   2 Type Cr  : 19s5p5d3f3g contracted to 8s5p5d2f3g pattern {121111111/11111/11111/21/111}

Atom   0Au   basis set group =>   1
Atom   1Au   basis set group =>   1
Atom   2Au   basis set group =>   1
Atom   3Au   basis set group =>   1
Atom   4Au   basis set group =>   1
Atom   5Au   basis set group =>   1
Atom   6Au   basis set group =>   1
Atom   7Au   basis set group =>   1
Atom   8Au   basis set group =>   1
Atom   9Au   basis set group =>   1
Atom  10Au   basis set group =>   1
Atom  11Au   basis set group =>   1
Atom  12Au   basis set group =>   1
Atom  13Au   basis set group =>   1
Atom  14Cr   basis set group =>   2
-------------------------
ECP PARAMETER INFORMATION
-------------------------

 Group 1, Type Au ECP Def2-ECP (replacing 60 core electrons, lmax=3)

Atom   0Au   ECP group =>   1
Atom   1Au   ECP group =>   1
Atom   2Au   ECP group =>   1
Atom   3Au   ECP group =>   1
Atom   4Au   ECP group =>   1
Atom   5Au   ECP group =>   1
Atom   6Au   ECP group =>   1
Atom   7Au   ECP group =>   1
Atom   8Au   ECP group =>   1
Atom   9Au   ECP group =>   1
Atom  10Au   ECP group =>   1
Atom  11Au   ECP group =>   1
Atom  12Au   ECP group =>   1
Atom  13Au   ECP group =>   1



           ************************************************************
           *        Program running with 6 parallel MPI-processes     *
           *              working on a common directory               *
           ************************************************************
------------------------------------------------------------------------------
                           ORCA GTO INTEGRAL CALCULATION
                           -- RI-GTO INTEGRALS CHOSEN --
------------------------------------------------------------------------------
------------------------------------------------------------------------------
                   ___                                                        
                  /   \      - P O W E R E D   B Y -                         
                 /     \                                                     
                 |  |  |   _    _      __       _____    __    __             
                 |  |  |  | |  | |    /  \     |  _  \  |  |  /  |          
                  \  \/   | |  | |   /    \    | | | |  |  | /  /          
                 / \  \   | |__| |  /  /\  \   | |_| |  |  |/  /          
                |  |  |   |  __  | /  /__\  \  |    /   |      \           
                |  |  |   | |  | | |   __   |  |    \   |  |\   \          
                \     /   | |  | | |  |  |  |  | |\  \  |  | \   \       
                 \___/    |_|  |_| |__|  |__|  |_| \__\ |__|  \__/        
                                                                              
                      - O R C A' S   B I G   F R I E N D -                    
                                      &                                       
                       - I N T E G R A L  F E E D E R -                       
                                                                              
 v1 FN, 2020, v2 2021                                                         
------------------------------------------------------------------------------


Reading SHARK input file scan.SHARKINP.tmp ... ok
----------------------
SHARK INTEGRAL PACKAGE
----------------------

Number of atoms                             ...     15
Number of basis functions                   ...    605
Number of shells                            ...    211
Maximum angular momentum                    ...      3
Integral batch strategy                     ... SHARK/LIBINT Hybrid
RI-J (if used) integral strategy            ... SPLIT-RIJ (Revised 2003 algorithm where possible)
Printlevel                                  ...      1
Contraction scheme used                     ... SEGMENTED contraction
Coulomb Range Separation                    ... NOT USED
Exchange Range Separation                   ... NOT USED
Finite Nucleus Model                        ... NOT USED
Auxiliary Coulomb fitting basis             ... AVAILABLE
   # of basis functions in Aux-J            ...   1335
   # of shells in Aux-J                     ...    345
   Maximum angular momentum in Aux-J        ...      4
Auxiliary J/K fitting basis                 ... NOT available
Auxiliary Correlation fitting basis         ... NOT available
Auxiliary 'external' fitting basis          ... NOT available
Integral threshold                          ...     1.000000e-10
Primitive cut-off                           ...     1.000000e-11
Primitive pair pre-selection threshold      ...     1.000000e-11

Calculating pre-screening integrals         ... done (  0.3 sec) Dimension = 211
Organizing shell pair data                  ... done (  0.7 sec)
Shell pair information
Total number of shell pairs                 ...     22366
Shell pairs after pre-screening             ...     17932
Total number of primitive shell pairs       ...     59609
Primitive shell pairs kept                  ...     34759
          la=0 lb=0:   2819 shell pairs
          la=1 lb=0:   4090 shell pairs
          la=1 lb=1:   1545 shell pairs
          la=2 lb=0:   3556 shell pairs
          la=2 lb=1:   2506 shell pairs
          la=2 lb=2:   1025 shell pairs
          la=3 lb=0:    946 shell pairs
          la=3 lb=1:    720 shell pairs
          la=3 lb=2:    622 shell pairs
          la=3 lb=3:    103 shell pairs

Calculating one electron integrals          ... done (  0.2 sec)
Calculating ECP integrals                   ... done ( 21.6 sec)
Calculating RI/J V-Matrix + Cholesky decomp.... done (  1.2 sec)
Calculating Nuclear repulsion               ... done (  0.0 sec) ENN=   5642.824306750295 Eh

SHARK setup successfully completed in  25.2 seconds

Maximum memory used throughout the entire GTOINT-calculation: 34.7 MB


           ************************************************************
           *        Program running with 6 parallel MPI-processes     *
           *              working on a common directory               *
           ************************************************************
-------------------------------------------------------------------------------
                                 ORCA SCF
-------------------------------------------------------------------------------

------------
SCF SETTINGS
------------
Hamiltonian:
 Density Functional     Method          .... DFT(GTOs)
  Functional kind                       .... Exchange
  Functional name                       .... Re-regularized SCAN exchange by Furness et al
  Functional family                     .... MGGA
  Functional refs                              
    [ 0] J. W. Furness, A. D. Kaplan, J. Ning, J. P. Perdew, and J. Sun, J. Phys. Chem. Lett. 11, 8208 (2020)
    [ 1] J. W. Furness, A. D. Kaplan, J. Ning, J. P. Perdew, and J. Sun, J. Phys. Chem. Lett. 11, 9248 (2020)
  Functional external parameters         .... 8
 Parameter  0 :         c1 parameter
 Parameter  1 :         c2 parameter
 Parameter  2 :          d parameter
 Parameter  3 :         k1 parameter
 Parameter  4 :       taur parameter
 Parameter  5 :     alphar parameter
 Parameter  6 :        eta parameter
 Parameter  7 :        dp2 parameter
  Functional kind                       .... Correlation
  Functional name                       .... Re-regularized SCAN correlation by Furness et al
  Functional family                     .... MGGA
  Functional refs                              
    [ 0] J. W. Furness, A. D. Kaplan, J. Ning, J. P. Perdew, and J. Sun, J. Phys. Chem. Lett. 11, 8208 (2020)
    [ 1] J. W. Furness, A. D. Kaplan, J. Ning, J. P. Perdew, and J. Sun, J. Phys. Chem. Lett. 11, 9248 (2020)
  Functional external parameters         .... 0
 Gradients option       PostSCFGGA      .... off
   Density functional embedding theory  .... OFF
   NL short-range parameter             .... 12.300000
 RI-approximation to the Coulomb term is turned on
   Number of AuxJ basis functions       .... 1335


General Settings:
 Integral files         IntName         .... scan
 Hartree-Fock type      HFTyp           .... UHF
 Total Charge           Charge          ....    0
 Multiplicity           Mult            ....    5
 Number of Electrons    NEL             ....  290
 Basis Dimension        Dim             ....  605
 Nuclear Repulsion      ENuc            ....   5642.8243067503 Eh

Convergence Acceleration:
 DIIS                   CNVDIIS         .... off
 Trust-Rad. Augm. Hess. CNVTRAH         .... auto
   Auto Start mean grad. ratio tolernc. ....  1.125000
   Auto Start start iteration           ....   200
   Auto Start num. interpolation iter.  ....    10
   Max. Number of Micro iterations      ....    16
   Max. Number of Macro iterations      .... Maxiter - #DIIS iter
   Number of Davidson start vectors     ....     2
   Converg. threshold I  (grad. norm)   ....   5.000e-05
   Converg. threshold II (energy diff.) ....   1.000e-06
   Grad. Scal. Fac. for Micro threshold ....   0.100
   Minimum threshold for Micro iter.    ....   0.010
   NR start threshold (gradient norm)   ....   0.001
   Initial trust radius                 ....   0.400
   Minimum AH scaling param. (alpha)    ....   1.000
   Maximum AH scaling param. (alpha)    .... 1000.000
   Orbital update algorithm             .... Taylor
   White noise on init. David. guess    .... on
   Maximum white noise                  ....   0.010
   Quad. conv. algorithm                .... NR
 SOSCF                  CNVSOSCF        .... off
 Level Shifting         CNVShift        .... off
 Zerner damping         CNVZerner       .... off
 Static damping         CNVDamp         .... off
 Fernandez-Rico         CNVRico         .... off

SCF Procedure:
 Maximum # iterations   MaxIter         ....   400
 SCF integral mode      SCFMode         .... Direct
   Integral package                     .... SHARK and LIBINT hybrid scheme
 Reset frequency        DirectResetFreq ....    20
 Integral Threshold     Thresh          ....  1.000e-10 Eh
 Primitive CutOff       TCut            ....  1.000e-11 Eh

Convergence Tolerance:
 Convergence Check Mode ConvCheckMode   .... All-Criteria
 Convergence forced     ConvForced      .... 0
 Energy Change          TolE            ....  1.000e-06 Eh
 Max Density Change     TolMaxP         ....  1.000e-05
 RMS Density Change     TolRMSP         ....  1.000e-06


Diagonalization of the overlap matrix:
Smallest eigenvalue                        ... 9.220e-05
Time for diagonalization                   ...    0.104 sec
Threshold for overlap eigenvalues          ... 1.000e-08
Number of eigenvalues below threshold      ... 0
Time for construction of square roots      ...    0.277 sec
Total time needed                          ...    0.717 sec

Time for model grid setup =    1.619 sec

------------------------------
INITIAL GUESS: MODEL POTENTIAL
------------------------------
Loading Hartree-Fock densities                     ... done
  calling /media/Programs/ORCA501/orca scan_atom79.inp > scan_atom79.out in order to generate an atomic fitting density for atom 0 (Au with ECP) on-the-fly... 
    atom 0 (Au), assumed electronic state with S=2: 1s2 2s2 2p6 3s2 3p6 4s2 3d10 4p6 5s2 4d10 5p6 6s1 4f14 5d10           ... done
Calculating cut-offs                               ... done
Initializing the effective Hamiltonian             ... done
Setting up the integral package (SHARK)            ... done
Starting the Coulomb interaction                   ... done (   2.3 sec)
Reading the grid                                   ... done
Mapping shells                                     ... done
Starting the XC term evaluation                    ... done (   1.3 sec)
  promolecular density results
     # of electrons  =   1130.014379561
     EX              =  -5168.792887989
     EC              =    -68.864485488
     EX+EC           =  -5237.657373477
Transforming the Hamiltonian                       ... done (   0.8 sec)
Diagonalizing the Hamiltonian                      ... done (   0.9 sec)
Back transforming the eigenvectors                 ... done (   0.1 sec)
Now organizing SCF variables                       ... done
                      ------------------
                      INITIAL GUESS DONE (   8.8 sec)
                      ------------------
-------------------
DFT GRID GENERATION
-------------------

General Integration Accuracy     IntAcc      ... 4.388
Radial Grid Type                 RadialGrid  ... OptM3 with GC (2021)
Angular Grid (max. ang.)         AngularGrid ... 4 (Lebedev-302)
Angular grid pruning method      GridPruning ... 4 (adaptive)
Weight generation scheme         WeightScheme... Becke
Basis function cutoff            BFCut       ... 1.0000e-10
Integration weight cutoff        WCut        ... 1.0000e-14
Angular grids for H and He will be reduced by one unit
Partially contracted basis set               ... off
Rotationally invariant grid construction     ... off

Total number of grid points                  ...   165565
Total number of batches                      ...     2594
Average number of points per batch           ...       63
Average number of grid points per atom       ...    11038
Time for grid setup =    4.970 sec

--------------
SCF ITERATIONS
--------------
ITER       Energy         Delta-E        Max-DP      RMS-DP      [F,P]   Gradient Norm
               ***  Starting incremental Fock matrix formation  ***
                             ****Resetting KDIIS****
                             ****Turning on KDIIS(Cayley)****
  0  -2944.3241450935   0.000000000000 0.31565538  0.00179475  0.3986258   0.218728364
  1  -2945.3497810810  -1.025635987479 1.02503250  0.00289079  0.3568482   0.171536216
  2  -2945.8481738756  -0.498392794601 0.15542069  0.00146242  0.2822340   0.129325801
  3  -2946.1289193424  -0.280745466779 0.53173706  0.00198442  0.1651224   0.075321127
  4  -2946.2188229945  -0.089903652160 0.16059521  0.00065202  0.0435045   0.022353600
  5  -2946.2659077697  -0.047084775189 0.39774592  0.00079397  0.0253021   0.005617214
  6  -2946.2823824955  -0.016474725743 0.20910546  0.00068424  0.0294477   0.005282936
  7  -2946.2923611841  -0.009978688583 0.04851491  0.00038398  0.0179067   0.007296020
  8  -2946.2929562629  -0.000595078865 0.12915817  0.00035687  0.0179554   0.008602371
  9  -2946.3029559869  -0.009999723992 0.05666138  0.00016740  0.0088294   0.002271683
 10  -2946.3035704485  -0.000614461620 0.06777029  0.00013544  0.0054068   0.002879422
 11  -2946.3051119998  -0.001541551276 0.04963799  0.00009970  0.0033402   0.000939202
 12  -2946.3055345199  -0.000422520043 0.00966230  0.00005705  0.0024980   0.001434965
 13  -2946.3058709718  -0.000336451921 0.01783984  0.00005167  0.0021637   0.000976901
 14  -2946.3060213420  -0.000150370223 0.01069156  0.00004152  0.0026640   0.000959849
 15  -2946.3059741138   0.000047228170 0.02700076  0.00006555  0.0052529   0.001190674
 16  -2946.3063452618  -0.000371147989 0.00343528  0.00002575  0.0017973   0.000641447
 17  -2946.3063340149   0.000011246923 0.00963065  0.00003574  0.0018928   0.000478798
 18  -2946.3064751398  -0.000141124888 0.00294106  0.00001909  0.0016578   0.000441863
 19  -2946.3065108550  -0.000035715194 0.00320811  0.00001707  0.0019442   0.000349825
               *** Restarting incremental Fock matrix formation ***
                             ****Resetting KDIIS****
 20  -2946.3065612930  -0.000050438077 0.00042928  0.00000342  0.0015260   0.000315698
 21  -2946.3065691787  -0.000007885625 0.00039432  0.00000350  0.0016188   0.000211696
 22  -2946.3065813920  -0.000012213311 0.00066919  0.00000667  0.0016154   0.000189223
 23  -2946.3066041843  -0.000022792311 0.01778323  0.00006987  0.0016159   0.000165560
 24  -2946.3067810486  -0.000176864354 0.00883471  0.00004754  0.0013778   0.000297304
 25  -2946.3068711009  -0.000090052276 0.00247610  0.00001197  0.0011875   0.000123317
 26  -2946.3068732546  -0.000002153720 0.00658679  0.00002041  0.0011010   0.000183002
 27  -2946.3069005228  -0.000027268203 0.00230416  0.00001024  0.0010499   0.000098091
 28  -2946.3069079655  -0.000007442624 0.00348504  0.00002833  0.0009307   0.000194839
 29  -2946.3069287663  -0.000020800820 0.00308353  0.00002427  0.0009082   0.000160177
 30  -2946.3069478663  -0.000019100021 0.00259212  0.00002196  0.0006854   0.000149306
 31  -2946.3069356200   0.000012246308 0.00855652  0.00006248  0.0008110   0.000158222
 32  -2946.3069655484  -0.000029928399 0.00760772  0.00002959  0.0004943   0.000110938
 33  -2946.3069554839   0.000010064494 0.00553427  0.00003512  0.0005792   0.000118062
 34  -2946.3069658450  -0.000010361126 0.00091138  0.00000440  0.0004401   0.000097724
 35  -2946.3069697829  -0.000003937883 0.00105355  0.00000633  0.0003833   0.000104407
                          ***Energy convergence achieved***
 36  -2946.3069691686   0.000000614304 0.00165001  0.00000465  0.0004089   0.000061874
 37  -2946.3069684036   0.000000765011 0.00153064  0.00000666  0.0003768   0.000075804
 38  -2946.3069710755  -0.000002671856 0.00053983  0.00000261  0.0003415   0.000041777
                          ***Energy convergence achieved***
 39  -2946.3069709390   0.000000136473 0.00155962  0.00000580  0.0003695   0.000059077
               *** Restarting incremental Fock matrix formation ***
                             ****Resetting KDIIS****
                           ***RMSP convergence achieved***
 40  -2946.3069727545  -0.000001815518 0.00027539  0.00000061  0.0003131   0.000047812
                          ***Energy convergence achieved***
 41  -2946.3069725198   0.000000234723 0.00189913  0.00000350  0.0003185   0.000034718
 42  -2946.3069726684  -0.000000148616 0.00516786  0.00000966  0.0003144   0.000030211
 43  -2946.3069728648  -0.000000196399 0.01667364  0.00002902  0.0003126   0.000026804
 44  -2946.3069745248  -0.000001660030 0.01241460  0.00002509  0.0002680   0.000040782
 45  -2946.3069765224  -0.000001997547 0.01760922  0.00002947  0.0001826   0.000027228
                          ***Energy convergence achieved***
 46  -2946.3069759733   0.000000549030 0.00183103  0.00000892  0.0001721   0.000046301
 47  -2946.3069760990  -0.000000125694 0.00188427  0.00000356  0.0001305   0.000012203
 48  -2946.3069764829  -0.000000383885 0.00103648  0.00000424  0.0001211   0.000015570
 49  -2946.3069758695   0.000000613394 0.00059679  0.00000375  0.0001046   0.000012285
 50  -2946.3069759799  -0.000000110346 0.00088497  0.00000694  0.0000781   0.000012723
 51  -2946.3069753774   0.000000602472 0.00033284  0.00000257  0.0000644   0.000015751
 52  -2946.3069754410  -0.000000063608 0.00083921  0.00000340  0.0000531   0.000007969
 53  -2946.3069751619   0.000000279092 0.00020526  0.00000186  0.0000517   0.000009845
 54  -2946.3069752274  -0.000000065448 0.00046330  0.00000185  0.0000513   0.000009596
 55  -2946.3069749755   0.000000251871 0.00045906  0.00000348  0.0000412   0.000008888
                           ***RMSP convergence achieved***

            ***Energy convergence in two consecutive cycles with***
                    ***'reasonable' density convergence***
                       *** signaling convergence ***

                    *** KDIIS BlockDiag ( 6.368 sec) ***

               *****************************************************
               *                     SUCCESS                       *
               *           SCF CONVERGED AFTER  56 CYCLES          *
               *****************************************************


----------------
TOTAL SCF ENERGY
----------------

Total Energy       :        -2946.30697477 Eh          -80173.08870 eV

Components:
Nuclear Repulsion  :         5642.82430675 Eh          153549.05567 eV
Electronic Energy  :        -8589.13128152 Eh         -233722.14437 eV
One Electron Energy:       -16055.37406267 Eh         -436888.93925 eV
Two Electron Energy:         7466.24278115 Eh          203166.79488 eV

Virial components:
Potential Energy   :        -4631.48227820 Eh         -126029.03998 eV
Kinetic Energy     :         1685.17530343 Eh           45855.95128 eV
Virial Ratio       :            2.74836824


DFT components:
N(Alpha)           :      146.999975063520 electrons
N(Beta)            :      142.999971303845 electrons
N(Total)           :      289.999946367366 electrons
E(X)               :     -217.687141813790 Eh       
E(C)               :      -12.017593597505 Eh       
E(XC)              :     -229.704735411295 Eh       
DFET-embed. en.    :        0.000000000000 Eh       

---------------
SCF CONVERGENCE
---------------

  Last Energy change         ...    2.0562e-07  Tolerance :   1.0000e-06
  Last MAX-Density change    ...    8.4524e-05  Tolerance :   1.0000e-05
  Last RMS-Density change    ...    6.6350e-07  Tolerance :   1.0000e-06

             **** THE GBW FILE WAS UPDATED (scan.gbw) ****
             **** DENSITY scan.scfp WAS UPDATED ****
             **** ENERGY FILE WAS UPDATED (scan.en.tmp) ****
----------------------
UHF SPIN CONTAMINATION
----------------------

Warning: in a DFT calculation there is little theoretical justification to 
         calculate <S**2> as in Hartree-Fock theory. We will do it anyways
         but you should keep in mind that the values have only limited relevance

Expectation value of <S**2>     :     6.503327
Ideal value S*(S+1) for S=2.0   :     6.000000
Deviation                       :     0.503327

             **** THE GBW FILE WAS UPDATED (scan.gbw) ****
             **** DENSITY scan.scfp WAS UPDATED ****
----------------
ORBITAL ENERGIES
----------------
                 SPIN UP ORBITALS
  NO   OCC          E(Eh)            E(eV) 
   0   1.0000    -215.294086     -5858.4499 
   1   1.0000     -24.594670      -669.2550 
   2   1.0000     -20.862858      -567.7072 
   3   1.0000     -20.860454      -567.6418 
   4   1.0000     -20.858916      -567.6000 
   5   1.0000      -4.126991      -112.3011 
   6   1.0000      -4.126953      -112.3001 
   7   1.0000      -4.126097      -112.2768 
   8   1.0000      -4.126003      -112.2743 
   9   1.0000      -4.120151      -112.1150 
  10   1.0000      -4.120104      -112.1137 
  11   1.0000      -4.117971      -112.0557 
  12   1.0000      -4.117830      -112.0519 
  13   1.0000      -4.117636      -112.0466 
  14   1.0000      -4.117475      -112.0422 
  15   1.0000      -4.113057      -111.9220 
  16   1.0000      -4.112936      -111.9187 
  17   1.0000      -4.106988      -111.7568 
  18   1.0000      -4.106987      -111.7568 
  19   1.0000      -2.915853       -79.3444 
  20   1.0000      -2.316915       -63.0465 
  21   1.0000      -2.316891       -63.0458 
  22   1.0000      -2.314097       -62.9698 
  23   1.0000      -2.314021       -62.9677 
  24   1.0000      -2.313058       -62.9415 
  25   1.0000      -2.313056       -62.9415 
  26   1.0000      -2.311524       -62.8998 
  27   1.0000      -2.311449       -62.8977 
  28   1.0000      -2.309868       -62.8547 
  29   1.0000      -2.309819       -62.8534 
  30   1.0000      -2.309613       -62.8478 
  31   1.0000      -2.309366       -62.8410 
  32   1.0000      -2.308908       -62.8286 
  33   1.0000      -2.308873       -62.8276 
  34   1.0000      -2.307106       -62.7796 
  35   1.0000      -2.306792       -62.7710 
  36   1.0000      -2.305805       -62.7441 
  37   1.0000      -2.305106       -62.7251 
  38   1.0000      -2.304452       -62.7073 
  39   1.0000      -2.303998       -62.6950 
  40   1.0000      -2.303901       -62.6923 
  41   1.0000      -2.303676       -62.6862 
  42   1.0000      -2.303400       -62.6787 
  43   1.0000      -2.303261       -62.6749 
  44   1.0000      -2.302713       -62.6600 
  45   1.0000      -2.302570       -62.6561 
  46   1.0000      -2.302311       -62.6491 
  47   1.0000      -2.301168       -62.6180 
  48   1.0000      -2.301001       -62.6134 
  49   1.0000      -2.300516       -62.6002 
  50   1.0000      -2.300340       -62.5954 
  51   1.0000      -2.299908       -62.5837 
  52   1.0000      -2.298581       -62.5476 
  53   1.0000      -2.298478       -62.5448 
  54   1.0000      -2.295804       -62.4720 
  55   1.0000      -2.295698       -62.4691 
  56   1.0000      -2.293685       -62.4143 
  57   1.0000      -2.293661       -62.4137 
  58   1.0000      -2.292642       -62.3860 
  59   1.0000      -2.292629       -62.3856 
  60   1.0000      -2.291030       -62.3421 
  61   1.0000      -2.290998       -62.3412 
  62   1.0000      -1.864557       -50.7372 
  63   1.0000      -1.863131       -50.6984 
  64   1.0000      -1.861408       -50.6515 
  65   1.0000      -0.436149       -11.8682 
  66   1.0000      -0.392574       -10.6825 
  67   1.0000      -0.390034       -10.6134 
  68   1.0000      -0.387762       -10.5515 
  69   1.0000      -0.382106       -10.3976 
  70   1.0000      -0.380038       -10.3414 
  71   1.0000      -0.377424       -10.2702 
  72   1.0000      -0.376497       -10.2450 
  73   1.0000      -0.373189       -10.1550 
  74   1.0000      -0.369114       -10.0441 
  75   1.0000      -0.362388        -9.8611 
  76   1.0000      -0.361767        -9.8442 
  77   1.0000      -0.360968        -9.8224 
  78   1.0000      -0.359656        -9.7867 
  79   1.0000      -0.358381        -9.7520 
  80   1.0000      -0.356178        -9.6921 
  81   1.0000      -0.355272        -9.6675 
  82   1.0000      -0.354181        -9.6378 
  83   1.0000      -0.350554        -9.5391 
  84   1.0000      -0.348313        -9.4781 
  85   1.0000      -0.346886        -9.4392 
  86   1.0000      -0.345059        -9.3895 
  87   1.0000      -0.341990        -9.3060 
  88   1.0000      -0.340154        -9.2561 
  89   1.0000      -0.339192        -9.2299 
  90   1.0000      -0.337548        -9.1852 
  91   1.0000      -0.335205        -9.1214 
  92   1.0000      -0.333901        -9.0859 
  93   1.0000      -0.328413        -8.9366 
  94   1.0000      -0.327521        -8.9123 
  95   1.0000      -0.323798        -8.8110 
  96   1.0000      -0.322110        -8.7651 
  97   1.0000      -0.320869        -8.7313 
  98   1.0000      -0.315589        -8.5876 
  99   1.0000      -0.310600        -8.4519 
 100   1.0000      -0.308973        -8.4076 
 101   1.0000      -0.306694        -8.3456 
 102   1.0000      -0.304923        -8.2974 
 103   1.0000      -0.302161        -8.2222 
 104   1.0000      -0.299335        -8.1453 
 105   1.0000      -0.297953        -8.1077 
 106   1.0000      -0.295439        -8.0393 
 107   1.0000      -0.291228        -7.9247 
 108   1.0000      -0.289005        -7.8642 
 109   1.0000      -0.287040        -7.8107 
 110   1.0000      -0.284091        -7.7305 
 111   1.0000      -0.282264        -7.6808 
 112   1.0000      -0.282176        -7.6784 
 113   1.0000      -0.280051        -7.6206 
 114   1.0000      -0.279123        -7.5953 
 115   1.0000      -0.277788        -7.5590 
 116   1.0000      -0.277423        -7.5491 
 117   1.0000      -0.275281        -7.4908 
 118   1.0000      -0.274524        -7.4702 
 119   1.0000      -0.272295        -7.4095 
 120   1.0000      -0.271202        -7.3798 
 121   1.0000      -0.271028        -7.3751 
 122   1.0000      -0.269298        -7.3280 
 123   1.0000      -0.268886        -7.3168 
 124   1.0000      -0.265473        -7.2239 
 125   1.0000      -0.264830        -7.2064 
 126   1.0000      -0.264692        -7.2026 
 127   1.0000      -0.263445        -7.1687 
 128   1.0000      -0.263410        -7.1678 
 129   1.0000      -0.259954        -7.0737 
 130   1.0000      -0.259504        -7.0615 
 131   1.0000      -0.257201        -6.9988 
 132   1.0000      -0.255749        -6.9593 
 133   1.0000      -0.254332        -6.9207 
 134   1.0000      -0.253962        -6.9107 
 135   1.0000      -0.252702        -6.8764 
 136   1.0000      -0.248968        -6.7748 
 137   1.0000      -0.247251        -6.7280 
 138   1.0000      -0.240124        -6.5341 
 139   1.0000      -0.232187        -6.3181 
 140   1.0000      -0.231063        -6.2875 
 141   1.0000      -0.228045        -6.2054 
 142   1.0000      -0.219009        -5.9595 
 143   1.0000      -0.215900        -5.8749 
 144   1.0000      -0.207400        -5.6436 
 145   1.0000      -0.199786        -5.4364 
 146   1.0000      -0.184096        -5.0095 
 147   0.0000      -0.171844        -4.6761 
 148   0.0000      -0.169261        -4.6058 
 149   0.0000      -0.137408        -3.7391 
 150   0.0000      -0.134592        -3.6624 
 151   0.0000      -0.115940        -3.1549 
 152   0.0000      -0.115793        -3.1509 
 153   0.0000      -0.108330        -2.9478 
 154   0.0000      -0.105027        -2.8579 
 155   0.0000      -0.069770        -1.8985 
 156   0.0000      -0.061849        -1.6830 
 157   0.0000      -0.060363        -1.6426 
 158   0.0000      -0.053833        -1.4649 
 159   0.0000      -0.046835        -1.2744 
 160   0.0000      -0.030521        -0.8305 
 161   0.0000      -0.029184        -0.7941 
 162   0.0000      -0.013989        -0.3807 
 163   0.0000      -0.003470        -0.0944 
 164   0.0000       0.001755         0.0478 
 165   0.0000       0.016248         0.4421 
 166   0.0000       0.016284         0.4431 
 167   0.0000       0.021460         0.5840 
 168   0.0000       0.023029         0.6267 
 169   0.0000       0.050331         1.3696 
 170   0.0000       0.051132         1.3914 
 171   0.0000       0.053299         1.4503 
 172   0.0000       0.055222         1.5027 
 173   0.0000       0.060213         1.6385 
 174   0.0000       0.060291         1.6406 
 175   0.0000       0.064880         1.7655 
 176   0.0000       0.070038         1.9058 
 177   0.0000       0.077883         2.1193 
 178   0.0000       0.078858         2.1458 
 179   0.0000       0.082078         2.2335 
 180   0.0000       0.084906         2.3104 
 181   0.0000       0.090400         2.4599 
 182   0.0000       0.091458         2.4887 
 183   0.0000       0.092876         2.5273 
 184   0.0000       0.099297         2.7020 
 185   0.0000       0.104571         2.8455 
 186   0.0000       0.118410         3.2221 
 187   0.0000       0.119795         3.2598 
 188   0.0000       0.121682         3.3111 
 189   0.0000       0.135829         3.6961 
 190   0.0000       0.137752         3.7484 
 191   0.0000       0.138513         3.7691 
 192   0.0000       0.141190         3.8420 
 193   0.0000       0.141304         3.8451 
 194   0.0000       0.145359         3.9554 
 195   0.0000       0.147386         4.0106 
 196   0.0000       0.153094         4.1659 
 197   0.0000       0.154754         4.2111 
 198   0.0000       0.159031         4.3275 
 199   0.0000       0.166505         4.5308 
 200   0.0000       0.167308         4.5527 
 201   0.0000       0.176310         4.7976 
 202   0.0000       0.177249         4.8232 
 203   0.0000       0.182196         4.9578 
 204   0.0000       0.194930         5.3043 
 205   0.0000       0.196974         5.3599 
 206   0.0000       0.204785         5.5725 
 207   0.0000       0.207697         5.6517 
 208   0.0000       0.220786         6.0079 
 209   0.0000       0.221370         6.0238 
 210   0.0000       0.230976         6.2852 
 211   0.0000       0.236311         6.4304 
 212   0.0000       0.243359         6.6221 
 213   0.0000       0.245509         6.6806 
 214   0.0000       0.249009         6.7759 
 215   0.0000       0.250518         6.8170 
 216   0.0000       0.259443         7.0598 
 217   0.0000       0.262472         7.1422 
 218   0.0000       0.265828         7.2335 
 219   0.0000       0.267614         7.2822 
 220   0.0000       0.279662         7.6100 
 221   0.0000       0.287707         7.8289 
 222   0.0000       0.291112         7.9216 
 223   0.0000       0.292627         7.9628 
 224   0.0000       0.297297         8.0899 
 225   0.0000       0.298306         8.1173 
 226   0.0000       0.302719         8.2374 
 227   0.0000       0.311426         8.4743 
 228   0.0000       0.312383         8.5004 
 229   0.0000       0.320829         8.7302 
 230   0.0000       0.323712         8.8086 
 231   0.0000       0.326305         8.8792 
 232   0.0000       0.337385         9.1807 
 233   0.0000       0.339410         9.2358 
 234   0.0000       0.340835         9.2746 
 235   0.0000       0.347016         9.4428 
 236   0.0000       0.352053         9.5798 
 237   0.0000       0.355625         9.6770 
 238   0.0000       0.363027         9.8785 
 239   0.0000       0.363325         9.8866 
 240   0.0000       0.368265        10.0210 
 241   0.0000       0.371368        10.1054 
 242   0.0000       0.377655        10.2765 
 243   0.0000       0.381734        10.3875 
 244   0.0000       0.387639        10.5482 
 245   0.0000       0.392867        10.6905 
 246   0.0000       0.394881        10.7453 
 247   0.0000       0.402983        10.9657 
 248   0.0000       0.404326        11.0023 
 249   0.0000       0.409160        11.1338 
 250   0.0000       0.412753        11.2316 
 251   0.0000       0.417588        11.3631 
 252   0.0000       0.418592        11.3905 
 253   0.0000       0.420476        11.4417 
 254   0.0000       0.435642        11.8544 
 255   0.0000       0.439576        11.9615 
 256   0.0000       0.439659        11.9637 
 257   0.0000       0.444909        12.1066 
 258   0.0000       0.457916        12.4605 
 259   0.0000       0.460879        12.5411 
 260   0.0000       0.473391        12.8816 
 261   0.0000       0.479318        13.0429 
 262   0.0000       0.479528        13.0486 
 263   0.0000       0.479784        13.0556 
 264   0.0000       0.491169        13.3654 
 265   0.0000       0.496713        13.5163 
 266   0.0000       0.503132        13.6909 
 267   0.0000       0.504319        13.7232 
 268   0.0000       0.507052        13.7976 
 269   0.0000       0.514282        13.9943 
 270   0.0000       0.521636        14.1944 
 271   0.0000       0.525801        14.3078 
 272   0.0000       0.528231        14.3739 
 273   0.0000       0.530970        14.4484 
 274   0.0000       0.531549        14.4642 
 275   0.0000       0.538400        14.6506 
 276   0.0000       0.544341        14.8123 
 277   0.0000       0.544642        14.8205 
 278   0.0000       0.547516        14.8987 
 279   0.0000       0.553532        15.0624 
 280   0.0000       0.556900        15.1540 
 281   0.0000       0.560200        15.2438 
 282   0.0000       0.561966        15.2919 
 283   0.0000       0.565933        15.3998 
 284   0.0000       0.570262        15.5176 
 285   0.0000       0.577623        15.7179 
 286   0.0000       0.580639        15.8000 
 287   0.0000       0.586532        15.9603 
 288   0.0000       0.595089        16.1932 
 289   0.0000       0.601707        16.3733 
 290   0.0000       0.601797        16.3757 
 291   0.0000       0.608711        16.5639 
 292   0.0000       0.610126        16.6024 
 293   0.0000       0.627714        17.0810 
 294   0.0000       0.648638        17.6503 
 295   0.0000       0.682486        18.5714 
 296   0.0000       0.698115        18.9967 
 297   0.0000       0.724795        19.7227 
 298   0.0000       0.734528        19.9875 
 299   0.0000       0.742769        20.2118 
 300   0.0000       0.744829        20.2678 
 301   0.0000       0.760386        20.6911 
 302   0.0000       0.776522        21.1302 
 303   0.0000       0.779959        21.2238 
 304   0.0000       0.789510        21.4837 
 305   0.0000       0.790252        21.5039 
 306   0.0000       0.795239        21.6395 
 307   0.0000       0.809552        22.0290 
 308   0.0000       0.825145        22.4533 
 309   0.0000       0.825373        22.4596 
 310   0.0000       0.836373        22.7589 
 311   0.0000       0.845148        22.9976 
 312   0.0000       0.857853        23.3434 
 313   0.0000       0.864477        23.5236 
 314   0.0000       0.867779        23.6135 
 315   0.0000       0.869359        23.6565 
 316   0.0000       0.874477        23.7957 
 317   0.0000       0.896754        24.4019 
 318   0.0000       0.900014        24.4906 
 319   0.0000       0.903499        24.5855 
 320   0.0000       0.912936        24.8422 
 321   0.0000       0.920815        25.0566 
 322   0.0000       0.929133        25.2830 
 323   0.0000       0.934170        25.4201 
 324   0.0000       0.940587        25.5947 
 325   0.0000       0.951973        25.9045 
 326   0.0000       0.971586        26.4382 
 327   0.0000       0.989158        26.9164 
 328   0.0000       0.996596        27.1188 
 329   0.0000       1.032437        28.0940 
 330   0.0000       1.058417        28.8010 
 331   0.0000       1.067513        29.0485 
 332   0.0000       1.153477        31.3877 
 333   0.0000       1.177419        32.0392 
 334   0.0000       1.217939        33.1418 
 335   0.0000       1.238123        33.6911 
 336   0.0000       1.251529        34.0558 
 337   0.0000       1.266917        34.4746 
 338   0.0000       1.273182        34.6450 
 339   0.0000       1.278256        34.7831 
 340   0.0000       1.282599        34.9013 
 341   0.0000       1.302328        35.4382 
 342   0.0000       1.317205        35.8430 
 343   0.0000       1.324842        36.0508 
 344   0.0000       1.334234        36.3063 
 345   0.0000       1.342892        36.5420 
 346   0.0000       1.348101        36.6837 
 347   0.0000       1.348866        36.7045 
 348   0.0000       1.361068        37.0365 
 349   0.0000       1.366362        37.1806 
 350   0.0000       1.373604        37.3777 
 351   0.0000       1.379394        37.5352 
 352   0.0000       1.407788        38.3079 
 353   0.0000       1.413595        38.4659 
 354   0.0000       1.415538        38.5187 
 355   0.0000       1.419034        38.6139 
 356   0.0000       1.419509        38.6268 
 357   0.0000       1.431826        38.9620 
 358   0.0000       1.435708        39.0676 
 359   0.0000       1.439939        39.1827 
 360   0.0000       1.449659        39.4472 
 361   0.0000       1.452122        39.5142 
 362   0.0000       1.457098        39.6496 
 363   0.0000       1.463872        39.8340 
 364   0.0000       1.466627        39.9090 
 365   0.0000       1.467579        39.9349 
 366   0.0000       1.469605        39.9900 
 367   0.0000       1.473607        40.0989 
 368   0.0000       1.476076        40.1661 
 369   0.0000       1.479305        40.2539 
 370   0.0000       1.480665        40.2909 
 371   0.0000       1.482426        40.3389 
 372   0.0000       1.483960        40.3806 
 373   0.0000       1.491880        40.5961 
 374   0.0000       1.495386        40.6915 
 375   0.0000       1.501803        40.8661 
 376   0.0000       1.503498        40.9123 
 377   0.0000       1.509776        41.0831 
 378   0.0000       1.512691        41.1624 
 379   0.0000       1.515373        41.2354 
 380   0.0000       1.521119        41.3917 
 381   0.0000       1.522542        41.4305 
 382   0.0000       1.525945        41.5231 
 383   0.0000       1.527604        41.5682 
 384   0.0000       1.528510        41.5929 
 385   0.0000       1.531440        41.6726 
 386   0.0000       1.534225        41.7484 
 387   0.0000       1.538703        41.8702 
 388   0.0000       1.539811        41.9004 
 389   0.0000       1.542302        41.9682 
 390   0.0000       1.543471        42.0000 
 391   0.0000       1.546982        42.0955 
 392   0.0000       1.548491        42.1366 
 393   0.0000       1.551190        42.2100 
 394   0.0000       1.551617        42.2216 
 395   0.0000       1.552408        42.2432 
 396   0.0000       1.554135        42.2902 
 397   0.0000       1.557682        42.3867 
 398   0.0000       1.558082        42.3976 
 399   0.0000       1.560254        42.4567 
 400   0.0000       1.564083        42.5609 
 401   0.0000       1.564512        42.5725 
 402   0.0000       1.565380        42.5962 
 403   0.0000       1.566246        42.6197 
 404   0.0000       1.568369        42.6775 
 405   0.0000       1.568673        42.6858 
 406   0.0000       1.571246        42.7558 
 407   0.0000       1.571588        42.7651 
 408   0.0000       1.572542        42.7910 
 409   0.0000       1.575322        42.8667 
 410   0.0000       1.577430        42.9241 
 411   0.0000       1.577638        42.9297 
 412   0.0000       1.582093        43.0509 
 413   0.0000       1.582265        43.0556 
 414   0.0000       1.583644        43.0931 
 415   0.0000       1.583706        43.0948 
 416   0.0000       1.588316        43.2203 
 417   0.0000       1.588984        43.2384 
 418   0.0000       1.590523        43.2803 
 419   0.0000       1.592056        43.3220 
 420   0.0000       1.593169        43.3523 
 421   0.0000       1.593282        43.3554 
 422   0.0000       1.598251        43.4906 
 423   0.0000       1.599049        43.5123 
 424   0.0000       1.601559        43.5806 
 425   0.0000       1.601841        43.5883 
 426   0.0000       1.603920        43.6449 
 427   0.0000       1.605587        43.6902 
 428   0.0000       1.606580        43.7173 
 429   0.0000       1.614257        43.9262 
 430   0.0000       1.618295        44.0360 
 431   0.0000       1.624863        44.2148 
 432   0.0000       1.626026        44.2464 
 433   0.0000       1.627759        44.2936 
 434   0.0000       1.629316        44.3359 
 435   0.0000       1.629342        44.3366 
 436   0.0000       1.635808        44.5126 
 437   0.0000       1.636209        44.5235 
 438   0.0000       1.636483        44.5310 
 439   0.0000       1.640970        44.6531 
 440   0.0000       1.642807        44.7030 
 441   0.0000       1.643620        44.7252 
 442   0.0000       1.644890        44.7597 
 443   0.0000       1.648985        44.8711 
 444   0.0000       1.650049        44.9001 
 445   0.0000       1.654162        45.0120 
 446   0.0000       1.658021        45.1171 
 447   0.0000       1.660074        45.1729 
 448   0.0000       1.660939        45.1964 
 449   0.0000       1.663164        45.2570 
 450   0.0000       1.664036        45.2807 
 451   0.0000       1.667215        45.3672 
 452   0.0000       1.670036        45.4440 
 453   0.0000       1.674308        45.5602 
 454   0.0000       1.675684        45.5977 
 455   0.0000       1.677271        45.6409 
 456   0.0000       1.679722        45.7076 
 457   0.0000       1.681889        45.7665 
 458   0.0000       1.684245        45.8306 
 459   0.0000       1.686650        45.8961 
 460   0.0000       1.690547        46.0021 
 461   0.0000       1.691226        46.0206 
 462   0.0000       1.696071        46.1524 
 463   0.0000       1.704500        46.3818 
 464   0.0000       1.707852        46.4730 
 465   0.0000       1.710805        46.5534 
 466   0.0000       1.716322        46.7035 
 467   0.0000       1.719880        46.8003 
 468   0.0000       1.720621        46.8205 
 469   0.0000       1.729197        47.0538 
 470   0.0000       1.729558        47.0637 
 471   0.0000       1.742314        47.4108 
 472   0.0000       1.748566        47.5809 
 473   0.0000       1.761419        47.9307 
 474   0.0000       1.770046        48.1654 
 475   0.0000       1.777219        48.3606 
 476   0.0000       1.792520        48.7769 
 477   0.0000       1.801078        49.0098 
 478   0.0000       1.812156        49.3113 
 479   0.0000       1.816305        49.4242 
 480   0.0000       1.818997        49.4974 
 481   0.0000       1.823970        49.6328 
 482   0.0000       1.836272        49.9675 
 483   0.0000       1.837069        49.9892 
 484   0.0000       1.843869        50.1742 
 485   0.0000       1.854480        50.4630 
 486   0.0000       1.858163        50.5632 
 487   0.0000       1.864231        50.7283 
 488   0.0000       1.867040        50.8047 
 489   0.0000       1.881122        51.1879 
 490   0.0000       1.887726        51.3676 
 491   0.0000       1.895046        51.5668 
 492   0.0000       1.895803        51.5874 
 493   0.0000       1.904533        51.8250 
 494   0.0000       1.917384        52.1747 
 495   0.0000       1.918599        52.2077 
 496   0.0000       1.935356        52.6637 
 497   0.0000       1.941830        52.8399 
 498   0.0000       1.946103        52.9562 
 499   0.0000       1.968613        53.5687 
 500   0.0000       1.969986        53.6061 
 501   0.0000       1.978837        53.8469 
 502   0.0000       1.980787        53.9000 
 503   0.0000       2.018592        54.9287 
 504   0.0000       2.034962        55.3741 
 505   0.0000       2.237202        60.8774 
 506   0.0000       2.252798        61.3017 
 507   0.0000       2.302372        62.6507 
 508   0.0000       2.338100        63.6229 
 509   0.0000       2.351839        63.9968 
 510   0.0000       2.430548        66.1386 
 511   0.0000       2.439069        66.3705 
 512   0.0000       2.479594        67.4732 
 513   0.0000       2.485639        67.6377 
 514   0.0000       2.496484        67.9328 
 515   0.0000       2.510324        68.3094 
 516   0.0000       2.523268        68.6616 
 517   0.0000       2.549258        69.3688 
 518   0.0000       2.556675        69.5707 
 519   0.0000       2.567288        69.8595 
 520   0.0000       2.569075        69.9081 
 521   0.0000       2.605390        70.8963 
 522   0.0000       2.637083        71.7587 
 523   0.0000       2.664567        72.5066 
 524   0.0000       2.688428        73.1558 
 525   0.0000       2.704223        73.5856 
 526   0.0000       2.732780        74.3627 
 527   0.0000       2.927929        79.6730 
 528   0.0000       2.935709        79.8847 
 529   0.0000       2.936454        79.9050 
 530   0.0000       2.943002        80.0832 
 531   0.0000       2.946611        80.1814 
 532   0.0000       2.991290        81.3971 
 533   0.0000       2.993180        81.4486 
 534   0.0000       3.076793        83.7238 
 535   0.0000      23.995502       652.9508 
 536   0.0000      24.292119       661.0222 
 537   0.0000      24.599495       669.3863 
 538   0.0000      24.601212       669.4330 
 539   0.0000      24.765360       673.8997 
 540   0.0000      24.798364       674.7978 
 541   0.0000      25.236179       686.7114 
 542   0.0000      25.248748       687.0534 
 543   0.0000      25.304665       688.5749 
 544   0.0000      25.521710       694.4810 
 545   0.0000      25.573140       695.8805 
 546   0.0000      25.656526       698.1496 
 547   0.0000      25.904386       704.8942 
 548   0.0000      26.044419       708.7047 
 549   0.0000      26.061858       709.1792 
 550   0.0000      26.153549       711.6743 
 551   0.0000      26.250865       714.3224 
 552   0.0000      26.332543       716.5449 
 553   0.0000      26.582921       723.3581 
 554   0.0000      26.628451       724.5970 
 555   0.0000      26.690249       726.2786 
 556   0.0000      26.922549       732.5998 
 557   0.0000      26.956479       733.5231 
 558   0.0000      26.987514       734.3676 
 559   0.0000      27.066085       736.5056 
 560   0.0000      27.070385       736.6226 
 561   0.0000      27.157071       738.9815 
 562   0.0000      27.315489       743.2922 
 563   0.0000      27.370848       744.7986 
 564   0.0000      27.622519       751.6470 
 565   0.0000      27.701269       753.7898 
 566   0.0000      27.734602       754.6969 
 567   0.0000      28.140066       765.7301 
 568   0.0000      28.174902       766.6781 
 569   0.0000      28.282316       769.6010 
 570   0.0000      28.340097       771.1733 
 571   0.0000      28.556328       777.0572 
 572   0.0000      28.911231       786.7146 
 573   0.0000      29.212762       794.9197 
 574   0.0000      29.594460       805.3062 
 575   0.0000      30.178844       821.2081 
 576   0.0000      30.973338       842.8274 
 577   0.0000      44.411003      1208.4848 
 578   0.0000      44.494823      1210.7657 
 579   0.0000      44.547069      1212.1874 
 580   0.0000      44.570435      1212.8232 
 581   0.0000      44.608287      1213.8532 
 582   0.0000      44.619926      1214.1699 
 583   0.0000      44.620830      1214.1945 
 584   0.0000      44.629375      1214.4270 
 585   0.0000      44.641894      1214.7677 
 586   0.0000      44.649473      1214.9739 
 587   0.0000      44.663431      1215.3537 
 588   0.0000      44.669402      1215.5162 
 589   0.0000      44.717234      1216.8178 
 590   0.0000      44.736190      1217.3336 
 591   0.0000     205.258854      5585.3774 
 592   0.0000     205.297697      5586.4343 
 593   0.0000     205.314970      5586.9044 
 594   0.0000     205.322878      5587.1196 
 595   0.0000     205.342021      5587.6405 
 596   0.0000     205.348448      5587.8154 
 597   0.0000     205.348554      5587.8182 
 598   0.0000     205.352631      5587.9292 
 599   0.0000     205.357119      5588.0513 
 600   0.0000     205.357402      5588.0590 
 601   0.0000     205.367390      5588.3308 
 602   0.0000     205.369772      5588.3956 
 603   0.0000     205.385951      5588.8358 
 604   0.0000     205.393569      5589.0432 

                 SPIN DOWN ORBITALS
  NO   OCC          E(Eh)            E(eV) 
   0   1.0000    -215.293499     -5858.4339 
   1   1.0000     -24.532286      -667.5574 
   2   1.0000     -20.817603      -566.4758 
   3   1.0000     -20.812158      -566.3276 
   4   1.0000     -20.808425      -566.2260 
   5   1.0000      -4.126395      -112.2849 
   6   1.0000      -4.126357      -112.2839 
   7   1.0000      -4.125164      -112.2514 
   8   1.0000      -4.125053      -112.2484 
   9   1.0000      -4.119849      -112.1068 
  10   1.0000      -4.119822      -112.1061 
  11   1.0000      -4.117083      -112.0315 
  12   1.0000      -4.116939      -112.0276 
  13   1.0000      -4.116342      -112.0114 
  14   1.0000      -4.116181      -112.0070 
  15   1.0000      -4.112307      -111.9015 
  16   1.0000      -4.112190      -111.8984 
  17   1.0000      -4.106778      -111.7511 
  18   1.0000      -4.106766      -111.7508 
  19   1.0000      -2.753831       -74.9356 
  20   1.0000      -2.315909       -63.0191 
  21   1.0000      -2.315885       -63.0184 
  22   1.0000      -2.313053       -62.9414 
  23   1.0000      -2.313004       -62.9400 
  24   1.0000      -2.312367       -62.9227 
  25   1.0000      -2.312309       -62.9211 
  26   1.0000      -2.310819       -62.8806 
  27   1.0000      -2.310737       -62.8784 
  28   1.0000      -2.309042       -62.8322 
  29   1.0000      -2.308906       -62.8285 
  30   1.0000      -2.308782       -62.8251 
  31   1.0000      -2.308681       -62.8224 
  32   1.0000      -2.307841       -62.7995 
  33   1.0000      -2.307772       -62.7977 
  34   1.0000      -2.306392       -62.7601 
  35   1.0000      -2.306192       -62.7547 
  36   1.0000      -2.304764       -62.7158 
  37   1.0000      -2.304352       -62.7046 
  38   1.0000      -2.303672       -62.6861 
  39   1.0000      -2.302993       -62.6676 
  40   1.0000      -2.302406       -62.6517 
  41   1.0000      -2.302325       -62.6494 
  42   1.0000      -2.302302       -62.6488 
  43   1.0000      -2.301981       -62.6401 
  44   1.0000      -2.301880       -62.6373 
  45   1.0000      -2.301543       -62.6282 
  46   1.0000      -2.301298       -62.6215 
  47   1.0000      -2.300533       -62.6007 
  48   1.0000      -2.299779       -62.5802 
  49   1.0000      -2.299449       -62.5712 
  50   1.0000      -2.299223       -62.5650 
  51   1.0000      -2.299094       -62.5615 
  52   1.0000      -2.297608       -62.5211 
  53   1.0000      -2.297508       -62.5184 
  54   1.0000      -2.295287       -62.4579 
  55   1.0000      -2.295194       -62.4554 
  56   1.0000      -2.293472       -62.4085 
  57   1.0000      -2.293464       -62.4083 
  58   1.0000      -2.292354       -62.3781 
  59   1.0000      -2.292348       -62.3780 
  60   1.0000      -2.290891       -62.3383 
  61   1.0000      -2.290843       -62.3370 
  62   1.0000      -1.711951       -46.5846 
  63   1.0000      -1.699784       -46.2535 
  64   1.0000      -1.691664       -46.0325 
  65   1.0000      -0.428118       -11.6497 
  66   1.0000      -0.390497       -10.6260 
  67   1.0000      -0.387778       -10.5520 
  68   1.0000      -0.385331       -10.4854 
  69   1.0000      -0.376659       -10.2494 
  70   1.0000      -0.374737       -10.1971 
  71   1.0000      -0.373644       -10.1674 
  72   1.0000      -0.369743       -10.0612 
  73   1.0000      -0.369297       -10.0491 
  74   1.0000      -0.365266        -9.9394 
  75   1.0000      -0.360304        -9.8044 
  76   1.0000      -0.360241        -9.8027 
  77   1.0000      -0.360080        -9.7983 
  78   1.0000      -0.358180        -9.7466 
  79   1.0000      -0.356586        -9.7032 
  80   1.0000      -0.355156        -9.6643 
  81   1.0000      -0.353839        -9.6284 
  82   1.0000      -0.352654        -9.5962 
  83   1.0000      -0.349454        -9.5091 
  84   1.0000      -0.347308        -9.4507 
  85   1.0000      -0.345536        -9.4025 
  86   1.0000      -0.344140        -9.3645 
  87   1.0000      -0.340640        -9.2693 
  88   1.0000      -0.338547        -9.2123 
  89   1.0000      -0.337193        -9.1755 
  90   1.0000      -0.336577        -9.1587 
  91   1.0000      -0.333727        -9.0812 
  92   1.0000      -0.331841        -9.0299 
  93   1.0000      -0.327244        -8.9048 
  94   1.0000      -0.326230        -8.8772 
  95   1.0000      -0.320945        -8.7334 
  96   1.0000      -0.320242        -8.7142 
  97   1.0000      -0.318011        -8.6535 
  98   1.0000      -0.313426        -8.5288 
  99   1.0000      -0.310200        -8.4410 
 100   1.0000      -0.307247        -8.3606 
 101   1.0000      -0.303450        -8.2573 
 102   1.0000      -0.303086        -8.2474 
 103   1.0000      -0.299914        -8.1611 
 104   1.0000      -0.295488        -8.0406 
 105   1.0000      -0.294437        -8.0120 
 106   1.0000      -0.294112        -8.0032 
 107   1.0000      -0.291168        -7.9231 
 108   1.0000      -0.287279        -7.8173 
 109   1.0000      -0.284604        -7.7445 
 110   1.0000      -0.283213        -7.7066 
 111   1.0000      -0.281557        -7.6615 
 112   1.0000      -0.280463        -7.6318 
 113   1.0000      -0.278867        -7.5883 
 114   1.0000      -0.278073        -7.5667 
 115   1.0000      -0.276447        -7.5225 
 116   1.0000      -0.276220        -7.5163 
 117   1.0000      -0.273631        -7.4459 
 118   1.0000      -0.272708        -7.4208 
 119   1.0000      -0.271574        -7.3899 
 120   1.0000      -0.270760        -7.3678 
 121   1.0000      -0.270524        -7.3613 
 122   1.0000      -0.267708        -7.2847 
 123   1.0000      -0.267254        -7.2724 
 124   1.0000      -0.265164        -7.2155 
 125   1.0000      -0.263221        -7.1626 
 126   1.0000      -0.263183        -7.1616 
 127   1.0000      -0.262467        -7.1421 
 128   1.0000      -0.261409        -7.1133 
 129   1.0000      -0.259027        -7.0485 
 130   1.0000      -0.258562        -7.0358 
 131   1.0000      -0.256522        -6.9803 
 132   1.0000      -0.254625        -6.9287 
 133   1.0000      -0.253189        -6.8896 
 134   1.0000      -0.252506        -6.8710 
 135   1.0000      -0.251359        -6.8398 
 136   1.0000      -0.246681        -6.7125 
 137   1.0000      -0.246036        -6.6950 
 138   1.0000      -0.238890        -6.5005 
 139   1.0000      -0.218906        -5.9567 
 140   1.0000      -0.215852        -5.8736 
 141   1.0000      -0.206556        -5.6207 
 142   1.0000      -0.199265        -5.4223 
 143   0.0000      -0.188435        -5.1276 
 144   0.0000      -0.137524        -3.7422 
 145   0.0000      -0.133739        -3.6392 
 146   0.0000      -0.112254        -3.0546 
 147   0.0000      -0.112220        -3.0537 
 148   0.0000      -0.110380        -3.0036 
 149   0.0000      -0.103891        -2.8270 
 150   0.0000      -0.095497        -2.5986 
 151   0.0000      -0.092535        -2.5180 
 152   0.0000      -0.082398        -2.2422 
 153   0.0000      -0.081189        -2.2093 
 154   0.0000      -0.080143        -2.1808 
 155   0.0000      -0.064176        -1.7463 
 156   0.0000      -0.060990        -1.6596 
 157   0.0000      -0.056658        -1.5418 
 158   0.0000      -0.048505        -1.3199 
 159   0.0000      -0.043043        -1.1712 
 160   0.0000      -0.026334        -0.7166 
 161   0.0000      -0.020635        -0.5615 
 162   0.0000      -0.008665        -0.2358 
 163   0.0000       0.005001         0.1361 
 164   0.0000       0.005926         0.1613 
 165   0.0000       0.020073         0.5462 
 166   0.0000       0.020313         0.5527 
 167   0.0000       0.024912         0.6779 
 168   0.0000       0.030851         0.8395 
 169   0.0000       0.054689         1.4882 
 170   0.0000       0.055104         1.4995 
 171   0.0000       0.055255         1.5036 
 172   0.0000       0.057456         1.5635 
 173   0.0000       0.064021         1.7421 
 174   0.0000       0.064052         1.7430 
 175   0.0000       0.065380         1.7791 
 176   0.0000       0.071366         1.9420 
 177   0.0000       0.078851         2.1457 
 178   0.0000       0.079087         2.1521 
 179   0.0000       0.083836         2.2813 
 180   0.0000       0.086592         2.3563 
 181   0.0000       0.091808         2.4982 
 182   0.0000       0.092704         2.5226 
 183   0.0000       0.094114         2.5610 
 184   0.0000       0.101966         2.7746 
 185   0.0000       0.105915         2.8821 
 186   0.0000       0.119835         3.2609 
 187   0.0000       0.122042         3.3209 
 188   0.0000       0.122529         3.3342 
 189   0.0000       0.137793         3.7495 
 190   0.0000       0.139579         3.7981 
 191   0.0000       0.140511         3.8235 
 192   0.0000       0.143887         3.9154 
 193   0.0000       0.144570         3.9339 
 194   0.0000       0.148020         4.0278 
 195   0.0000       0.151778         4.1301 
 196   0.0000       0.156482         4.2581 
 197   0.0000       0.157933         4.2976 
 198   0.0000       0.162435         4.4201 
 199   0.0000       0.167598         4.5606 
 200   0.0000       0.168211         4.5772 
 201   0.0000       0.179239         4.8773 
 202   0.0000       0.180063         4.8998 
 203   0.0000       0.184016         5.0073 
 204   0.0000       0.197214         5.3665 
 205   0.0000       0.208568         5.6754 
 206   0.0000       0.209660         5.7051 
 207   0.0000       0.213653         5.8138 
 208   0.0000       0.223431         6.0799 
 209   0.0000       0.228713         6.2236 
 210   0.0000       0.232816         6.3352 
 211   0.0000       0.238869         6.5000 
 212   0.0000       0.243838         6.6352 
 213   0.0000       0.249450         6.7879 
 214   0.0000       0.250811         6.8249 
 215   0.0000       0.252848         6.8804 
 216   0.0000       0.259940         7.0733 
 217   0.0000       0.264324         7.1926 
 218   0.0000       0.268541         7.3074 
 219   0.0000       0.270470         7.3599 
 220   0.0000       0.279855         7.6152 
 221   0.0000       0.288369         7.8469 
 222   0.0000       0.291015         7.9189 
 223   0.0000       0.294751         8.0206 
[...]
      f+1     :     0.000971
      f-1     :     0.000676
      f+2     :     0.000711
      f-2     :     0.000927
      f+3     :     0.001346
      f-3     :     0.000747
  5 Aus       :     2.547041  s :     2.547041
      pz      :     2.179455  p :     6.466552
      px      :     2.160883
      py      :     2.126215
      dz2     :     1.996470  d :     9.918564
      dxz     :     1.975806
      dyz     :     1.976233
      dx2y2   :     1.982078
      dxy     :     1.987976
      f0      :     0.000805  f :     0.005670
      f+1     :     0.001238
      f-1     :     0.000576
      f+2     :     0.000913
      f-2     :     0.000582
      f+3     :     0.000714
      f-3     :     0.000843
  6 Aus       :     2.519209  s :     2.519209
      pz      :     2.200867  p :     6.498219
      px      :     2.085825
      py      :     2.211527
      dz2     :     1.962627  d :     9.875931
      dxz     :     1.999140
      dyz     :     1.987861
      dx2y2   :     1.938613
      dxy     :     1.987690
      f0      :     0.000812  f :     0.005866
      f+1     :     0.001075
      f-1     :     0.000590
      f+2     :     0.000999
      f-2     :     0.000645
      f+3     :     0.000947
      f-3     :     0.000798
  7 Aus       :     2.513832  s :     2.513832
      pz      :     2.157802  p :     6.469854
      px      :     2.180126
      py      :     2.131926
      dz2     :     1.974951  d :     9.875797
      dxz     :     1.990076
      dyz     :     1.976329
      dx2y2   :     1.988792
      dxy     :     1.945649
      f0      :     0.000853  f :     0.005806
      f+1     :     0.000738
      f-1     :     0.000673
      f+2     :     0.000901
      f-2     :     0.000710
      f+3     :     0.001020
      f-3     :     0.000911
  8 Aus       :     2.529250  s :     2.529250
      pz      :     2.105869  p :     6.456386
      px      :     2.161627
      py      :     2.188890
      dz2     :     1.969461  d :     9.900717
      dxz     :     1.977473
      dyz     :     1.997371
      dx2y2   :     1.972855
      dxy     :     1.983556
      f0      :     0.000776  f :     0.005647
      f+1     :     0.000863
      f-1     :     0.000740
      f+2     :     0.001078
      f-2     :     0.000590
      f+3     :     0.000621
      f-3     :     0.000979
  9 Aus       :     2.529585  s :     2.529585
      pz      :     2.116539  p :     6.455670
      px      :     2.158540
      py      :     2.180591
      dz2     :     1.981860  d :     9.900549
      dxz     :     1.972040
      dyz     :     1.982274
      dx2y2   :     1.978778
      dxy     :     1.985597
      f0      :     0.000679  f :     0.005642
      f+1     :     0.000756
      f-1     :     0.001057
      f+2     :     0.000851
      f-2     :     0.000715
      f+3     :     0.000592
      f-3     :     0.000992
 10 Aus       :     2.546772  s :     2.546772
      pz      :     2.205184  p :     6.467151
      px      :     2.158887
      py      :     2.103081
      dz2     :     1.975102  d :     9.917970
      dxz     :     1.968658
      dyz     :     1.998711
      dx2y2   :     1.982901
      dxy     :     1.992598
      f0      :     0.000665  f :     0.005695
      f+1     :     0.000979
      f-1     :     0.001001
      f+2     :     0.000893
      f-2     :     0.000857
      f+3     :     0.000668
      f-3     :     0.000633
 11 Aus       :     2.513795  s :     2.513795
      pz      :     2.130077  p :     6.470082
      px      :     2.179128
      py      :     2.160877
      dz2     :     1.992844  d :     9.875641
      dxz     :     1.971503
      dyz     :     1.959779
      dx2y2   :     1.989323
      dxy     :     1.962192
      f0      :     0.000708  f :     0.005798
      f+1     :     0.000820
      f-1     :     0.000805
      f+2     :     0.000724
      f-2     :     0.000898
      f+3     :     0.000803
      f-3     :     0.001038
 12 Aus       :     2.515065  s :     2.515065
      pz      :     2.149291  p :     6.486475
      px      :     2.190097
      py      :     2.147087
      dz2     :     2.001161  d :     9.889407
      dxz     :     1.979894
      dyz     :     1.940650
      dx2y2   :     1.993270
      dxy     :     1.974432
      f0      :     0.000733  f :     0.005606
      f+1     :     0.000971
      f-1     :     0.000781
      f+2     :     0.000686
      f-2     :     0.000705
      f+3     :     0.001094
      f-3     :     0.000636
 13 Aus       :     2.634999  s :     2.634999
      pz      :     2.109561  p :     6.340077
      px      :     2.104132
      py      :     2.126384
      dz2     :     1.988835  d :     9.916661
      dxz     :     1.986572
      dyz     :     1.969323
      dx2y2   :     1.987905
      dxy     :     1.984026
      f0      :     0.000535  f :     0.004614
      f+1     :     0.000722
      f-1     :     0.000855
      f+2     :     0.000648
      f-2     :     0.000502
      f+3     :     0.000838
      f-3     :     0.000515
 14 Crs       :     6.238837  s :     6.238837
      pz      :     4.184669  p :    12.551653
      px      :     4.190181
      py      :     4.176802
      dz2     :     1.331746  d :     6.618919
      dxz     :     1.420960
      dyz     :     1.337000
      dx2y2   :     1.164793
      dxy     :     1.364420
      f0      :     0.000217  f :     0.001932
      f+1     :     0.000351
      f-1     :     0.000235
      f+2     :     0.000286
      f-2     :     0.000246
      f+3     :     0.000374
      f-3     :     0.000224

SPIN
  0 Aus       :    -0.071539  s :    -0.071539
      pz      :    -0.026485  p :    -0.037280
      px      :    -0.009393
      py      :    -0.001402
      dz2     :    -0.001600  d :     0.009823
      dxz     :    -0.001927
      dyz     :     0.000842
      dx2y2   :     0.005947
      dxy     :     0.006560
      f0      :     0.000068  f :     0.000512
      f+1     :    -0.000018
      f-1     :     0.000086
      f+2     :     0.000103
      f-2     :     0.000021
      f+3     :     0.000144
      f-3     :     0.000108
  1 Aus       :    -0.063190  s :    -0.063190
      pz      :    -0.014806  p :    -0.030263
      px      :    -0.004601
      py      :    -0.010856
      dz2     :    -0.009119  d :    -0.001761
      dxz     :     0.005923
      dyz     :    -0.005062
      dx2y2   :    -0.000126
      dxy     :     0.006622
      f0      :     0.000043  f :     0.000500
      f+1     :     0.000091
      f-1     :    -0.000007
      f+2     :     0.000097
      f-2     :    -0.000025
      f+3     :     0.000157
      f-3     :     0.000144
  2 Aus       :     0.014099  s :     0.014099
      pz      :    -0.003456  p :    -0.026279
      px      :    -0.013364
      py      :    -0.009460
      dz2     :    -0.000198  d :    -0.019834
      dxz     :    -0.006428
      dyz     :    -0.000067
      dx2y2   :    -0.013198
      dxy     :     0.000058
      f0      :    -0.000012  f :    -0.000054
      f+1     :    -0.000002
      f-1     :    -0.000016
      f+2     :    -0.000008
      f-2     :    -0.000001
      f+3     :    -0.000004
      f-3     :    -0.000011
  3 Aus       :    -0.052519  s :    -0.052519
      pz      :    -0.014107  p :    -0.051854
      px      :    -0.016161
      py      :    -0.021586
      dz2     :     0.000694  d :     0.001138
      dxz     :     0.004394
      dyz     :     0.004299
      dx2y2   :    -0.001519
      dxy     :    -0.006730
      f0      :     0.000044  f :     0.000336
      f+1     :     0.000161
      f-1     :     0.000070
      f+2     :     0.000013
      f-2     :     0.000054
      f+3     :    -0.000004
      f-3     :    -0.000003
  4 Aus       :    -0.052467  s :    -0.052467
      pz      :    -0.014065  p :    -0.051945
      px      :    -0.015320
      py      :    -0.022560
      dz2     :     0.004308  d :     0.000893
      dxz     :     0.002400
      dyz     :     0.000826
      dx2y2   :    -0.002024
      dxy     :    -0.004617
      f0      :     0.000072  f :     0.000329
      f+1     :     0.000188
      f-1     :     0.000013
      f+2     :     0.000028
      f-2     :     0.000042
      f+3     :    -0.000011
      f-3     :    -0.000002
  5 Aus       :    -0.007309  s :    -0.007309
      pz      :    -0.008047  p :    -0.020939
      px      :    -0.010298
      py      :    -0.002594
      dz2     :    -0.001755  d :    -0.011558
      dxz     :    -0.005768
      dyz     :    -0.000000
      dx2y2   :    -0.003744
      dxy     :    -0.000290
      f0      :     0.000007  f :     0.000050
      f+1     :     0.000001
      f-1     :    -0.000006
      f+2     :     0.000018
      f-2     :     0.000020
      f+3     :     0.000011
      f-3     :    -0.000001
  6 Aus       :    -0.063226  s :    -0.063226
      pz      :    -0.012479  p :    -0.030128
      px      :    -0.004663
      py      :    -0.012987
      dz2     :    -0.009221  d :    -0.001704
      dxz     :     0.005222
      dyz     :    -0.003940
      dx2y2   :    -0.000881
      dxy     :     0.007116
      f0      :     0.000015  f :     0.000501
      f+1     :     0.000072
      f-1     :     0.000006
      f+2     :     0.000106
      f-2     :    -0.000002
      f+3     :     0.000155
      f-3     :     0.000150
  7 Aus       :    -0.060714  s :    -0.060714
      pz      :    -0.033294  p :    -0.059418
      px      :    -0.017586
      py      :    -0.008538
      dz2     :     0.002401  d :     0.006616
      dxz     :     0.001093
      dyz     :    -0.000784
      dx2y2   :     0.005032
      dxy     :    -0.001126
      f0      :     0.000036  f :     0.000481
      f+1     :     0.000021
      f-1     :     0.000025
      f+2     :     0.000058
      f-2     :     0.000100
      f+3     :     0.000166
      f-3     :     0.000075
  8 Aus       :    -0.061608  s :    -0.061608
      pz      :    -0.019627  p :    -0.051919
      px      :    -0.014323
      py      :    -0.017969
      dz2     :    -0.001275  d :    -0.009673
      dxz     :     0.004501
      dyz     :    -0.001886
      dx2y2   :    -0.004063
      dxy     :    -0.006950
      f0      :     0.000076  f :     0.000225
      f+1     :     0.000163
      f-1     :    -0.000001
      f+2     :     0.000019
      f-2     :     0.000006
      f+3     :    -0.000016
      f-3     :    -0.000022
  9 Aus       :    -0.061265  s :    -0.061265
      pz      :    -0.020059  p :    -0.051999
      px      :    -0.013308
      py      :    -0.018633
      dz2     :     0.002512  d :    -0.009535
      dxz     :     0.002418
      dyz     :    -0.005152
      dx2y2   :    -0.005011
      dxy     :    -0.004302
      f0      :     0.000015  f :     0.000226
      f+1     :     0.000102
      f-1     :     0.000054
      f+2     :     0.000002
      f-2     :     0.000072
      f+3     :    -0.000009
      f-3     :    -0.000010
 10 Aus       :    -0.007925  s :    -0.007925
      pz      :    -0.008007  p :    -0.020943
      px      :    -0.010544
      py      :    -0.002391
      dz2     :    -0.005263  d :    -0.011236
      dxz     :    -0.006503
      dyz     :    -0.000358
      dx2y2   :    -0.000650
      dxy     :     0.001538
      f0      :     0.000003  f :     0.000055
      f+1     :     0.000005
      f-1     :     0.000016
      f+2     :    -0.000009
      f-2     :    -0.000008
      f+3     :     0.000042
      f-3     :     0.000007
 11 Aus       :    -0.060352  s :    -0.060352
      pz      :    -0.025262  p :    -0.059493
      px      :    -0.016860
      py      :    -0.017370
      dz2     :     0.003215  d :     0.006641
      dxz     :     0.002413
      dyz     :     0.000280
      dx2y2   :     0.003090
      dxy     :    -0.002357
      f0      :     0.000034  f :     0.000484
      f+1     :     0.000049
      f-1     :     0.000079
      f+2     :     0.000045
      f-2     :     0.000180
      f+3     :     0.000064
      f-3     :     0.000032
 12 Aus       :    -0.071740  s :    -0.071740
      pz      :    -0.020705  p :    -0.037583
      px      :    -0.009288
      py      :    -0.007590
      dz2     :     0.002477  d :     0.009507
      dxz     :     0.003703
      dyz     :    -0.000648
      dx2y2   :     0.002779
      dxy     :     0.001196
      f0      :     0.000059  f :     0.000515
      f+1     :     0.000000
      f-1     :     0.000144
      f+2     :     0.000136
      f-2     :     0.000101
      f+3     :     0.000052
      f-3     :     0.000022
 13 Aus       :     0.013340  s :     0.013340
      pz      :    -0.003897  p :    -0.026406
      px      :    -0.013574
      py      :    -0.008935
      dz2     :    -0.000510  d :    -0.019782
      dxz     :    -0.003833
      dyz     :    -0.002484
      dx2y2   :    -0.010036
      dxy     :    -0.002919
      f0      :    -0.000026  f :    -0.000055
      f+1     :    -0.000003
      f-1     :    -0.000002
      f+2     :    -0.000001
      f-2     :     0.000000
      f+3     :    -0.000006
      f-3     :    -0.000016
 14 Crs       :     0.019891  s :     0.019891
      pz      :     0.013099  p :     0.040515
      px      :     0.014491
      py      :     0.012926
      dz2     :     0.609038  d :     3.148738
      dxz     :     0.740336
      dyz     :     0.609433
      dx2y2   :     0.369737
      dxy     :     0.820193
      f0      :     0.000013  f :     0.000083
      f+1     :     0.000017
      f-1     :     0.000014
      f+2     :     0.000015
      f-2     :     0.000006
      f+3     :     0.000006
      f-3     :     0.000011


                      *****************************
                      * MAYER POPULATION ANALYSIS *
                      *****************************

  NA   - Mulliken gross atomic population
  ZA   - Total nuclear charge
  QA   - Mulliken gross atomic charge
  VA   - Mayer's total valence
  BVA  - Mayer's bonded valence
  FA   - Mayer's free valence

  ATOM       NA         ZA         QA         VA         BVA        FA
  0 Au    18.6354    19.0000     0.3646     1.7669     1.7534     0.0134
  1 Au    18.6417    19.0000     0.3583     1.8784     1.8678     0.0106
  2 Au    18.7134    19.0000     0.2866     1.4632     1.4609     0.0023
  3 Au    18.6106    19.0000     0.3894     1.7353     1.7268     0.0086
  4 Au    18.6090    19.0000     0.3910     1.7324     1.7238     0.0087
  5 Au    18.6645    19.0000     0.3355     1.6003     1.5994     0.0010
  6 Au    18.6464    19.0000     0.3536     1.8827     1.8721     0.0106
  7 Au    18.5466    19.0000     0.4534     1.7770     1.7679     0.0092
  8 Au    18.5445    19.0000     0.4555     1.6086     1.5932     0.0154
  9 Au    18.5426    19.0000     0.4574     1.6074     1.5923     0.0151
 10 Au    18.6622    19.0000     0.3378     1.6029     1.6020     0.0010
 11 Au    18.5457    19.0000     0.4543     1.7792     1.7701     0.0090
 12 Au    18.6314    19.0000     0.3686     1.7656     1.7522     0.0134
 13 Au    18.7113    19.0000     0.2887     1.4634     1.4612     0.0022
 14 Cr    29.2948    24.0000    -5.2948    10.5280     7.4907     3.0373

  Mayer bond orders larger than 0.100000
B(  0-Au,  2-Au) :   0.1902 B(  0-Au,  3-Au) :   0.2353 B(  0-Au,  5-Au) :   0.2116 
B(  0-Au, 11-Au) :   0.1628 B(  0-Au, 14-Cr) :   0.6100 B(  1-Au,  3-Au) :   0.1481 
B(  1-Au,  9-Au) :   0.1983 B(  1-Au, 10-Au) :   0.1240 B(  1-Au, 11-Au) :   0.2669 
B(  1-Au, 13-Au) :   0.2661 B(  1-Au, 14-Cr) :   0.6545 B(  2-Au,  4-Au) :   0.2479 
B(  2-Au,  5-Au) :   0.2462 B(  2-Au,  6-Au) :   0.2668 B(  2-Au, 14-Cr) :   0.3605 
B(  3-Au,  4-Au) :   0.2138 B(  3-Au, 13-Au) :   0.2485 B(  3-Au, 14-Cr) :   0.5677 
B(  4-Au,  6-Au) :   0.1488 B(  4-Au, 12-Au) :   0.2352 B(  4-Au, 14-Cr) :   0.5649 
B(  5-Au,  6-Au) :   0.1260 B(  5-Au,  8-Au) :   0.2534 B(  5-Au, 11-Au) :   0.2060 
B(  5-Au, 14-Cr) :   0.3550 B(  6-Au,  7-Au) :   0.2680 B(  6-Au,  8-Au) :   0.1964 
B(  6-Au, 14-Cr) :   0.6548 B(  7-Au,  8-Au) :   0.1689 B(  7-Au, 10-Au) :   0.2077 
B(  7-Au, 12-Au) :   0.1608 B(  7-Au, 14-Cr) :   0.6861 B(  8-Au,  9-Au) :   0.2139 
B(  8-Au, 14-Cr) :   0.5110 B(  9-Au, 10-Au) :   0.2515 B(  9-Au, 11-Au) :   0.1691 
B(  9-Au, 14-Cr) :   0.5106 B( 10-Au, 12-Au) :   0.2131 B( 10-Au, 13-Au) :   0.2480 
B( 10-Au, 14-Cr) :   0.3543 B( 11-Au, 14-Cr) :   0.6876 B( 12-Au, 13-Au) :   0.1875 
B( 12-Au, 14-Cr) :   0.6139 B( 13-Au, 14-Cr) :   0.3598 

-------
TIMINGS
-------

Total SCF time: 0 days 0 hours 15 min 25 sec 

Total time                  ....     925.661 sec
Sum of individual times     ....     896.585 sec  ( 96.9%)

Fock matrix formation       ....     538.957 sec  ( 58.2%)
  Split-RI-J                ....     135.389 sec  ( 25.1% of F)
  XC integration            ....     342.930 sec  ( 63.6% of F)
    Basis function eval.    ....      19.801 sec  (  5.8% of XC)
    Density eval.           ....     149.602 sec  ( 43.6% of XC)
    XC-Functional eval.     ....      11.905 sec  (  3.5% of XC)
    XC-Potential eval.      ....     129.290 sec  ( 37.7% of XC)
Diagonalization             ....     341.138 sec  ( 36.9%)
Density matrix formation    ....       6.477 sec  (  0.7%)
Population analysis         ....       2.027 sec  (  0.2%)
Initial guess               ....       0.777 sec  (  0.1%)
Orbital Transformation      ....       0.000 sec  (  0.0%)
Orbital Orthonormalization  ....       0.487 sec  (  0.1%)
DIIS solution               ....       0.000 sec  (  0.0%)
Grid generation             ....       7.209 sec  (  0.8%)

Maximum memory used throughout the entire SCF-calculation: 104.3 MB

-------------------------   --------------------
FINAL SINGLE POINT ENERGY     -2946.318056525746
-------------------------   --------------------


                            ***************************************
                            *     ORCA property calculations      *
                            ***************************************

                                    ---------------------
                                    Active property flags
                                    ---------------------
   (+) Dipole Moment


------------------------------------------------------------------------------
                       ORCA ELECTRIC PROPERTIES CALCULATION
------------------------------------------------------------------------------

Dipole Moment Calculation                       ... on
Quadrupole Moment Calculation                   ... off
Polarizability Calculation                      ... off
GBWName                                         ... scan_job2.gbw
Electron density                                ... scan_job2.scfp
The origin for moment calculation is the CENTER OF MASS  = (16.638162, 15.290919 12.895797)

-------------
DIPOLE MOMENT
-------------
                                X             Y             Z
Electronic contribution:     -0.20235       0.76933      -3.18520
Nuclear contribution   :      0.20045      -0.75431       3.11028
                        -----------------------------------------
Total Dipole Moment    :     -0.00190       0.01502      -0.07492
                        -----------------------------------------
Magnitude (a.u.)       :      0.07643
Magnitude (Debye)      :      0.19428



--------------------
Rotational spectrum 
--------------------
 
Rotational constants in cm-1:     0.001286     0.000987     0.000882 
Rotational constants in MHz :    38.566472    29.594202    26.454133 

 Dipole components along the rotational axes: 
x,y,z [a.u.] :     0.000201    -0.076433     0.000293 
x,y,z [Debye]:     0.000510    -0.194277     0.000746 

 

Timings for individual modules:

Sum of individual times         ...      955.274 sec (=  15.921 min)
GTO integral calculation        ...       28.655 sec (=   0.478 min)   3.0 %
SCF iterations                  ...      926.619 sec (=  15.444 min)  97.0 %



                             ****ORCA TERMINATED NORMALLY****
TOTAL RUN TIME: 0 days 0 hours 34 minutes 40 seconds 458 msec
