
                                 *****************
                                 * O   R   C   A *
                                 *****************

                                            #,                                       
                                            ###                                      
                                            ####                                     
                                            #####                                    
                                            ######                                   
                                           ########,                                 
                                     ,,################,,,,,                         
                               ,,#################################,,                 
                          ,,##########################################,,             
                       ,#########################################, ''#####,          
                    ,#############################################,,   '####,        
                  ,##################################################,,,,####,       
                ,###########''''           ''''###############################       
              ,#####''   ,,,,##########,,,,          '''####'''          '####       
            ,##' ,,,,###########################,,,                        '##       
           ' ,,###''''                  '''############,,,                           
         ,,##''                                '''############,,,,        ,,,,,,###''
      ,#''                                            '''#######################'''  
     '                                                          ''''####''''         
             ,#######,   #######,   ,#######,      ##                                
            ,#'     '#,  ##    ##  ,#'     '#,    #''#        ######   ,####,        
            ##       ##  ##   ,#'  ##            #'  '#       #        #'  '#        
            ##       ##  #######   ##           ,######,      #####,   #    #        
            '#,     ,#'  ##    ##  '#,     ,#' ,#      #,         ##   #,  ,#        
             '#######'   ##     ##  '#######'  #'      '#     #####' # '####'        



                  #######################################################
                  #                        -***-                        #
                  #          Department of theory and spectroscopy      #
                  #    Directorship and core code : Frank Neese         #
                  #        Max Planck Institute fuer Kohlenforschung    #
                  #                Kaiser Wilhelm Platz 1               #
                  #                 D-45470 Muelheim/Ruhr               #
                  #                      Germany                        #
                  #                                                     #
                  #                  All rights reserved                #
                  #                        -***-                        #
                  #######################################################


                         Program Version 5.0.3 -  RELEASE  -


 With contributions from (in alphabetic order):
   Daniel Aravena         : Magnetic Suceptibility
   Michael Atanasov       : Ab Initio Ligand Field Theory (pilot matlab implementation)
   Alexander A. Auer      : GIAO ZORA, VPT2 properties, NMR spectrum
   Ute Becker             : Parallelization
   Giovanni Bistoni       : ED, misc. LED, open-shell LED, HFLD
   Martin Brehm           : Molecular dynamics
   Dmytro Bykov           : SCF Hessian
   Vijay G. Chilkuri      : MRCI spin determinant printing, contributions to CSF-ICE
   Dipayan Datta          : RHF DLPNO-CCSD density
   Achintya Kumar Dutta   : EOM-CC, STEOM-CC
   Dmitry Ganyushin       : Spin-Orbit,Spin-Spin,Magnetic field MRCI
   Miquel Garcia          : C-PCM and meta-GGA Hessian, CC/C-PCM, Gaussian charge scheme
   Yang Guo               : DLPNO-NEVPT2, F12-NEVPT2, CIM, IAO-localization
   Andreas Hansen         : Spin unrestricted coupled pair/coupled cluster methods
   Benjamin Helmich-Paris : MC-RPA, TRAH-SCF, COSX integrals
   Lee Huntington         : MR-EOM, pCC
   Robert Izsak           : Overlap fitted RIJCOSX, COSX-SCS-MP3, EOM
   Marcus Kettner         : VPT2
   Christian Kollmar      : KDIIS, OOCD, Brueckner-CCSD(T), CCSD density, CASPT2, CASPT2-K
   Simone Kossmann        : Meta GGA functionals, TD-DFT gradient, OOMP2, MP2 Hessian
   Martin Krupicka        : Initial AUTO-CI
   Lucas Lang             : DCDCAS
   Marvin Lechner         : AUTO-CI (C++ implementation), FIC-MRCC
   Dagmar Lenk            : GEPOL surface, SMD
   Dimitrios Liakos       : Extrapolation schemes; Compound Job, initial MDCI parallelization
   Dimitrios Manganas     : Further ROCIS development; embedding schemes
   Dimitrios Pantazis     : SARC Basis sets
   Anastasios Papadopoulos: AUTO-CI, single reference methods and gradients
   Taras Petrenko         : DFT Hessian,TD-DFT gradient, ASA, ECA, R-Raman, ABS, FL, XAS/XES, NRVS
   Peter Pinski           : DLPNO-MP2, DLPNO-MP2 Gradient
   Christoph Reimann      : Effective Core Potentials
   Marius Retegan         : Local ZFS, SOC
   Christoph Riplinger    : Optimizer, TS searches, QM/MM, DLPNO-CCSD(T), (RO)-DLPNO pert. Triples
   Tobias Risthaus        : Range-separated hybrids, TD-DFT gradient, RPA, STAB
   Michael Roemelt        : Original ROCIS implementation
   Masaaki Saitow         : Open-shell DLPNO-CCSD energy and density
   Barbara Sandhoefer     : DKH picture change effects
   Avijit Sen             : IP-ROCIS
   Kantharuban Sivalingam : CASSCF convergence, NEVPT2, FIC-MRCI
   Bernardo de Souza      : ESD, SOC TD-DFT
   Georgi Stoychev        : AutoAux, RI-MP2 NMR, DLPNO-MP2 response
   Willem Van den Heuvel  : Paramagnetic NMR
   Boris Wezisla          : Elementary symmetry handling
   Frank Wennmohs         : Technical directorship


 We gratefully acknowledge several colleagues who have allowed us to
 interface, adapt or use parts of their codes:
   Stefan Grimme, W. Hujo, H. Kruse, P. Pracht,  : VdW corrections, initial TS optimization,
                  C. Bannwarth, S. Ehlert          DFT functionals, gCP, sTDA/sTD-DF
   Ed Valeev, F. Pavosevic, A. Kumar             : LibInt (2-el integral package), F12 methods
   Garnet Chan, S. Sharma, J. Yang, R. Olivares  : DMRG
   Ulf Ekstrom                                   : XCFun DFT Library
   Mihaly Kallay                                 : mrcc  (arbitrary order and MRCC methods)
   Jiri Pittner, Ondrej Demel                    : Mk-CCSD
   Frank Weinhold                                : gennbo (NPA and NBO analysis)
   Christopher J. Cramer and Donald G. Truhlar   : smd solvation model
   Lars Goerigk                                  : TD-DFT with DH, B97 family of functionals
   V. Asgeirsson, H. Jonsson                     : NEB implementation
   FAccTs GmbH                                   : IRC, NEB, NEB-TS, DLPNO-Multilevel, CI-OPT
                                                   MM, QMMM, 2- and 3-layer-ONIOM, Crystal-QMMM,
                                                   LR-CPCM, SF, NACMEs, symmetry and pop. for TD-DFT,
                                                   nearIR, NL-DFT gradient (VV10), updates on ESD,
                                                   ML-optimized integration grids
   S Lehtola, MJT Oliveira, MAL Marques          : LibXC Library
   Liviu Ungur et al                             : ANISO software


 Your calculation uses the libint2 library for the computation of 2-el integrals
 For citations please refer to: http://libint.valeyev.net

 Your ORCA version has been built with support for libXC version: 5.1.0
 For citations please refer to: https://tddft.org/programs/libxc/

 This ORCA versions uses:
   CBLAS   interface :  Fast vector & matrix operations
   LAPACKE interface :  Fast linear algebra routines
   SCALAPACK package :  Parallel linear algebra routines
   Shared memory     :  Shared parallel matrices
   BLAS/LAPACK       :  OpenBLAS 0.3.15  USE64BITINT DYNAMIC_ARCH NO_AFFINITY Sandybridge SINGLE_THREADED
        Core in use  :  Sandybridge
   Copyright (c) 2011-2014, The OpenBLAS Project




***************************************
The coordinates will be read from file: pbe.xyz
***************************************


================================================================================

cite the ECPs for Au [Def2-ECP] as follows:
Ce-Yb(ecp-28): M. Dolg, H. Stoll, H.Preuss, J. Chem. Phys., 1989, 90, 1730-1734.
Y-Cd(ecp-28), Hf-Hg(ecp-46): D. Andrae,U. Haeussermann, M. Dolg, H. Stoll, H. Preuss, Theor. Chim. Acta, 1990, 77, 123-141.
In-Sb(ecp-28), Tl-Bi(ecp-46): B. Metz, H. Stoll, M. Dolg, J. Chem. Phys., 2000, 113, 2563-2569.
Te-Xe(ecp-28), Po-Rn(ecp-46): K. A. Peterson, D. Figgen, E. Goll, H. Stoll, M. Dolg, J. Chem. Phys., 2003, 119, 11113-11123.
Rb(ecp-28), Cs(ecp-46): T. Leininger, A. Nicklass, W. Kuechle, H. Stoll, M. Dolg, A. Bergner, Chem. Phys. Lett., 1996, 255, 274-280.
Sr(ecp-28), Ba(ecp-46): M. Kaupp, P. V. Schleyer, H. Stoll and H. Preuss, J. Chem. Phys., 1991, 94, 1360-1366.
La(ecp-46): M. Dolg, H. Stoll, A. Savin, H. Preuss, Theor. Chim. Acta, 1989, 75, 173-194.
Lu(ecp-28): X. Cao, M. Dolg, J. Chem. Phys., 2001, 115, 7348-7355.

ECP parameters for Au [Def2-ECP] have been obtained from:
TURBOMOLE (7.0.2)

----- Orbital basis set information -----
Your calculation utilizes the basis: def2-TZVP
   F. Weigend and R. Ahlrichs, Phys. Chem. Chem. Phys. 7, 3297 (2005).

----- AuxJ basis set information -----
Your calculation utilizes the auxiliary basis: def2/J
   F. Weigend, Phys. Chem. Chem. Phys. 8, 1057 (2006).

----- AuxC basis set information -----
Your calculation utilizes the auxiliary basis: def2-TZVP/C
  H-La, Hf-Rn : A. Hellweg, C. Hattig, S. Hofener and W. Klopper, Theor. Chem. Acc. 117, 587 (2007).
        Ce-Lu : J. Chmela and M. E. Harding, Mol. Phys. (2018).

================================================================================
                                        WARNINGS
                       Please study these warnings very carefully!
================================================================================


IMPORTANT NOTE: CASSCF must signal convergence for a subsequent CASPT2/NEVPT2! 
                Set maxiter=1 to run CASPT2/NEVPT2 with arbitrary orbitals.


INFO   : the flag for use of the SHARK integral package has been found!

================================================================================
                                       INPUT FILE
================================================================================
NAME = nevpt2.inp
|  1> !SC-NEVPT2 def2-TZVP def2-TZVP/C
|  2> !MOREAD RIJCOSX def2/J
|  3> %maxcore 4000
|  4> %moinp "casscf.gbw"
|  5> %pal nprocs 6 end 
|  6> 
|  7> %casscf
|  8>  mult 5,3
|  9>  bweight 1,1
| 10>  nroots 5,45
| 11>  nel 6
| 12>  norb 5
| 13>  ptsettings
| 14>   d4tpre 1e-14 # default = 1e-10
| 15>   d3tpre 1e-14
| 16>  end
| 17>  rel           
| 18>    dosoc true   
| 19>    gtensor true 
| 20>  end           
| 21> end
| 22> 
| 23> 
| 24> *xyzfile 0 5 pbe.xyz
| 25> 
| 26> 
| 27>                          ****END OF INPUT****
================================================================================

                       ****************************
                       * Single Point Calculation *
                       ****************************

---------------------------------
CARTESIAN COORDINATES (ANGSTROEM)
---------------------------------
  Au     6.513322    8.842332    3.910751
  Au     8.236344    6.749745    4.132713
  Au     7.563026    4.798717    5.794669
  Au     6.230482    3.520495    7.820631
  Au     4.808190    5.594234    6.808095
  Au     4.528511   10.509245    4.726152
  Au     4.296739    8.006768    5.768552
  Au     5.362129    7.848761    8.444327
  Au     7.367239    5.900811    8.595750
  Au     8.175991    8.448817    8.218433
  Au     8.676341    9.240011    5.596556
  Au     6.302923   10.035504    6.803983
  Fe     6.827670    7.307423    6.247159

----------------------------
CARTESIAN COORDINATES (A.U.)
----------------------------
  NO LB      ZA    FRAG     MASS         X           Y           Z
   0 Au   19.0000*   0   196.966   12.308396   16.709586    7.390248
   1 Au   19.0000*   0   196.966   15.564434   12.755170    7.809696
   2 Au   19.0000*   0   196.966   14.292049    9.068260   10.950337
   3 Au   19.0000*   0   196.966   11.773905    6.652771   14.778851
   4 Au   19.0000*   0   196.966    9.086162   10.571571   12.865435
   5 Au   19.0000*   0   196.966    8.557645   19.859596    8.931132
   6 Au   19.0000*   0   196.966    8.119660   15.130599   10.900984
   7 Au   19.0000*   0   196.966   10.132956   14.832010   15.957466
   8 Au   19.0000*   0   196.966   13.922065   11.150917   16.243613
   9 Au   19.0000*   0   196.966   15.450384   15.965950   15.530588
  10 Au   19.0000*   0   196.966   16.395908   17.461090   10.575958
  11 Au   19.0000*   0   196.966   11.910798   18.964354   12.857665
  12 Fe   26.0000    0    55.850   12.902426   13.809028   11.805420
* core charge reduced due to ECP

--------------------------------
INTERNAL COORDINATES (ANGSTROEM)
--------------------------------
 Au     0   0   0     0.000000000000     0.00000000     0.00000000
 Au     1   0   0     2.719741063581     0.00000000     0.00000000
 Au     2   1   0     2.649898929839   117.17431514     0.00000000
 Au     3   2   1     2.741176801435   158.49410946   344.17899345
 Au     4   3   2     2.710818957265    67.80732340    22.87074180
 Au     1   2   3     2.717159511196   155.54601391    23.44435537
 Au     5   4   3     2.676294387150   159.21916500   322.71636075
 Au     5   4   3     2.840246022766   106.84139467   265.45260644
 Au     4   3   2     2.749350841795    66.65050056   305.81074643
 Au     9   4   3     2.699773978066   154.36399599    33.38271471
 Au     1   2   3     2.771053331396    64.29456878    98.64886877
 Au     6   1   2     2.773149038440    69.67483236    43.46102994
 Fe     2   1   3     2.601201182261    63.78770314   330.01229384

---------------------------
INTERNAL COORDINATES (A.U.)
---------------------------
 Au     0   0   0     0.000000000000     0.00000000     0.00000000
 Au     1   0   0     5.139565765348     0.00000000     0.00000000
 Au     2   1   0     5.007583259966   117.17431514     0.00000000
 Au     3   2   1     5.180073439371   158.49410946   344.17899345
 Au     4   3   2     5.122705427874    67.80732340    22.87074180
 Au     1   2   3     5.134687338341   155.54601391    23.44435537
 Au     5   4   3     5.057463445463   159.21916500   322.71636075
 Au     5   4   3     5.367287135987   106.84139467   265.45260644
 Au     4   3   2     5.195520137058    66.65050056   305.81074643
 Au     9   4   3     5.101833442031   154.36399599    33.38271471
 Au     1   2   3     5.236531898828    64.29456878    98.64886877
 Au     6   1   2     5.240492211198    69.67483236    43.46102994
 Fe     2   1   3     4.915557853706    63.78770314   330.01229384

---------------------
BASIS SET INFORMATION
---------------------
There are 2 groups of distinct atoms

 Group   1 Type Au  : 8s7p6d1f contracted to 6s4p3d1f pattern {311111/4111/411/1}
 Group   2 Type Fe  : 17s11p7d1f contracted to 6s4p4d1f pattern {842111/6311/4111/1}

Atom   0Au   basis set group =>   1
Atom   1Au   basis set group =>   1
Atom   2Au   basis set group =>   1
Atom   3Au   basis set group =>   1
Atom   4Au   basis set group =>   1
Atom   5Au   basis set group =>   1
Atom   6Au   basis set group =>   1
Atom   7Au   basis set group =>   1
Atom   8Au   basis set group =>   1
Atom   9Au   basis set group =>   1
Atom  10Au   basis set group =>   1
Atom  11Au   basis set group =>   1
Atom  12Fe   basis set group =>   2
---------------------------------
AUXILIARY/J BASIS SET INFORMATION
---------------------------------
There are 2 groups of distinct atoms

 Group   1 Type Au  : 11s5p5d3f3g contracted to 8s5p5d2f3g pattern {41111111/11111/11111/21/111}
 Group   2 Type Fe  : 19s5p5d3f3g contracted to 8s5p5d2f3g pattern {121111111/11111/11111/21/111}

Atom   0Au   basis set group =>   1
Atom   1Au   basis set group =>   1
Atom   2Au   basis set group =>   1
Atom   3Au   basis set group =>   1
Atom   4Au   basis set group =>   1
Atom   5Au   basis set group =>   1
Atom   6Au   basis set group =>   1
Atom   7Au   basis set group =>   1
Atom   8Au   basis set group =>   1
Atom   9Au   basis set group =>   1
Atom  10Au   basis set group =>   1
Atom  11Au   basis set group =>   1
Atom  12Fe   basis set group =>   2
---------------------------------
AUXILIARY/C BASIS SET INFORMATION
---------------------------------
There are 2 groups of distinct atoms

 Group   1 Type Au  : 8s8p7d5f3g2h contracted to 8s8p7d5f3g2h pattern {11111111/11111111/1111111/11111/111/11}
 Group   2 Type Fe  : 11s9p8d6f5g2h contracted to 9s8p8d6f5g2h pattern {311111111/21111111/11111111/111111/11111/11}

Atom   0Au   basis set group =>   1
Atom   1Au   basis set group =>   1
Atom   2Au   basis set group =>   1
Atom   3Au   basis set group =>   1
Atom   4Au   basis set group =>   1
Atom   5Au   basis set group =>   1
Atom   6Au   basis set group =>   1
Atom   7Au   basis set group =>   1
Atom   8Au   basis set group =>   1
Atom   9Au   basis set group =>   1
Atom  10Au   basis set group =>   1
Atom  11Au   basis set group =>   1
Atom  12Fe   basis set group =>   2
-------------------------
ECP PARAMETER INFORMATION
-------------------------

 Group 1, Type Au ECP Def2-ECP (replacing 60 core electrons, lmax=3)

Atom   0Au   ECP group =>   1
Atom   1Au   ECP group =>   1
Atom   2Au   ECP group =>   1
Atom   3Au   ECP group =>   1
Atom   4Au   ECP group =>   1
Atom   5Au   ECP group =>   1
Atom   6Au   ECP group =>   1
Atom   7Au   ECP group =>   1
Atom   8Au   ECP group =>   1
Atom   9Au   ECP group =>   1
Atom  10Au   ECP group =>   1
Atom  11Au   ECP group =>   1



           ************************************************************
           *        Program running with 6 parallel MPI-processes     *
           *              working on a common directory               *
           ************************************************************
------------------------------------------------------------------------------
                           ORCA GTO INTEGRAL CALCULATION
                           -- RI-GTO INTEGRALS CHOSEN --
------------------------------------------------------------------------------
------------------------------------------------------------------------------
                   ___                                                        
                  /   \      - P O W E R E D   B Y -                         
                 /     \                                                     
                 |  |  |   _    _      __       _____    __    __             
                 |  |  |  | |  | |    /  \     |  _  \  |  |  /  |          
                  \  \/   | |  | |   /    \    | | | |  |  | /  /          
                 / \  \   | |__| |  /  /\  \   | |_| |  |  |/  /          
                |  |  |   |  __  | /  /__\  \  |    /   |      \           
                |  |  |   | |  | | |   __   |  |    \   |  |\   \          
                \     /   | |  | | |  |  |  |  | |\  \  |  | \   \       
                 \___/    |_|  |_| |__|  |__|  |_| \__\ |__|  \__/        
                                                                              
                      - O R C A' S   B I G   F R I E N D -                    
                                      &                                       
                       - I N T E G R A L  F E E D E R -                       
                                                                              
 v1 FN, 2020, v2 2021                                                         
------------------------------------------------------------------------------


Reading SHARK input file nevpt2.SHARKINP.tmp ... ok
----------------------
SHARK INTEGRAL PACKAGE
----------------------

Number of atoms                             ...     13
Number of basis functions                   ...    525
Number of shells                            ...    183
Maximum angular momentum                    ...      3
Integral batch strategy                     ... SHARK/LIBINT Hybrid
RI-J (if used) integral strategy            ... SPLIT-RIJ (Revised 2003 algorithm where possible)
Printlevel                                  ...      1
Contraction scheme used                     ... SEGMENTED contraction
Coulomb Range Separation                    ... NOT USED
Exchange Range Separation                   ... NOT USED
Finite Nucleus Model                        ... NOT USED
Auxiliary Coulomb fitting basis             ... AVAILABLE
   # of basis functions in Aux-J            ...   1157
   # of shells in Aux-J                     ...    299
   Maximum angular momentum in Aux-J        ...      4
Auxiliary J/K fitting basis                 ... NOT available
Auxiliary Correlation fitting basis         ... AVAILABLE
   # of basis functions in Aux-C            ...   1994
   # of shells in Aux-C                     ...    434
   Maximum angular momentum in Aux-C        ...      5
Auxiliary 'external' fitting basis          ... NOT available
Integral threshold                          ...     1.000000e-10
Primitive cut-off                           ...     1.000000e-11
Primitive pair pre-selection threshold      ...     1.000000e-11

Calculating pre-screening integrals         ... done (  0.2 sec) Dimension = 183
Organizing shell pair data                  ... done (  0.3 sec)
Shell pair information
Total number of shell pairs                 ...     16836
Shell pairs after pre-screening             ...     13596
Total number of primitive shell pairs       ...     45389
Primitive shell pairs kept                  ...     26757
          la=0 lb=0:   2138 shell pairs
          la=1 lb=0:   3110 shell pairs
          la=1 lb=1:   1161 shell pairs
          la=2 lb=0:   2712 shell pairs
          la=2 lb=1:   1890 shell pairs
          la=2 lb=2:    783 shell pairs
          la=3 lb=0:    710 shell pairs
          la=3 lb=1:    545 shell pairs
          la=3 lb=2:    472 shell pairs
          la=3 lb=3:     75 shell pairs

Calculating one electron integrals          ... done (  0.0 sec)
Calculating ECP integrals                   ... done (  7.8 sec)
Calculating RI/J V-Matrix + Cholesky decomp.... done (  0.1 sec)
Calculating RI/C V-Matrix + Cholesky decomp.... done (  0.3 sec)
Calculating Nuclear repulsion               ... done (  0.0 sec) ENN=   4362.866747077052 Eh

SHARK setup successfully completed in   9.2 seconds

Maximum memory used throughout the entire GTOINT-calculation: 39.0 MB


           ************************************************************
           *        Program running with 6 parallel MPI-processes     *
           *              working on a common directory               *
           ************************************************************
-------------------------------------------------------------------------------
                                 ORCA SCF
-------------------------------------------------------------------------------

------------
SCF SETTINGS
------------
Hamiltonian:
 Ab initio Hamiltonian  Method          .... Hartree-Fock(GTOs)
 RI-approximation to the Coulomb term is turned on
   Number of AuxJ basis functions       .... 1157
   RIJ-COSX (HFX calculated with COS-X)).... on


General Settings:
 Integral files         IntName         .... nevpt2
 Hartree-Fock type      HFTyp           .... CASSCF
 Total Charge           Charge          ....    0
 Multiplicity           Mult            ....    5
 Number of Electrons    NEL             ....  254
 Basis Dimension        Dim             ....  525
 Nuclear Repulsion      ENuc            ....   4362.8667470771 Eh


Diagonalization of the overlap matrix:
Smallest eigenvalue                        ... 4.776e-04
Time for diagonalization                   ...    0.106 sec
Threshold for overlap eigenvalues          ... 1.000e-08
Number of eigenvalues below threshold      ... 0
Time for construction of square roots      ...    0.076 sec
Total time needed                          ...    0.184 sec

---------------------
INITIAL GUESS: MOREAD
---------------------
Guess MOs are being read from file: casscf.gbw
Input Geometry matches current geometry (good)
Input basis set matches current basis set (good)
MOs were renormalized
Gram-Schmidt orthogonalization of all MOs with pivot on actives
                      ------------------
                      INITIAL GUESS DONE (   6.4 sec)
                      ------------------
--------------------
COSX GRID GENERATION
--------------------

GRIDX 1
-------
General Integration Accuracy     IntAcc      ... 3.816
Radial Grid Type                 RadialGrid  ... OptM3 with GC (2021)
Angular Grid (max. ang.)         AngularGrid ... 1 (Lebedev-50)
Angular grid pruning method      GridPruning ... 4 (adaptive)
Weight generation scheme         WeightScheme... Becke
Basis function cutoff            BFCut       ... 1.0000e-10
Integration weight cutoff        WCut        ... 1.0000e-14
Angular grids for H and He will be reduced by one unit
Partially contracted basis set               ... on
Rotationally invariant grid construction     ... off

Total number of grid points                  ...    15257
Total number of batches                      ...      245
Average number of points per batch           ...       62
Average number of grid points per atom       ...     1174
UseSFitting                                  ... on

GRIDX 2
-------
General Integration Accuracy     IntAcc      ... 4.020
Radial Grid Type                 RadialGrid  ... OptM3 with GC (2021)
Angular Grid (max. ang.)         AngularGrid ... 2 (Lebedev-110)
Angular grid pruning method      GridPruning ... 4 (adaptive)
Weight generation scheme         WeightScheme... Becke
Basis function cutoff            BFCut       ... 1.0000e-10
Integration weight cutoff        WCut        ... 1.0000e-14
Angular grids for H and He will be reduced by one unit
Partially contracted basis set               ... on
Rotationally invariant grid construction     ... off

Total number of grid points                  ...    46160
Total number of batches                      ...      726
Average number of points per batch           ...       63
Average number of grid points per atom       ...     3551
UseSFitting                                  ... on

GRIDX 3
-------
General Integration Accuracy     IntAcc      ... 4.338
Radial Grid Type                 RadialGrid  ... OptM3 with GC (2021)
Angular Grid (max. ang.)         AngularGrid ... 3 (Lebedev-194)
Angular grid pruning method      GridPruning ... 4 (adaptive)
Weight generation scheme         WeightScheme... Becke
Basis function cutoff            BFCut       ... 1.0000e-10
Integration weight cutoff        WCut        ... 1.0000e-14
Angular grids for H and He will be reduced by one unit
Partially contracted basis set               ... on
Rotationally invariant grid construction     ... off

Total number of grid points                  ...    84414
Total number of batches                      ...     1326
Average number of points per batch           ...       63
Average number of grid points per atom       ...     6493
UseSFitting                                  ... on

Time for X-Grid setup             =    1.448 sec



 ... the calculation is a CASSCF calculation -I'm leaving here GOOD LUCK!!!



           ************************************************************
           *        Program running with 6 parallel MPI-processes     *
           *              working on a common directory               *
           ************************************************************
-------------------------------------------------------------------------------
                              ORCA-CASSCF
-------------------------------------------------------------------------------

Setting up the integral package       ... done
Setting up the integral package (RI)  ... done
Building the CAS space                ... done (5 configurations for Mult=5)
Building the CAS space                ... done (35 configurations for Mult=3)

 CASSCF (estimated) memory needed     ... 113.4 MB
 NEVPT2 (estimated) memory needed     ... 377.6 MB


SYSTEM-SPECIFIC SETTINGS:
Number of active electrons          ...    6
Number of active orbitals           ...    5
Total number of electrons           ...  254
Total number of orbitals            ...  525
Total number aux. functions         ... 1994

Determined orbital ranges:
   Internal       0 -  123 ( 124 orbitals)
   Active       124 -  128 (   5 orbitals)
   External     129 -  524 ( 396 orbitals)
Number of rotation parameters      ...  51704

CI-STEP:
CI strategy                         ... General CI
Number of multiplicity blocks       ...    2
BLOCK  1 WEIGHT=   0.5000
  Multiplicity                      ...    5
  #(Configurations)                 ...    5
  #(CSFs)                           ...    5
  #(Roots)                          ...    5
    ROOT=0 WEIGHT=    0.100000
    ROOT=1 WEIGHT=    0.100000
    ROOT=2 WEIGHT=    0.100000
    ROOT=3 WEIGHT=    0.100000
    ROOT=4 WEIGHT=    0.100000

BLOCK  2 WEIGHT=   0.5000
  Multiplicity                      ...    3
  #(Configurations)                 ...   35
  #(CSFs)                           ...   45
  #(Roots)                          ...   45
    ROOT=0 WEIGHT=    0.011111
    ROOT=1 WEIGHT=    0.011111
    ROOT=2 WEIGHT=    0.011111
    ROOT=3 WEIGHT=    0.011111
    ROOT=4 WEIGHT=    0.011111
    ROOT=5 WEIGHT=    0.011111
    ROOT=6 WEIGHT=    0.011111
    ROOT=7 WEIGHT=    0.011111
    ROOT=8 WEIGHT=    0.011111
    ROOT=9 WEIGHT=    0.011111
    ROOT=10 WEIGHT=    0.011111
    ROOT=11 WEIGHT=    0.011111
    ROOT=12 WEIGHT=    0.011111
    ROOT=13 WEIGHT=    0.011111
    ROOT=14 WEIGHT=    0.011111
    ROOT=15 WEIGHT=    0.011111
    ROOT=16 WEIGHT=    0.011111
    ROOT=17 WEIGHT=    0.011111
    ROOT=18 WEIGHT=    0.011111
    ROOT=19 WEIGHT=    0.011111
    ROOT=20 WEIGHT=    0.011111
    ROOT=21 WEIGHT=    0.011111
    ROOT=22 WEIGHT=    0.011111
    ROOT=23 WEIGHT=    0.011111
    ROOT=24 WEIGHT=    0.011111
    ROOT=25 WEIGHT=    0.011111
    ROOT=26 WEIGHT=    0.011111
    ROOT=27 WEIGHT=    0.011111
    ROOT=28 WEIGHT=    0.011111
    ROOT=29 WEIGHT=    0.011111
    ROOT=30 WEIGHT=    0.011111
    ROOT=31 WEIGHT=    0.011111
    ROOT=32 WEIGHT=    0.011111
    ROOT=33 WEIGHT=    0.011111
    ROOT=34 WEIGHT=    0.011111
    ROOT=35 WEIGHT=    0.011111
    ROOT=36 WEIGHT=    0.011111
    ROOT=37 WEIGHT=    0.011111
    ROOT=38 WEIGHT=    0.011111
    ROOT=39 WEIGHT=    0.011111
    ROOT=40 WEIGHT=    0.011111
    ROOT=41 WEIGHT=    0.011111
    ROOT=42 WEIGHT=    0.011111
    ROOT=43 WEIGHT=    0.011111
    ROOT=44 WEIGHT=    0.011111

  PrintLevel                        ...    1
  N(GuessMat)                       ...       512
  MaxDim(CI)                        ...        10
  MaxIter(CI)                       ...        64
  Energy Tolerance CI               ...  1.00e-08
  Residual Tolerance CI             ...  1.00e-08
  Shift(CI)                         ...  1.00e-04

INTEGRAL-TRANSFORMATION-STEP:
  Algorithm                         ... RI-MO

ORBITAL-IMPROVEMENT-STEP:
  Algorithm                         ... SuperCI(PT)
  Default Parametrization           ... CAYLEY
  Act-Act rotations                 ... depends on algorithm used

  Note: SuperCI(PT) will ignore FreezeIE, FreezeAct and FreezeGrad. In general Default settings are encouraged.
        In conjunction with ShiftUp, ShiftDn or GradScaling the performance of SuperCI(PT) is less optimal.  

  MaxRot                            ... 2.00e-01 
  Max. no of vectors (DIIS)         ... 15
  DThresh (cut-off) metric          ... 1.00e-06
  Switch step at gradient           ...  3.00e-02 
  Switch step at iteration          ...        50   
  Switch step to                    ... SuperCI(PT)    

SCF-SETTINGS:
  Incremental                       ... off
  RIJCOSX approximation             ... on
  UseFinalGrid                      ... on
  RI-JK approximation               ... off
  AO integral handling              ... DIRECT
  Integral Neglect Thresh           ...  1.00e-10
  Primitive cutoff TCut             ...  1.00e-11
  Energy convergence tolerance      ...  1.00e-07
  Orbital gradient convergence      ...  1.00e-03
  Max. number of iterations         ...        75  

PT2-SETTINGS:
  A PT2 calculation will be performed on top of the CASSCF wave function (PT2 = SC-NEVPT2)   
 CI step strategy                   ... General CI
  D4C handling                      ... on the fly 
  CI truncation for D4C at          ...  1.00e-14
  CI truncation for D3  at          ...  1.00e-14
  Orbitals                          ... canonical for each state 
  Last  frozen  orbital             ... 4
  First deleted orbital             ... 525
  RI Step                           ... store IJV(array) (MC_ONDISK during integral transformation) 

PROPERTIES-SETTINGS:
  Spin orbit coupling               ... true
  GTensor                           ... true
  QDPT diagonal energies            ... NEVPT2 energies 

FINAL ORBITALS:
  Active   Orbitals                 ... natural 
  Internal Orbitals                 ... canonical 
  External Orbitals                 ... canonical 

------------------
CAS-SCF ITERATIONS
------------------


MACRO-ITERATION   1: 
   --- Inactive Energy E0 = -2864.32428177 Eh
CI-ITERATION   0: 
 -2880.185500369   0.000000000000 (    0.00)
 -2880.182647626   0.000000000000
 -2880.179554126   0.000000000000
 -2880.177555173   0.000000000000
 -2880.173895971   0.000000000000
   CI-PROBLEM SOLVED
   DENSITIES MADE
CI-ITERATION   0: 
 -2880.089896935   0.000000000000 (    0.00)
 -2880.088593102   0.000000000000
 -2880.088256295   0.000000000000
 -2880.088216294   0.000000000000
 -2880.087534540   0.000000000000
 -2880.085914815   0.000000000000
 -2880.085291852   0.000000000000
 -2880.084198586   0.000000000000
 -2880.083879796   0.000000000000
 -2880.081813232   0.000000000000
 -2880.081634488   0.000000000000
 -2880.075899014   0.000000000000
 -2880.075220098   0.000000000000
 -2880.075050071   0.000000000000
 -2880.071911600   0.000000000000
 -2880.070806055   0.000000000000
 -2880.069990425   0.000000000000
 -2880.069450990   0.000000000000
 -2880.068910905   0.000000000000
 -2880.068241749   0.000000000000
 -2880.068045534   0.000000000000
 -2880.062356033   0.000000000000
 -2880.062093824   0.000000000000
 -2880.061127606   0.000000000000
 -2880.060308341   0.000000000000
 -2880.057923166   0.000000000000
 -2880.056794234   0.000000000000
 -2880.056524692   0.000000000000
 -2880.056189821   0.000000000000
 -2880.056085519   0.000000000000
 -2880.026084244   0.000000000000
 -2880.024325792   0.000000000000
 -2880.023541519   0.000000000000
 -2880.022537701   0.000000000000
 -2880.021501508   0.000000000000
 -2879.927247882   0.000000000000
 -2879.926443276   0.000000000000
 -2879.924097467   0.000000000000
 -2879.923127850   0.000000000000
 -2879.921391789   0.000000000000
 -2879.919959453   0.000000000000
 -2879.918588541   0.000000000000
 -2879.916395603   0.000000000000
 -2879.912846452   0.000000000000
 -2879.909861671   0.000000000000
   CI-PROBLEM SOLVED
   DENSITIES MADE

                 <<<<<<<<<<<<<<<<<<INITIAL CI STATE CHECK>>>>>>>>>>>>>>>>>>

BLOCK  1 MULT= 5 NROOTS= 5 
ROOT   0:  E=   -2880.1855003691 Eh
      0.73959 [     4]: 21111
      0.17275 [     1]: 11121
      0.08467 [     2]: 11211
ROOT   1:  E=   -2880.1826476263 Eh  0.078 eV    626.1 cm**-1
      0.34553 [     3]: 12111
      0.32693 [     1]: 11121
      0.31364 [     2]: 11211
      0.01333 [     4]: 21111
ROOT   2:  E=   -2880.1795541261 Eh  0.162 eV   1305.0 cm**-1
      0.48485 [     3]: 12111
      0.41971 [     1]: 11121
      0.07113 [     4]: 21111
      0.02387 [     0]: 11112
ROOT   3:  E=   -2880.1775551730 Eh  0.216 eV   1743.8 cm**-1
      0.59882 [     2]: 11211
      0.17393 [     4]: 21111
      0.14582 [     3]: 12111
      0.07761 [     1]: 11121
      0.00382 [     0]: 11112
ROOT   4:  E=   -2880.1738959706 Eh  0.316 eV   2546.9 cm**-1
      0.97039 [     0]: 11112
      0.02217 [     3]: 12111
      0.00300 [     1]: 11121

BLOCK  2 MULT= 3 NROOTS=45 
ROOT   0:  E=   -2880.0898969351 Eh
      0.53723 [    29]: 21120
      0.07207 [    13]: 11211
      0.06859 [    27]: 21102
      0.05748 [    31]: 21210
      0.04459 [    11]: 11121
      0.03013 [     0]: 01122
      0.02199 [    34]: 22110
      0.02029 [     8]: 10221
      0.01509 [    19]: 12120
      0.01456 [    21]: 12210
      0.01324 [    28]: 21111
      0.01305 [    16]: 12021
      0.01298 [    10]: 11112
      0.00927 [    24]: 20211
      0.00808 [    30]: 21201
      0.00800 [     2]: 01221
      0.00780 [    23]: 20121
      0.00714 [    17]: 12102
      0.00681 [    15]: 12012
      0.00541 [    25]: 21012
      0.00454 [     1]: 01212
      0.00333 [    32]: 22011
      0.00264 [     5]: 02211
ROOT   1:  E=   -2880.0885931021 Eh  0.035 eV    286.2 cm**-1
      0.19246 [    14]: 11220
      0.14882 [    28]: 21111
      0.09513 [    31]: 21210
      0.07983 [    19]: 12120
      0.06083 [    18]: 12111
      0.05851 [    21]: 12210
      0.04637 [    11]: 11121
      0.04034 [    26]: 21021
      0.02508 [     2]: 01221
      0.02498 [     1]: 01212
      0.02249 [     6]: 10122
      0.02199 [    24]: 20211
      0.02108 [    12]: 11202
      0.01908 [    23]: 20121
      0.01521 [    10]: 11112
      0.01489 [    13]: 11211
      0.01246 [    29]: 21120
      0.01224 [     7]: 10212
      0.01197 [     4]: 02121
      0.01142 [     9]: 11022
      0.00945 [    22]: 20112
      0.00878 [     8]: 10221
      0.00798 [     3]: 02112
      0.00662 [    15]: 12012
      0.00547 [     5]: 02211
      0.00517 [    32]: 22011
      0.00503 [    17]: 12102
      0.00417 [    16]: 12021
      0.00380 [     0]: 01122
      0.00315 [    25]: 21012
      0.00291 [    30]: 21201
ROOT   2:  E=   -2880.0882562949 Eh  0.045 eV    360.1 cm**-1
      0.23285 [    28]: 21111
      0.15273 [    23]: 20121
      0.09077 [    13]: 11211
      0.07312 [    16]: 12021
      0.05560 [    24]: 20211
      0.04792 [     4]: 02121
      0.04245 [    31]: 21210
      0.03555 [    21]: 12210
      0.03032 [     8]: 10221
      0.02989 [    34]: 22110
      0.02790 [     9]: 11022
      0.02641 [    18]: 12111
      0.02082 [     7]: 10212
      0.01794 [    11]: 11121
      0.01735 [    10]: 11112
      0.01602 [    33]: 22101
      0.01337 [    19]: 12120
      0.01248 [    25]: 21012
      0.00887 [     5]: 02211
      0.00721 [    12]: 11202
      0.00688 [    20]: 12201
      0.00577 [     2]: 01221
      0.00528 [     0]: 01122
      0.00473 [    32]: 22011
      0.00399 [    14]: 11220
      0.00289 [    29]: 21120
ROOT   3:  E=   -2880.0882162936 Eh  0.046 eV    368.9 cm**-1
      0.26065 [    11]: 11121
      0.21144 [    28]: 21111
      0.11681 [    26]: 21021
      0.06613 [    19]: 12120
      0.05962 [    14]: 11220
      0.05886 [    18]: 12111
      0.03691 [    30]: 21201
      0.03611 [    24]: 20211
      0.02849 [     6]: 10122
      0.01573 [    12]: 11202
      0.01508 [    32]: 22011
      0.01368 [     2]: 01221
      0.01311 [    33]: 22101
      0.01208 [    10]: 11112
      0.00992 [     7]: 10212
      0.00687 [    13]: 11211
      0.00687 [    23]: 20121
      0.00610 [    15]: 12012
      0.00484 [    25]: 21012
      0.00370 [     4]: 02121
      0.00310 [     5]: 02211
      0.00283 [     8]: 10221
ROOT   4:  E=   -2880.0875345405 Eh  0.064 eV    518.5 cm**-1
      0.20577 [    19]: 12120
      0.12161 [    13]: 11211
      0.10212 [    11]: 11121
      0.08716 [    31]: 21210
      0.06291 [    34]: 22110
      0.06187 [    23]: 20121
      0.05180 [    18]: 12111
      0.03814 [    25]: 21012
      0.02882 [    17]: 12102
      0.02563 [    28]: 21111
      0.02490 [     8]: 10221
      0.02391 [    29]: 21120
      0.02290 [    10]: 11112
      0.02054 [     4]: 02121
      0.01911 [     6]: 10122
      0.01860 [    22]: 20112
      0.01815 [    26]: 21021
      0.01529 [    32]: 22011
      0.00623 [     1]: 01212
      0.00590 [    16]: 12021
      0.00545 [    30]: 21201
      0.00545 [     7]: 10212
      0.00499 [    27]: 21102
      0.00476 [     3]: 02112
      0.00369 [    14]: 11220
      0.00351 [    12]: 11202
      0.00337 [     2]: 01221
      0.00287 [    33]: 22101
ROOT   5:  E=   -2880.0859148147 Eh  0.108 eV    874.0 cm**-1
      0.19291 [    13]: 11211
      0.11365 [    18]: 12111
      0.10711 [    24]: 20211
      0.10530 [    11]: 11121
      0.08443 [    28]: 21111
      0.06237 [    30]: 21201
      0.05543 [    16]: 12021
      0.04175 [    20]: 12201
      0.04092 [    32]: 22011
      0.03019 [     3]: 02112
      0.01617 [    10]: 11112
      0.01468 [     2]: 01221
      0.01427 [    34]: 22110
      0.01323 [     7]: 10212
      0.01306 [    22]: 20112
      0.01097 [    21]: 12210
      0.01000 [    14]: 11220
      0.00971 [     1]: 01212
      0.00916 [    17]: 12102
      0.00797 [     0]: 01122
      0.00697 [     4]: 02121
      0.00685 [    26]: 21021
      0.00595 [    29]: 21120
      0.00512 [    31]: 21210
      0.00464 [    33]: 22101
      0.00303 [     6]: 10122
      0.00294 [    23]: 20121
      0.00254 [    12]: 11202
ROOT   6:  E=   -2880.0852918522 Eh  0.125 eV   1010.7 cm**-1
      0.17842 [    28]: 21111
      0.14417 [    18]: 12111
      0.12002 [    11]: 11121
      0.07051 [    26]: 21021
      0.05202 [    24]: 20211
      0.04396 [    13]: 11211
      0.03968 [    15]: 12012
      0.03878 [     4]: 02121
      0.03299 [    34]: 22110
      0.02920 [     8]: 10221
      0.02503 [     1]: 01212
      0.02400 [     6]: 10122
      0.02348 [    33]: 22101
      0.02313 [    22]: 20112
      0.02241 [    16]: 12021
      0.02234 [    30]: 21201
      0.01487 [     5]: 02211
      0.01469 [    31]: 21210
      0.01447 [     7]: 10212
      0.01366 [    25]: 21012
      0.01146 [    10]: 11112
      0.00980 [    21]: 12210
      0.00733 [    32]: 22011
      0.00524 [    14]: 11220
      0.00523 [    17]: 12102
ROOT   7:  E=   -2880.0841985865 Eh  0.155 eV   1250.6 cm**-1
      0.21199 [    13]: 11211
      0.17362 [    10]: 11112
      0.07115 [    19]: 12120
      0.05997 [    16]: 12021
      0.05817 [    20]: 12201
      0.04222 [    11]: 11121
      0.03565 [    18]: 12111
      0.03135 [    21]: 12210
      0.03056 [    30]: 21201
      0.03026 [    32]: 22011
      0.03024 [    29]: 21120
      0.02341 [     5]: 02211
      0.02270 [    28]: 21111
      0.02037 [     4]: 02121
      0.02026 [     2]: 01221
      0.01838 [    22]: 20112
      0.01584 [     3]: 02112
      0.01407 [     1]: 01212
      0.01283 [    17]: 12102
      0.01114 [    23]: 20121
      0.01098 [    14]: 11220
      0.00893 [    27]: 21102
      0.00776 [    25]: 21012
      0.00738 [     7]: 10212
      0.00650 [    34]: 22110
      0.00633 [     9]: 11022
      0.00489 [    12]: 11202
      0.00339 [    15]: 12012
      0.00326 [    24]: 20211
      0.00279 [    33]: 22101
ROOT   8:  E=   -2880.0838797958 Eh  0.164 eV   1320.6 cm**-1
      0.26458 [    18]: 12111
      0.09393 [    11]: 11121
      0.06966 [    10]: 11112
      0.06237 [    28]: 21111
      0.06210 [    12]: 11202
      0.05240 [    23]: 20121
      0.05211 [     9]: 11022
      0.04005 [    31]: 21210
      0.03460 [    16]: 12021
      0.03394 [    13]: 11211
      0.03197 [    15]: 12012
      0.02586 [    21]: 12210
      0.02252 [     0]: 01122
      0.01929 [    19]: 12120
      0.01331 [     2]: 01221
      0.01286 [    34]: 22110
      0.01215 [    14]: 11220
      0.01193 [    24]: 20211
      0.01140 [    22]: 20112
      0.01092 [    27]: 21102
      0.01079 [    25]: 21012
      0.01073 [    33]: 22101
      0.00989 [     7]: 10212
      0.00706 [    26]: 21021
      0.00661 [     4]: 02121
      0.00417 [    32]: 22011
      0.00386 [     5]: 02211
      0.00313 [    20]: 12201
ROOT   9:  E=   -2880.0818132316 Eh  0.220 eV   1774.2 cm**-1
      0.17685 [    10]: 11112
      0.14600 [     5]: 02211
      0.12198 [    24]: 20211
      0.08693 [    18]: 12111
      0.04577 [    26]: 21021
      0.04535 [    11]: 11121
      0.04058 [    15]: 12012
      0.04019 [    30]: 21201
      0.03534 [     7]: 10212
      0.03120 [    13]: 11211
      0.02706 [     4]: 02121
      0.02408 [    23]: 20121
      0.01910 [    20]: 12201
      0.01577 [    21]: 12210
      0.01489 [     1]: 01212
      0.01473 [    25]: 21012
      0.01470 [    27]: 21102
      0.01271 [    28]: 21111
      0.01269 [    12]: 11202
      0.01185 [    16]: 12021
      0.01060 [    19]: 12120
      0.00901 [     0]: 01122
      0.00871 [     3]: 02112
      0.00830 [    32]: 22011
      0.00752 [     9]: 11022
      0.00696 [     8]: 10221
      0.00528 [    22]: 20112
ROOT  10:  E=   -2880.0816344883 Eh  0.225 eV   1813.4 cm**-1
      0.25412 [    13]: 11211
      0.10167 [    22]: 20112
      0.09505 [     3]: 02112
      0.08861 [    10]: 11112
      0.06782 [    16]: 12021
      0.05332 [    11]: 11121
      0.04938 [    18]: 12111
      0.04813 [     4]: 02121
      0.04673 [    28]: 21111
      0.03693 [    20]: 12201
      0.03215 [    17]: 12102
      0.02782 [     6]: 10122
      0.02291 [    33]: 22101
      0.01962 [    15]: 12012
      0.00692 [    25]: 21012
      0.00597 [     5]: 02211
      0.00592 [     7]: 10212
      0.00569 [     1]: 01212
      0.00489 [    31]: 21210
      0.00471 [    24]: 20211
      0.00422 [    14]: 11220
      0.00364 [    34]: 22110
      0.00316 [    19]: 12120
      0.00287 [    29]: 21120
ROOT  11:  E=   -2880.0758990138 Eh  0.381 eV   3072.2 cm**-1
      0.20556 [    13]: 11211
      0.19832 [    16]: 12021
      0.10863 [    10]: 11112
      0.09080 [    29]: 21120
      0.05974 [    28]: 21111
      0.04495 [    14]: 11220
      0.03285 [    23]: 20121
      0.03132 [    11]: 11121
      0.02725 [     9]: 11022
      0.02469 [     4]: 02121
      0.02237 [    33]: 22101
      0.01825 [    30]: 21201
      0.01597 [    24]: 20211
      0.01309 [     0]: 01122
      0.01230 [    27]: 21102
      0.01069 [     3]: 02112
      0.00934 [     1]: 01212
      0.00827 [     8]: 10221
      0.00731 [    21]: 12210
      0.00727 [    26]: 21021
      0.00674 [    22]: 20112
      0.00658 [    34]: 22110
      0.00647 [    32]: 22011
      0.00618 [     2]: 01221
      0.00516 [    18]: 12111
      0.00399 [    25]: 21012
      0.00382 [     6]: 10122
      0.00356 [    12]: 11202
      0.00310 [    19]: 12120
      0.00300 [    17]: 12102
ROOT  12:  E=   -2880.0752200982 Eh  0.399 eV   3221.2 cm**-1
      0.18865 [    18]: 12111
      0.11529 [    10]: 11112
      0.08885 [    12]: 11202
      0.07978 [    31]: 21210
      0.07662 [    24]: 20211
      0.06839 [    23]: 20121
      0.05932 [     4]: 02121
      0.05200 [    14]: 11220
      0.04140 [    28]: 21111
      0.03817 [    27]: 21102
      0.03268 [    26]: 21021
      0.02724 [    33]: 22101
      0.02077 [    29]: 21120
      0.01762 [     9]: 11022
      0.01567 [    25]: 21012
      0.01432 [    13]: 11211
      0.01422 [    11]: 11121
      0.01311 [    32]: 22011
      0.00990 [     1]: 01212
      0.00631 [    19]: 12120
      0.00593 [    34]: 22110
      0.00434 [     2]: 01221
ROOT  13:  E=   -2880.0750500712 Eh  0.404 eV   3258.5 cm**-1
      0.13443 [    26]: 21021
      0.10941 [     2]: 01221
      0.10914 [    19]: 12120
      0.09854 [    23]: 20121
      0.06982 [    30]: 21201
      0.06546 [    24]: 20211
      0.04526 [     9]: 11022
      0.04201 [     5]: 02211
      0.04125 [    10]: 11112
      0.04097 [    28]: 21111
      0.02741 [    17]: 12102
      0.02652 [    34]: 22110
      0.02567 [    11]: 11121
      0.02023 [    13]: 11211
      0.01787 [    20]: 12201
      0.01767 [     3]: 02112
      0.01634 [    32]: 22011
      0.01397 [     4]: 02121
      0.01393 [    33]: 22101
      0.01329 [    18]: 12111
      0.01198 [    27]: 21102
      0.01075 [    21]: 12210
      0.00661 [    22]: 20112
      0.00555 [     6]: 10122
      0.00386 [    15]: 12012
      0.00306 [     1]: 01212
      0.00272 [    12]: 11202
ROOT  14:  E=   -2880.0719115999 Eh  0.489 eV   3947.3 cm**-1
      0.19711 [    11]: 11121
      0.18984 [    28]: 21111
      0.12401 [    18]: 12111
      0.10330 [    13]: 11211
      0.06221 [    21]: 12210
      0.04713 [    31]: 21210
      0.04391 [    15]: 12012
      0.04302 [    32]: 22011
      0.02720 [     4]: 02121
      0.02046 [    14]: 11220
      0.01600 [     7]: 10212
      0.01581 [     5]: 02211
      0.01295 [     8]: 10221
      0.01202 [    33]: 22101
      0.01105 [    10]: 11112
      0.00889 [    29]: 21120
      0.00855 [     1]: 01212
      0.00838 [     2]: 01221
      0.00626 [    24]: 20211
      0.00569 [    25]: 21012
      0.00566 [    22]: 20112
      0.00433 [     3]: 02112
      0.00365 [     9]: 11022
      0.00364 [    23]: 20121
      0.00310 [    16]: 12021
      0.00299 [    19]: 12120
      0.00253 [    27]: 21102
ROOT  15:  E=   -2880.0708060548 Eh  0.519 eV   4190.0 cm**-1
      0.16461 [    10]: 11112
      0.10051 [     9]: 11022
      0.10046 [    28]: 21111
      0.09756 [    18]: 12111
      0.06262 [     7]: 10212
      0.06063 [     3]: 02112
      0.04398 [    11]: 11121
      0.03992 [    29]: 21120
      0.03452 [     4]: 02121
      0.03289 [    27]: 21102
      0.02907 [    19]: 12120
      0.02866 [    14]: 11220
      0.02482 [    34]: 22110
      0.02198 [    13]: 11211
      0.01987 [    20]: 12201
      0.01345 [    25]: 21012
      0.01271 [    15]: 12012
      0.01268 [    32]: 22011
      0.01224 [    22]: 20112
      0.01060 [    26]: 21021
      0.01035 [    12]: 11202
      0.01030 [    24]: 20211
      0.00957 [     2]: 01221
      0.00788 [     6]: 10122
      0.00742 [    17]: 12102
      0.00656 [    16]: 12021
      0.00653 [     0]: 01122
      0.00583 [    31]: 21210
      0.00478 [    33]: 22101
      0.00290 [    30]: 21201
ROOT  16:  E=   -2880.0699904251 Eh  0.542 eV   4369.0 cm**-1
      0.18249 [    10]: 11112
      0.11180 [    12]: 11202
      0.10615 [    24]: 20211
      0.06367 [    17]: 12102
      0.06179 [     1]: 01212
      0.06169 [    19]: 12120
      0.06019 [     3]: 02112
      0.03693 [    28]: 21111
      0.03552 [    20]: 12201
      0.03124 [    26]: 21021
      0.02845 [    16]: 12021
      0.02673 [    25]: 21012
      0.02529 [    11]: 11121
      0.02265 [    30]: 21201
      0.02178 [     6]: 10122
      0.02145 [    15]: 12012
      0.02000 [     9]: 11022
      0.01440 [    33]: 22101
      0.01384 [    31]: 21210
      0.01206 [    13]: 11211
      0.00962 [    34]: 22110
      0.00623 [     2]: 01221
      0.00583 [    14]: 11220
      0.00564 [     4]: 02121
      0.00315 [     0]: 01122
      0.00309 [    18]: 12111
ROOT  17:  E=   -2880.0694509900 Eh  0.556 eV   4487.4 cm**-1
      0.21767 [    22]: 20112
      0.12997 [    13]: 11211
      0.09173 [    16]: 12021
      0.07391 [    18]: 12111
      0.06426 [    27]: 21102
      0.04961 [     6]: 10122
      0.04009 [    10]: 11112
      0.03195 [    11]: 11121
      0.03156 [    15]: 12012
      0.03064 [    28]: 21111
      0.02987 [     4]: 02121
      0.02833 [     9]: 11022
      0.02459 [    30]: 21201
      0.01751 [    26]: 21021
      0.01661 [    12]: 11202
      0.01423 [     5]: 02211
      0.01321 [    34]: 22110
      0.01078 [    31]: 21210
      0.01068 [    17]: 12102
      0.01029 [    20]: 12201
      0.01020 [    33]: 22101
      0.00948 [    23]: 20121
      0.00863 [     0]: 01122
      0.00753 [     2]: 01221
      0.00626 [    29]: 21120
      0.00596 [     3]: 02112
      0.00484 [    14]: 11220
      0.00380 [     8]: 10221
ROOT  18:  E=   -2880.0689109048 Eh  0.571 eV   4605.9 cm**-1
      0.19357 [     3]: 02112
      0.12541 [    13]: 11211
      0.09994 [     5]: 02211
      0.06402 [    12]: 11202
      0.06378 [    10]: 11112
      0.06056 [    18]: 12111
      0.05037 [    28]: 21111
      0.04499 [    26]: 21021
      0.03996 [     0]: 01122
      0.03095 [    30]: 21201
      0.03030 [    11]: 11121
      0.02045 [    25]: 21012
      0.01975 [     6]: 10122
      0.01953 [    32]: 22011
      0.01881 [    21]: 12210
      0.01721 [    20]: 12201
      0.01365 [    15]: 12012
      0.01295 [     7]: 10212
      0.01042 [    29]: 21120
      0.01005 [    23]: 20121
      0.00817 [    24]: 20211
      0.00701 [     2]: 01221
      0.00608 [    34]: 22110
      0.00534 [     9]: 11022
      0.00439 [    22]: 20112
      0.00431 [    27]: 21102
      0.00410 [    33]: 22101
      0.00390 [    16]: 12021
      0.00258 [    17]: 12102
ROOT  19:  E=   -2880.0682417492 Eh  0.589 eV   4752.8 cm**-1
      0.13778 [     5]: 02211
      0.10614 [    10]: 11112
      0.08227 [    13]: 11211
      0.07215 [    30]: 21201
      0.07091 [    22]: 20112
      0.06162 [    15]: 12012
      0.05950 [    20]: 12201
      0.05517 [     3]: 02112
      0.03770 [    27]: 21102
      0.03716 [    11]: 11121
      0.03702 [    24]: 20211
      0.03452 [     9]: 11022
      0.03172 [    12]: 11202
      0.02482 [    32]: 22011
      0.02179 [    28]: 21111
      0.01729 [     1]: 01212
      0.01360 [    21]: 12210
      0.01221 [     0]: 01122
      0.01104 [    18]: 12111
      0.01081 [    33]: 22101
      0.00999 [    34]: 22110
      0.00901 [    26]: 21021
      0.00832 [    17]: 12102
      0.00766 [     8]: 10221
      0.00672 [    25]: 21012
      0.00547 [    19]: 12120
      0.00491 [     4]: 02121
      0.00456 [    23]: 20121
      0.00373 [    29]: 21120
ROOT  20:  E=   -2880.0680455337 Eh  0.595 eV   4795.8 cm**-1
      0.21977 [    12]: 11202
      0.12569 [     4]: 02121
      0.08395 [    10]: 11112
      0.08087 [    17]: 12102
      0.05937 [    23]: 20121
      0.04929 [    20]: 12201
      0.04485 [    18]: 12111
      0.03485 [    21]: 12210
      0.03123 [     1]: 01212
      0.03063 [    26]: 21021
      0.02985 [    27]: 21102
      0.02692 [    28]: 21111
      0.02513 [     7]: 10212
      0.02275 [    22]: 20112
      0.01607 [    15]: 12012
      0.01488 [     8]: 10221
      0.01334 [    14]: 11220
      0.01276 [     0]: 01122
      0.01249 [    13]: 11211
      0.01191 [     6]: 10122
      0.00923 [    30]: 21201
      0.00908 [    11]: 11121
      0.00687 [     5]: 02211
      0.00631 [    16]: 12021
      0.00563 [    19]: 12120
      0.00461 [    34]: 22110
      0.00420 [     2]: 01221
      0.00314 [    24]: 20211
ROOT  21:  E=   -2880.0623560329 Eh  0.749 eV   6044.5 cm**-1
      0.16720 [    11]: 11121
      0.09841 [     8]: 10221
      0.09251 [    28]: 21111
      0.09117 [    31]: 21210
      0.06425 [    26]: 21021
      0.04963 [    27]: 21102
      0.04637 [    16]: 12021
      0.04042 [    25]: 21012
      0.03572 [    30]: 21201
      0.03148 [    19]: 12120
      0.03116 [    13]: 11211
      0.02749 [    20]: 12201
      0.02690 [     1]: 01212
      0.02498 [    34]: 22110
      0.02300 [    18]: 12111
      0.01874 [     5]: 02211
      0.01698 [    22]: 20112
      0.01655 [    10]: 11112
      0.01641 [     6]: 10122
      0.01328 [    24]: 20211
      0.01292 [    17]: 12102
      0.01266 [    29]: 21120
      0.01025 [     2]: 01221
      0.00593 [    33]: 22101
      0.00415 [    21]: 12210
      0.00394 [    15]: 12012
      0.00379 [     4]: 02121
      0.00349 [    14]: 11220
      0.00336 [     0]: 01122
      0.00299 [     9]: 11022
      0.00257 [     3]: 02112
ROOT  22:  E=   -2880.0620938240 Eh  0.757 eV   6102.1 cm**-1
      0.13648 [    11]: 11121
      0.11427 [    23]: 20121
      0.07406 [    25]: 21012
      0.06403 [    31]: 21210
      0.06400 [     4]: 02121
      0.05645 [    30]: 21201
      0.05560 [    13]: 11211
      0.05441 [    21]: 12210
      0.04596 [    34]: 22110
      0.04441 [    28]: 21111
      0.03244 [     7]: 10212
      0.02989 [    14]: 11220
      0.02677 [     3]: 02112
      0.02421 [    33]: 22101
      0.02388 [     5]: 02211
      0.02037 [     9]: 11022
      0.01966 [    15]: 12012
      0.01664 [    18]: 12111
      0.01586 [     2]: 01221
      0.01176 [    10]: 11112
      0.01121 [    22]: 20112
      0.01066 [    32]: 22011
      0.00961 [     6]: 10122
      0.00833 [     8]: 10221
      0.00741 [    12]: 11202
      0.00593 [     1]: 01212
      0.00425 [    17]: 12102
      0.00256 [    29]: 21120
      0.00254 [     0]: 01122
ROOT  23:  E=   -2880.0611276060 Eh  0.783 eV   6314.1 cm**-1
      0.18906 [    13]: 11211
      0.16407 [    11]: 11121
      0.14532 [    28]: 21111
      0.12947 [    18]: 12111
      0.06623 [    21]: 12210
      0.05708 [    16]: 12021
      0.05359 [     7]: 10212
      0.04135 [     8]: 10221
      0.03624 [    10]: 11112
      0.02690 [    32]: 22011
      0.01473 [    29]: 21120
      0.01393 [    17]: 12102
      0.00873 [    19]: 12120
      0.00833 [     0]: 01122
      0.00757 [     5]: 02211
      0.00720 [    27]: 21102
      0.00716 [    24]: 20211
      0.00581 [     2]: 01221
      0.00370 [     4]: 02121
      0.00361 [    15]: 12012
      0.00256 [    30]: 21201
ROOT  24:  E=   -2880.0603083410 Eh  0.805 eV   6493.9 cm**-1
      0.17475 [    18]: 12111
      0.17109 [    28]: 21111
      0.16585 [    11]: 11121
      0.08158 [     4]: 02121
      0.05383 [    26]: 21021
      0.05296 [    23]: 20121
      0.04589 [    13]: 11211
      0.02497 [    19]: 12120
      0.02459 [     6]: 10122
      0.02412 [    34]: 22110
      0.02289 [    30]: 21201
      0.02270 [    32]: 22011
      0.01947 [    10]: 11112
      0.01782 [     2]: 01221
      0.01503 [     5]: 02211
      0.01255 [    27]: 21102
      0.01253 [    21]: 12210
      0.00944 [    20]: 12201
      0.00932 [     7]: 10212
      0.00808 [    22]: 20112
      0.00764 [    29]: 21120
      0.00652 [    16]: 12021
      0.00510 [    31]: 21210
      0.00433 [     1]: 01212
ROOT  25:  E=   -2880.0579231659 Eh  0.870 eV   7017.4 cm**-1
      0.16190 [    28]: 21111
      0.10674 [    13]: 11211
      0.10424 [    10]: 11112
      0.09143 [     7]: 10212
      0.08681 [    15]: 12012
      0.07957 [     1]: 01212
      0.07524 [    17]: 12102
      0.06338 [    18]: 12111
      0.06144 [    11]: 11121
      0.02568 [     6]: 10122
      0.02462 [    25]: 21012
      0.01481 [    12]: 11202
      0.01090 [    14]: 11220
      0.00974 [     5]: 02211
      0.00896 [     3]: 02112
      0.00883 [    27]: 21102
      0.00873 [    31]: 21210
      0.00779 [     9]: 11022
      0.00760 [    19]: 12120
      0.00596 [     0]: 01122
      0.00593 [     8]: 10221
      0.00583 [    30]: 21201
      0.00527 [    32]: 22011
      0.00512 [     2]: 01221
      0.00450 [    24]: 20211
ROOT  26:  E=   -2880.0567942337 Eh  0.901 eV   7265.2 cm**-1
      0.27157 [    10]: 11112
      0.08818 [    11]: 11121
      0.07290 [    30]: 21201
      0.06631 [    15]: 12012
      0.06217 [    18]: 12111
      0.05954 [     3]: 02112
      0.05358 [     0]: 01122
      0.04496 [    32]: 22011
      0.04216 [    13]: 11211
      0.03409 [    26]: 21021
      0.02425 [    28]: 21111
      0.02228 [    29]: 21120
      0.01983 [     9]: 11022
      0.01704 [    20]: 12201
      0.01640 [    24]: 20211
      0.01451 [    21]: 12210
      0.01434 [     6]: 10122
      0.01249 [    34]: 22110
      0.00985 [     7]: 10212
      0.00961 [    16]: 12021
      0.00765 [    22]: 20112
      0.00720 [    19]: 12120
      0.00443 [    12]: 11202
      0.00435 [     2]: 01221
      0.00310 [    23]: 20121
      0.00275 [     4]: 02121
      0.00272 [     1]: 01212
      0.00269 [    33]: 22101
      0.00252 [    31]: 21210
ROOT  27:  E=   -2880.0565246924 Eh  0.908 eV   7324.4 cm**-1
      0.22971 [    18]: 12111
      0.08969 [     1]: 01212
      0.08101 [    20]: 12201
      0.08072 [    12]: 11202
      0.07741 [    10]: 11112
      0.07184 [     3]: 02112
      0.05685 [    27]: 21102
      0.04886 [     0]: 01122
      0.02710 [    25]: 21012
      0.02405 [    30]: 21201
      0.02203 [    24]: 20211
      0.02059 [    16]: 12021
      0.02035 [    28]: 21111
      0.01853 [     9]: 11022
      0.01755 [    31]: 21210
      0.01586 [    33]: 22101
      0.01523 [     8]: 10221
      0.01379 [    13]: 11211
      0.01308 [    22]: 20112
      0.00999 [    11]: 11121
      0.00822 [     5]: 02211
      0.00798 [     2]: 01221
      0.00470 [    21]: 12210
      0.00467 [    23]: 20121
      0.00450 [    14]: 11220
      0.00449 [    26]: 21021
      0.00367 [     7]: 10212
      0.00256 [    34]: 22110
ROOT  28:  E=   -2880.0561898212 Eh  0.917 eV   7397.9 cm**-1
      0.17802 [    10]: 11112
      0.15899 [    17]: 12102
      0.10855 [    13]: 11211
      0.06419 [    15]: 12012
      0.06063 [     2]: 01221
      0.05480 [     4]: 02121
      0.04601 [    28]: 21111
      0.03826 [    11]: 11121
      0.03401 [    18]: 12111
      0.03304 [    33]: 22101
      0.03029 [     3]: 02112
      0.02808 [     7]: 10212
      0.02730 [     6]: 10122
      0.02390 [    22]: 20112
      0.02120 [    30]: 21201
      0.01812 [    19]: 12120
      0.01698 [     8]: 10221
      0.01189 [     0]: 01122
      0.01184 [     1]: 01212
      0.00592 [    26]: 21021
      0.00552 [    32]: 22011
      0.00442 [    16]: 12021
      0.00402 [    29]: 21120
      0.00386 [    23]: 20121
      0.00311 [    31]: 21210
      0.00296 [    14]: 11220
ROOT  29:  E=   -2880.0560855191 Eh  0.920 eV   7420.7 cm**-1
      0.09785 [    18]: 12111
      0.08910 [    10]: 11112
      0.08524 [    25]: 21012
      0.07866 [     1]: 01212
      0.07264 [    17]: 12102
      0.05857 [    27]: 21102
      0.05307 [    28]: 21111
      0.05003 [     7]: 10212
      0.04773 [    13]: 11211
      0.04299 [    20]: 12201
      0.03648 [    15]: 12012
      0.03471 [    11]: 11121
      0.02894 [     5]: 02211
      0.02752 [    33]: 22101
      0.02654 [     4]: 02121
      0.02203 [    24]: 20211
      0.02187 [     8]: 10221
      0.01552 [    12]: 11202
      0.01527 [     9]: 11022
      0.01417 [    30]: 21201
      0.01412 [    16]: 12021
      0.01365 [     3]: 02112
      0.01288 [     0]: 01122
      0.00996 [    19]: 12120
      0.00835 [    26]: 21021
      0.00674 [    29]: 21120
      0.00650 [    22]: 20112
      0.00599 [     6]: 10122
ROOT  30:  E=   -2880.0260842440 Eh  1.736 eV  14005.3 cm**-1
      0.32010 [    11]: 11121
      0.15205 [    28]: 21111
      0.12086 [    18]: 12111
      0.06788 [    21]: 12210
      0.06352 [    31]: 21210
      0.04377 [    13]: 11211
      0.03849 [     8]: 10221
      0.03205 [    15]: 12012
      0.01858 [    32]: 22011
      0.01650 [    25]: 21012
      0.01225 [    14]: 11220
      0.01179 [    16]: 12021
      0.00977 [    34]: 22110
      0.00962 [     1]: 01212
      0.00944 [     5]: 02211
      0.00927 [     7]: 10212
      0.00854 [    22]: 20112
      0.00783 [    29]: 21120
      0.00718 [    27]: 21102
      0.00683 [    33]: 22101
      0.00661 [     9]: 11022
      0.00607 [    20]: 12201
      0.00502 [     2]: 01221
      0.00466 [    17]: 12102
      0.00382 [    23]: 20121
ROOT  31:  E=   -2880.0243257917 Eh  1.784 eV  14391.2 cm**-1
      0.15195 [    28]: 21111
      0.10831 [     9]: 11022
      0.08867 [     7]: 10212
      0.08188 [    25]: 21012
      0.07822 [    14]: 11220
      0.06595 [     1]: 01212
      0.04542 [    34]: 22110
      0.04079 [    21]: 12210
      0.04041 [     8]: 10221
      0.03562 [    18]: 12111
      0.03304 [    11]: 11121
      0.02785 [    20]: 12201
      0.02749 [     5]: 02211
      0.02364 [    27]: 21102
      0.02183 [     0]: 01122
      0.02160 [    10]: 11112
      0.01943 [    13]: 11211
      0.01671 [    24]: 20211
      0.01082 [    19]: 12120
      0.00952 [     3]: 02112
      0.00901 [    15]: 12012
      0.00796 [    23]: 20121
      0.00733 [    12]: 11202
      0.00729 [    22]: 20112
      0.00590 [    32]: 22011
      0.00328 [    31]: 21210
      0.00272 [     4]: 02121
      0.00250 [     2]: 01221
ROOT  32:  E=   -2880.0235415185 Eh  1.806 eV  14563.3 cm**-1
      0.14238 [    18]: 12111
      0.09587 [    20]: 12201
      0.09390 [     8]: 10221
      0.08498 [    10]: 11112
      0.07030 [     0]: 01122
      0.06774 [    22]: 20112
      0.06321 [    13]: 11211
      0.06059 [    34]: 22110
      0.03599 [    17]: 12102
      0.03395 [     1]: 01212
      0.03259 [    11]: 11121
      0.02856 [    14]: 11220
      0.02788 [    27]: 21102
      0.02485 [     7]: 10212
      0.02036 [     6]: 10122
      0.01922 [    31]: 21210
      0.01704 [    21]: 12210
      0.01405 [    29]: 21120
      0.01183 [    28]: 21111
      0.01002 [    12]: 11202
      0.00607 [     4]: 02121
      0.00601 [     2]: 01221
      0.00539 [    32]: 22011
      0.00510 [     3]: 02112
      0.00504 [    30]: 21201
      0.00403 [    25]: 21012
      0.00304 [    33]: 22101
      0.00267 [     5]: 02211
ROOT  33:  E=   -2880.0225377010 Eh  1.833 eV  14783.6 cm**-1
      0.21417 [    11]: 11121
      0.10551 [    18]: 12111
      0.08811 [    10]: 11112
      0.07748 [    28]: 21111
      0.06730 [     7]: 10212
      0.05124 [    32]: 22011
      0.04390 [     1]: 01212
      0.04286 [    25]: 21012
      0.03568 [     0]: 01122
      0.03369 [    33]: 22101
      0.03106 [    27]: 21102
      0.02597 [    15]: 12012
      0.02387 [    34]: 22110
      0.02340 [     3]: 02112
      0.02301 [    26]: 21021
      0.01850 [     9]: 11022
      0.01133 [    21]: 12210
      0.01130 [    24]: 20211
      0.01128 [     5]: 02211
      0.01069 [    13]: 11211
      0.01015 [    23]: 20121
      0.00823 [    30]: 21201
      0.00725 [     4]: 02121
      0.00577 [    12]: 11202
      0.00502 [    20]: 12201
      0.00282 [    14]: 11220
      0.00279 [    16]: 12021
ROOT  34:  E=   -2880.0215015076 Eh  1.861 eV  15011.1 cm**-1
      0.15667 [    10]: 11112
      0.12839 [    13]: 11211
      0.08409 [     0]: 01122
      0.07776 [    27]: 21102
      0.06935 [    17]: 12102
      0.06713 [    32]: 22011
      0.05575 [    18]: 12111
      0.04231 [     6]: 10122
      0.04209 [    30]: 21201
      0.03433 [     2]: 01221
      0.03165 [     5]: 02211
      0.02830 [    34]: 22110
      0.02198 [    28]: 21111
      0.02020 [    11]: 11121
      0.01870 [    14]: 11220
      0.01802 [     8]: 10221
      0.01646 [    15]: 12012
      0.01425 [     4]: 02121
      0.01389 [    12]: 11202
      0.01256 [     3]: 02112
      0.01016 [    16]: 12021
      0.00722 [     7]: 10212
      0.00633 [    25]: 21012
      0.00559 [     1]: 01212
      0.00507 [    19]: 12120
      0.00363 [    33]: 22101
ROOT  35:  E=   -2879.9272478817 Eh  4.426 eV  35697.3 cm**-1
      0.30852 [    34]: 22110
      0.08983 [    22]: 20112
      0.06971 [    31]: 21210
      0.05232 [     3]: 02112
      0.05132 [    13]: 11211
      0.04775 [    19]: 12120
      0.04603 [    17]: 12102
      0.03848 [    25]: 21012
      0.02867 [    33]: 22101
      0.02666 [    30]: 21201
      0.02502 [    26]: 21021
      0.02329 [     1]: 01212
      0.02004 [    20]: 12201
      0.01842 [    11]: 11121
      0.01569 [     2]: 01221
      0.01450 [    28]: 21111
      0.01443 [    18]: 12111
      0.01407 [    23]: 20121
      0.01347 [    15]: 12012
      0.01299 [     9]: 11022
      0.01272 [     4]: 02121
      0.01258 [    14]: 11220
      0.00689 [    10]: 11112
      0.00681 [     7]: 10212
      0.00659 [    12]: 11202
      0.00643 [    16]: 12021
      0.00377 [    29]: 21120
      0.00322 [     6]: 10122
      0.00279 [    27]: 21102
ROOT  36:  E=   -2879.9264432761 Eh  4.448 eV  35873.9 cm**-1
      0.13535 [    32]: 22011
      0.10617 [    14]: 11220
      0.07750 [    33]: 22101
      0.06163 [    25]: 21012
      0.05847 [     1]: 01212
      0.05616 [    30]: 21201
      0.05076 [    21]: 12210
      0.05066 [    26]: 21021
      0.04070 [    31]: 21210
      0.04066 [     2]: 01221
      0.03650 [     4]: 02121
      0.03230 [    24]: 20211
      0.02525 [    18]: 12111
      0.02238 [     0]: 01122
      0.02124 [     5]: 02211
      0.02122 [     7]: 10212
      0.01937 [    23]: 20121
      0.01823 [    10]: 11112
      0.01704 [    28]: 21111
      0.01610 [    22]: 20112
      0.01361 [    11]: 11121
      0.01348 [    19]: 12120
      0.01331 [    34]: 22110
      0.01146 [     3]: 02112
      0.00805 [    29]: 21120
      0.00653 [    13]: 11211
      0.00638 [     9]: 11022
      0.00530 [    17]: 12102
      0.00507 [    12]: 11202
      0.00304 [    15]: 12012
      0.00265 [     8]: 10221
ROOT  37:  E=   -2879.9240974668 Eh  4.512 eV  36388.8 cm**-1
      0.13932 [    33]: 22101
      0.11726 [    32]: 22011
      0.10795 [    23]: 20121
      0.08190 [     4]: 02121
      0.07586 [     9]: 11022
      0.06949 [     6]: 10122
      0.05249 [    24]: 20211
      0.04246 [    25]: 21012
      0.03703 [    34]: 22110
      0.03566 [    28]: 21111
      0.03003 [    26]: 21021
      0.02851 [    14]: 11220
      0.02162 [     7]: 10212
      0.02115 [    18]: 12111
      0.01966 [     2]: 01221
      0.01851 [     5]: 02211
      0.01509 [     8]: 10221
      0.01399 [    19]: 12120
      0.01343 [     3]: 02112
      0.01323 [    10]: 11112
      0.01191 [    13]: 11211
      0.00620 [    29]: 21120
      0.00545 [    31]: 21210
      0.00444 [    20]: 12201
      0.00412 [    27]: 21102
      0.00377 [    15]: 12012
      0.00284 [    30]: 21201
      0.00255 [    11]: 11121
ROOT  38:  E=   -2879.9231278501 Eh  4.538 eV  36601.6 cm**-1
      0.22695 [    33]: 22101
      0.09699 [    14]: 11220
      0.09134 [    21]: 12210
      0.06508 [    30]: 21201
      0.05754 [    32]: 22011
      0.04537 [    28]: 21111
      0.04282 [    12]: 11202
      0.03298 [    31]: 21210
      0.03134 [    26]: 21021
      0.02955 [     2]: 01221
      0.02938 [     7]: 10212
      0.02907 [    18]: 12111
      0.02807 [     1]: 01212
      0.02638 [    27]: 21102
      0.02520 [     9]: 11022
      0.01657 [    23]: 20121
      0.01624 [    29]: 21120
      0.01560 [    10]: 11112
      0.01481 [     3]: 02112
      0.01239 [    15]: 12012
      0.01163 [    11]: 11121
      0.01100 [    22]: 20112
      0.01033 [     6]: 10122
      0.00960 [    34]: 22110
      0.00549 [     0]: 01122
      0.00468 [     4]: 02121
      0.00402 [    25]: 21012
      0.00295 [    13]: 11211
ROOT  39:  E=   -2879.9213917889 Eh  4.585 eV  36982.6 cm**-1
      0.22050 [     2]: 01221
      0.08012 [     5]: 02211
      0.07095 [    32]: 22011
      0.06374 [    21]: 12210
      0.05363 [    17]: 12102
      0.04955 [    25]: 21012
      0.04377 [    19]: 12120
      0.04277 [    15]: 12012
      0.04274 [     6]: 10122
      0.03736 [     8]: 10221
      0.03158 [    30]: 21201
      0.02792 [    13]: 11211
      0.02709 [     7]: 10212
      0.02523 [    14]: 11220
      0.02166 [    33]: 22101
      0.01663 [     3]: 02112
      0.01656 [    34]: 22110
      0.01626 [    11]: 11121
      0.01501 [    26]: 21021
      0.01482 [    10]: 11112
      0.01217 [    28]: 21111
      0.01165 [     1]: 01212
      0.01050 [     0]: 01122
      0.01006 [    20]: 12201
      0.00974 [     9]: 11022
      0.00878 [    18]: 12111
      0.00829 [    31]: 21210
      0.00560 [    24]: 20211
ROOT  40:  E=   -2879.9199594528 Eh  4.624 eV  37297.0 cm**-1
      0.18727 [     2]: 01221
      0.16538 [     0]: 01122
      0.08499 [     8]: 10221
      0.06224 [     7]: 10212
      0.05951 [    21]: 12210
      0.05191 [    33]: 22101
      0.03959 [    27]: 21102
      0.03440 [     6]: 10122
      0.03231 [     5]: 02211
      0.03210 [    29]: 21120
      0.02757 [    15]: 12012
      0.02422 [     4]: 02121
      0.02271 [    16]: 12021
      0.01941 [    20]: 12201
      0.01873 [    11]: 11121
      0.01853 [    28]: 21111
      0.01764 [    13]: 11211
      0.01310 [    24]: 20211
      0.01117 [    31]: 21210
      0.00995 [    32]: 22011
      0.00920 [    25]: 21012
      0.00860 [    26]: 21021
      0.00824 [     3]: 02112
      0.00778 [     1]: 01212
      0.00748 [    17]: 12102
      0.00634 [    30]: 21201
      0.00567 [    10]: 11112
      0.00376 [    18]: 12111
      0.00370 [     9]: 11022
      0.00277 [    12]: 11202
ROOT  41:  E=   -2879.9185885408 Eh  4.662 eV  37597.8 cm**-1
      0.21701 [     8]: 10221
      0.11247 [    20]: 12201
      0.08788 [    16]: 12021
      0.08530 [    15]: 12012
      0.05436 [    13]: 11211
      0.05043 [     9]: 11022
      0.04256 [    11]: 11121
      0.03334 [    21]: 12210
      0.03200 [     7]: 10212
      0.02986 [     0]: 01122
      0.02792 [    17]: 12102
      0.02761 [    10]: 11112
      0.02742 [     5]: 02211
      0.01819 [     2]: 01221
      0.01728 [     1]: 01212
      0.01649 [    33]: 22101
      0.01530 [    12]: 11202
      0.01411 [    28]: 21111
      0.01404 [    14]: 11220
      0.01341 [    31]: 21210
      0.01252 [    22]: 20112
      0.00940 [    29]: 21120
      0.00777 [    25]: 21012
      0.00648 [    18]: 12111
      0.00579 [    24]: 20211
      0.00537 [    19]: 12120
      0.00376 [    23]: 20121
      0.00278 [    32]: 22011
      0.00261 [     4]: 02121
ROOT  42:  E=   -2879.9163956031 Eh  4.721 eV  38079.1 cm**-1
      0.25331 [     6]: 10122
      0.10597 [    22]: 20112
      0.07529 [    17]: 12102
      0.04971 [    25]: 21012
      0.04505 [    27]: 21102
      0.04503 [    33]: 22101
      0.04415 [    10]: 11112
      0.03738 [    18]: 12111
      0.03258 [     3]: 02112
      0.02963 [    21]: 12210
      0.02815 [     1]: 01212
      0.02706 [    34]: 22110
      0.02534 [    19]: 12120
      0.02197 [    13]: 11211
      0.02052 [    20]: 12201
      0.01874 [    12]: 11202
      0.01819 [    14]: 11220
      0.01719 [    28]: 21111
      0.01711 [     7]: 10212
      0.01649 [     5]: 02211
      0.01404 [     9]: 11022
      0.01046 [    32]: 22011
      0.01026 [     8]: 10221
      0.00702 [     2]: 01221
      0.00668 [     0]: 01122
      0.00495 [    31]: 21210
      0.00452 [    11]: 11121
      0.00362 [    29]: 21120
      0.00292 [     4]: 02121
ROOT  43:  E=   -2879.9128464517 Eh  4.818 eV  38858.1 cm**-1
      0.14608 [     9]: 11022
      0.13115 [     6]: 10122
      0.08840 [    20]: 12201
      0.07395 [    13]: 11211
      0.05841 [    12]: 11202
      0.05461 [    27]: 21102
      0.05121 [    15]: 12012
      0.04769 [     7]: 10212
      0.04586 [    25]: 21012
      0.03154 [    22]: 20112
      0.03035 [     8]: 10221
      0.02591 [    10]: 11112
      0.02331 [    17]: 12102
      0.02286 [     0]: 01122
      0.02102 [    14]: 11220
      0.01720 [    30]: 21201
      0.01658 [    18]: 12111
      0.01421 [    33]: 22101
      0.01288 [    21]: 12210
      0.01228 [    32]: 22011
      0.01132 [    24]: 20211
      0.01127 [    28]: 21111
      0.00951 [    34]: 22110
      0.00792 [    19]: 12120
      0.00739 [    26]: 21021
      0.00543 [    11]: 11121
      0.00503 [    31]: 21210
      0.00477 [    29]: 21120
      0.00427 [     1]: 01212
      0.00296 [     5]: 02211
ROOT  44:  E=   -2879.9098616705 Eh  4.899 eV  39513.2 cm**-1
      0.19226 [     0]: 01122
      0.13765 [    10]: 11112
      0.11918 [    27]: 21102
      0.10900 [     1]: 01212
      0.07198 [    25]: 21012
      0.06527 [     5]: 02211
      0.04288 [    32]: 22011
      0.03930 [     9]: 11022
      0.03043 [    18]: 12111
      0.02780 [    15]: 12012
      0.02439 [    20]: 12201
      0.02334 [    13]: 11211
      0.01985 [    29]: 21120
      0.01722 [     8]: 10221
      0.01539 [    31]: 21210
      0.01201 [    30]: 21201
      0.01049 [     6]: 10122
      0.00928 [     2]: 01221
      0.00841 [     3]: 02112
      0.00515 [    24]: 20211
      0.00281 [    34]: 22110
      0.00257 [    16]: 12021

                 <<<<<<<<<<<<<<<<<<INITIAL CI STATE CHECK>>>>>>>>>>>>>>>>>>

   E(CAS)= -2880.106649886 Eh DE=    0.000000e+00
   --- Energy gap subspaces: Ext-Act = 0.222   Act-Int = -0.054
   N(occ)=  1.20000 1.20000 1.20000 1.20000 1.20000
   ||g|| =     5.691887e-04 Max(G)=   -1.409135e-04 Rot=128,123
                     ---- THE CAS-SCF GRADIENT HAS CONVERGED ----
                            --- FINALIZING ORBITALS ---
                    ---- DOING ONE FINAL ITERATION FOR PRINTING ----
   --- Forming Natural Orbitals
   --- Canonicalize Internal Space
   --- Canonicalize External Space

MACRO-ITERATION   2: 
   --- Inactive Energy E0 = -2864.32428177 Eh
   --- All densities will be recomputed
CI-ITERATION   0: 
 -2880.185500366   0.000000000000 (    0.00)
 -2880.182647623   0.000000000000
 -2880.179554123   0.000000000000
 -2880.177555170   0.000000000000
 -2880.173895968   0.000000000000
   CI-PROBLEM SOLVED
   DENSITIES MADE
CI-ITERATION   0: 
 -2880.089896932   0.000000000000 (    0.00)
 -2880.088593099   0.000000000000
 -2880.088256292   0.000000000000
 -2880.088216291   0.000000000000
 -2880.087534537   0.000000000000
 -2880.085914812   0.000000000000
 -2880.085291849   0.000000000000
 -2880.084198584   0.000000000000
 -2880.083879793   0.000000000000
 -2880.081813229   0.000000000000
 -2880.081634486   0.000000000000
 -2880.075899011   0.000000000000
 -2880.075220095   0.000000000000
 -2880.075050068   0.000000000000
 -2880.071911597   0.000000000000
 -2880.070806052   0.000000000000
 -2880.069990423   0.000000000000
 -2880.069450988   0.000000000000
 -2880.068910902   0.000000000000
 -2880.068241746   0.000000000000
 -2880.068045531   0.000000000000
 -2880.062356030   0.000000000000
 -2880.062093821   0.000000000000
 -2880.061127603   0.000000000000
 -2880.060308338   0.000000000000
 -2880.057923163   0.000000000000
 -2880.056794231   0.000000000000
 -2880.056524690   0.000000000000
 -2880.056189819   0.000000000000
 -2880.056085516   0.000000000000
 -2880.026084241   0.000000000000
 -2880.024325789   0.000000000000
 -2880.023541516   0.000000000000
 -2880.022537698   0.000000000000
 -2880.021501505   0.000000000000
 -2879.927247879   0.000000000000
 -2879.926443273   0.000000000000
 -2879.924097464   0.000000000000
 -2879.923127847   0.000000000000
 -2879.921391786   0.000000000000
 -2879.919959450   0.000000000000
 -2879.918588538   0.000000000000
 -2879.916395601   0.000000000000
 -2879.912846449   0.000000000000
 -2879.909861668   0.000000000000
   CI-PROBLEM SOLVED
   DENSITIES MADE
   E(CAS)= -2880.106649883 Eh DE=    2.774868e-09
   --- Energy gap subspaces: Ext-Act = 0.222   Act-Int = -0.055
   N(occ)=  1.20000 1.20000 1.20000 1.20000 1.20000
   ||g|| =     5.691886e-04 Max(G)=   -1.409133e-04 Rot=127,123
--------------
CASSCF RESULTS
--------------

Final CASSCF energy       : -2880.106649883 Eh  -78371.6863 eV

----------------
ORBITAL ENERGIES
----------------

  NO   OCC          E(Eh)            E(eV) 
   0   2.0000    -261.394115     -7112.8955 
   1   2.0000     -31.957033      -869.5951 
   2   2.0000     -27.437361      -746.6085 
   3   2.0000     -27.436711      -746.5909 
   4   2.0000     -27.436570      -746.5870 
   5   2.0000      -4.732672      -128.7825 
   6   2.0000      -4.732330      -128.7733 
   7   2.0000      -4.728155      -128.6596 
   8   2.0000      -4.717260      -128.3632 
   9   2.0000      -4.715872      -128.3254 
  10   2.0000      -4.713034      -128.2482 
  11   2.0000      -4.708101      -128.1139 
  12   2.0000      -4.707395      -128.0947 
  13   2.0000      -4.707105      -128.0868 
  14   2.0000      -4.704904      -128.0269 
[...]
 3 117   30645.5    326.3   0.000000000   0.00000   0.00012   0.00000   0.00023
 3 118   31368.4    318.8   0.000000001   0.00000   0.00042   0.00022   0.00053
 3 119   31374.9    318.7   0.000000000   0.00000   0.00001   0.00011   0.00011
 3 120   31376.9    318.7   0.000000001   0.00000   0.00061   0.00011   0.00038
 3 121   31603.8    316.4   0.000000001   0.00000   0.00025   0.00025   0.00039
 3 122   31604.7    316.4   0.000000001   0.00000   0.00063   0.00015   0.00017
 3 123   31615.4    316.3   0.000000001   0.00000   0.00016   0.00040   0.00018
 3 124   32071.2    311.8   0.000000000   0.00000   0.00027   0.00031   0.00002
 3 125   32078.7    311.7   0.000000001   0.00000   0.00053   0.00031   0.00012
 3 126   32080.1    311.7   0.000000002   0.00000   0.00044   0.00043   0.00061
 3 127   32426.4    308.4   0.000000001   0.00000   0.00039   0.00034   0.00004
 3 128   32428.8    308.4   0.000000000   0.00000   0.00001   0.00002   0.00000
 3 129   32429.2    308.4   0.000000001   0.00000   0.00032   0.00042   0.00015
 3 130   46618.1    214.5   0.000000000   0.00000   0.00020   0.00006   0.00003
 3 131   46633.2    214.4   0.000000000   0.00000   0.00029   0.00011   0.00020
 3 132   46635.2    214.4   0.000000000   0.00000   0.00012   0.00003   0.00003
 3 133   47421.3    210.9   0.000000000   0.00000   0.00012   0.00005   0.00001
 3 134   47424.2    210.9   0.000000000   0.00000   0.00017   0.00007   0.00018
 3 135   47428.2    210.8   0.000000000   0.00000   0.00025   0.00001   0.00003
 3 136   47678.1    209.7   0.000000000   0.00000   0.00005   0.00006   0.00026
 3 137   47704.9    209.6   0.000000000   0.00000   0.00005   0.00002   0.00000
 3 138   47822.6    209.1   0.000000001   0.00000   0.00048   0.00026   0.00011
 3 139   47880.3    208.9   0.000000003   0.00000   0.00011   0.00075   0.00054
 3 140   48010.9    208.3   0.000000000   0.00000   0.00007   0.00010   0.00033
 3 141   48014.0    208.3   0.000000000   0.00000   0.00019   0.00009   0.00024
 3 142   48960.9    204.2   0.000000000   0.00000   0.00007   0.00005   0.00006
 3 143   48966.9    204.2   0.000000001   0.00000   0.00032   0.00020   0.00041
 3 144   48973.0    204.2   0.000000002   0.00000   0.00011   0.00025   0.00059
 3 145   49660.4    201.4   0.000000003   0.00000   0.00059   0.00043   0.00043
 3 146   49664.1    201.4   0.000000001   0.00000   0.00023   0.00001   0.00033
 3 147   49668.9    201.3   0.000000000   0.00000   0.00025   0.00001   0.00021
 3 148   50257.6    199.0   0.000000001   0.00000   0.00021   0.00000   0.00031
 3 149   50275.1    198.9   0.000000001   0.00000   0.00041   0.00001   0.00017
 3 150   50331.4    198.7   0.000000000   0.00000   0.00016   0.00032   0.00004
 3 151   50369.5    198.5   0.000000000   0.00000   0.00019   0.00001   0.00011
 3 152   50410.8    198.4   0.000000000   0.00000   0.00023   0.00001   0.00004
 3 153   50418.9    198.3   0.000000001   0.00000   0.00028   0.00005   0.00022
 3 154   51825.6    193.0   0.000000000   0.00000   0.00001   0.00002   0.00003
 3 155   51868.2    192.8   0.000000000   0.00000   0.00011   0.00005   0.00001
 3 156   51910.0    192.6   0.000000000   0.00000   0.00016   0.00027   0.00005
 3 157   52676.6    189.8   0.000000000   0.00000   0.00030   0.00001   0.00017
 3 158   52721.2    189.7   0.000000000   0.00000   0.00016   0.00006   0.00003
 3 159   52742.0    189.6   0.000000000   0.00000   0.00006   0.00001   0.00002
 4  5     856.7   11673.0   0.000000070   0.00116   0.03027   0.00254   0.01534
 4  6     876.9   11403.6   0.000000015   0.00025   0.01373   0.00223   0.00748
 4  7     901.9   11087.1   0.000000004   0.00006   0.00564   0.00546   0.00020
 4  8     975.6   10249.6   0.000000000   0.00000   0.00067   0.00012   0.00033
 4  9     977.0   10235.5   0.000000000   0.00000   0.00134   0.00053   0.00074
 4 10    2009.7   4975.8   0.000000017   0.00012   0.00988   0.00220   0.00419
 4 11    2011.1   4972.5   0.000000178   0.00126   0.02897   0.00966   0.01808
 4 12    2065.2   4842.2   0.000000250   0.00172   0.03473   0.00824   0.02112
 4 13    2084.3   4797.8   0.000000065   0.00044   0.01548   0.00855   0.01141
 4 14    2101.8   4757.7   0.000000008   0.00005   0.00066   0.00607   0.00373
 4 15    2692.7   3713.8   0.000000021   0.00011   0.00660   0.00675   0.00476
 4 16    2703.4   3699.1   0.000000013   0.00007   0.00664   0.00363   0.00354
 4 17    2758.1   3625.7   0.000000056   0.00029   0.01490   0.00219   0.00771
 4 18    2812.7   3555.2   0.000000071   0.00036   0.01701   0.00317   0.00768
 4 19    2822.1   3543.4   0.000000023   0.00011   0.00769   0.00460   0.00584
 4 20    4182.3   2391.0   0.000000040   0.00014   0.00911   0.00531   0.00499
 4 21    4197.4   2382.4   0.000000024   0.00008   0.00502   0.00224   0.00715
 4 22    4203.5   2379.0   0.000000013   0.00004   0.00579   0.00012   0.00308
 4 23    4250.9   2352.5   0.000000183   0.00061   0.01821   0.01306   0.01044
 4 24    4250.9   2352.4   0.000000001   0.00000   0.00110   0.00173   0.00059
 4 25   18653.0    536.1   0.000000000   0.00000   0.00021   0.00039   0.00031
 4 26   18674.9    535.5   0.000000001   0.00000   0.00012   0.00089   0.00003
 4 27   18683.2    535.2   0.000000000   0.00000   0.00005   0.00036   0.00022
 4 28   19524.8    512.2   0.000000001   0.00000   0.00083   0.00026   0.00027
 4 29   19529.5    512.0   0.000000001   0.00000   0.00066   0.00044   0.00028
 4 30   19597.9    510.3   0.000000000   0.00000   0.00025   0.00040   0.00026
 4 31   19811.2    504.8   0.000000002   0.00000   0.00041   0.00100   0.00074
 4 32   19820.5    504.5   0.000000000   0.00000   0.00044   0.00036   0.00001
 4 33   19881.9    503.0   0.000000000   0.00000   0.00042   0.00008   0.00006
 4 34   19954.3    501.1   0.000000001   0.00000   0.00059   0.00028   0.00039
 4 35   19978.1    500.5   0.000000000   0.00000   0.00024   0.00014   0.00008
 4 36   20003.3    499.9   0.000000000   0.00000   0.00036   0.00037   0.00024
 4 37   20033.0    499.2   0.000000000   0.00000   0.00000   0.00012   0.00029
 4 38   20098.9    497.5   0.000000003   0.00000   0.00009   0.00136   0.00065
 4 39   20116.1    497.1   0.000000000   0.00000   0.00029   0.00019   0.00042
 4 40   20495.2    487.9   0.000000000   0.00000   0.00010   0.00007   0.00034
 4 41   20503.5    487.7   0.000000001   0.00000   0.00030   0.00036   0.00040
 4 42   20636.0    484.6   0.000000000   0.00000   0.00002   0.00018   0.00051
 4 43   20696.7    483.2   0.000000001   0.00000   0.00052   0.00036   0.00014
 4 44   20724.2    482.5   0.000000002   0.00000   0.00054   0.00098   0.00043
 4 45   20746.1    482.0   0.000000001   0.00000   0.00081   0.00050   0.00011
 4 46   20757.4    481.8   0.000000000   0.00000   0.00002   0.00036   0.00009
 4 47   20838.7    479.9   0.000000001   0.00000   0.00031   0.00071   0.00001
 4 48   21022.8    475.7   0.000000001   0.00000   0.00060   0.00012   0.00025
 4 49   21063.1    474.8   0.000000001   0.00000   0.00040   0.00035   0.00045
 4 50   21067.8    474.7   0.000000002   0.00000   0.00084   0.00098   0.00010
 4 51   21092.9    474.1   0.000000001   0.00000   0.00021   0.00086   0.00008
 4 52   21118.7    473.5   0.000000000   0.00000   0.00015   0.00028   0.00016
 4 53   21174.9    472.3   0.000000001   0.00000   0.00016   0.00029   0.00065
 4 54   21347.7    468.4   0.000000001   0.00000   0.00062   0.00001   0.00001
 4 55   21394.6    467.4   0.000000001   0.00000   0.00094   0.00013   0.00016
 4 56   21426.5    466.7   0.000000001   0.00000   0.00084   0.00004   0.00020
 4 57   21427.8    466.7   0.000000000   0.00000   0.00035   0.00028   0.00021
 4 58   21536.0    464.3   0.000000001   0.00000   0.00048   0.00018   0.00039
 4 59   21608.4    462.8   0.000000000   0.00000   0.00037   0.00022   0.00003
 4 60   21845.7    457.8   0.000000000   0.00000   0.00011   0.00005   0.00007
 4 61   22183.4    450.8   0.000000000   0.00000   0.00041   0.00004   0.00012
 4 62   22204.3    450.4   0.000000001   0.00000   0.00032   0.00035   0.00066
 4 63   22213.9    450.2   0.000000000   0.00000   0.00012   0.00015   0.00030
 4 64   22286.1    448.7   0.000000001   0.00000   0.00047   0.00080   0.00019
 4 65   22340.0    447.6   0.000000000   0.00000   0.00008   0.00025   0.00042
 4 66   22432.2    445.8   0.000000000   0.00000   0.00044   0.00006   0.00003
 4 67   22450.2    445.4   0.000000000   0.00000   0.00010   0.00042   0.00007
 4 68   22515.6    444.1   0.000000002   0.00000   0.00098   0.00003   0.00063
 4 69   22571.1    443.0   0.000000000   0.00000   0.00053   0.00011   0.00011
 4 70   22804.3    438.5   0.000000001   0.00000   0.00056   0.00040   0.00056
 4 71   22832.1    438.0   0.000000000   0.00000   0.00005   0.00011   0.00016
 4 72   22840.9    437.8   0.000000000   0.00000   0.00002   0.00025   0.00027
 4 73   23180.2    431.4   0.000000000   0.00000   0.00007   0.00030   0.00036
 4 74   23204.6    430.9   0.000000001   0.00000   0.00019   0.00026   0.00046
 4 75   23247.8    430.1   0.000000001   0.00000   0.00008   0.00016   0.00067
 4 76   23267.2    429.8   0.000000000   0.00000   0.00013   0.00030   0.00005
 4 77   23297.1    429.2   0.000000000   0.00000   0.00028   0.00027   0.00023
 4 78   23309.9    429.0   0.000000001   0.00000   0.00071   0.00041   0.00001
 4 79   23394.2    427.5   0.000000001   0.00000   0.00025   0.00014   0.00085
 4 80   23429.9    426.8   0.000000001   0.00000   0.00067   0.00018   0.00013
 4 81   23479.7    425.9   0.000000000   0.00000   0.00018   0.00004   0.00040
 4 82   23631.5    423.2   0.000000000   0.00000   0.00021   0.00009   0.00037
 4 83   23650.2    422.8   0.000000000   0.00000   0.00008   0.00036   0.00011
 4 84   23701.9    421.9   0.000000000   0.00000   0.00003   0.00011   0.00010
 4 85   23840.9    419.4   0.000000002   0.00000   0.00067   0.00055   0.00043
 4 86   23860.6    419.1   0.000000000   0.00000   0.00023   0.00002   0.00001
 4 87   23958.6    417.4   0.000000000   0.00000   0.00001   0.00005   0.00024
 4 88   24576.4    406.9   0.000000000   0.00000   0.00018   0.00017   0.00009
 4 89   24582.5    406.8   0.000000003   0.00000   0.00109   0.00030   0.00045
 4 90   24698.9    404.9   0.000000007   0.00000   0.00167   0.00027   0.00093
 4 91   24776.2    403.6   0.000000000   0.00000   0.00015   0.00024   0.00005
 4 92   24864.8    402.2   0.000000003   0.00000   0.00113   0.00019   0.00064
 4 93   24910.4    401.4   0.000000001   0.00000   0.00045   0.00024   0.00022
 4 94   25043.6    399.3   0.000000000   0.00000   0.00010   0.00037   0.00021
 4 95   25057.0    399.1   0.000000001   0.00000   0.00065   0.00015   0.00051
 4 96   25121.9    398.1   0.000000000   0.00000   0.00029   0.00013   0.00010
 4 97   25432.8    393.2   0.000000000   0.00000   0.00007   0.00008   0.00025
 4 98   25507.4    392.0   0.000000001   0.00000   0.00004   0.00051   0.00034
 4 99   25525.5    391.8   0.000000000   0.00000   0.00024   0.00022   0.00005
 4 100   26293.8    380.3   0.000000001   0.00000   0.00049   0.00020   0.00062
 4 101   26302.1    380.2   0.000000002   0.00000   0.00031   0.00076   0.00062
 4 102   26337.3    379.7   0.000000001   0.00000   0.00040   0.00036   0.00015
 4 103   26628.7    375.5   0.000000000   0.00000   0.00008   0.00002   0.00003
 4 104   26642.0    375.3   0.000000001   0.00000   0.00032   0.00036   0.00025
 4 105   26690.5    374.7   0.000000000   0.00000   0.00002   0.00029   0.00017
 4 106   26708.4    374.4   0.000000000   0.00000   0.00015   0.00021   0.00038
 4 107   26827.6    372.8   0.000000000   0.00000   0.00005   0.00023   0.00002
 4 108   26848.0    372.5   0.000000000   0.00000   0.00017   0.00024   0.00021
 4 109   27024.3    370.0   0.000000000   0.00000   0.00005   0.00002   0.00001
 4 110   27043.6    369.8   0.000000001   0.00000   0.00042   0.00029   0.00017
 4 111   27234.5    367.2   0.000000000   0.00000   0.00014   0.00016   0.00023
 4 112   27252.8    366.9   0.000000001   0.00000   0.00038   0.00021   0.00032
 4 113   27314.2    366.1   0.000000000   0.00000   0.00016   0.00008   0.00000
 4 114   27347.5    365.7   0.000000000   0.00000   0.00005   0.00028   0.00023
 4 115   30624.8    326.5   0.000000002   0.00000   0.00065   0.00051   0.00047
 4 116   30626.6    326.5   0.000000000   0.00000   0.00021   0.00016   0.00026
 4 117   30630.5    326.5   0.000000000   0.00000   0.00017   0.00003   0.00009
 4 118   31353.4    318.9   0.000000001   0.00000   0.00058   0.00005   0.00039
 4 119   31359.9    318.9   0.000000001   0.00000   0.00040   0.00002   0.00039
 4 120   31361.9    318.9   0.000000001   0.00000   0.00046   0.00027   0.00047
 4 121   31588.8    316.6   0.000000001   0.00000   0.00037   0.00035   0.00006
 4 122   31589.6    316.6   0.000000000   0.00000   0.00001   0.00034   0.00026
 4 123   31600.3    316.5   0.000000001   0.00000   0.00050   0.00029   0.00048
 4 124   32056.2    312.0   0.000000000   0.00000   0.00029   0.00013   0.00026
 4 125   32063.6    311.9   0.000000001   0.00000   0.00047   0.00025   0.00052
 4 126   32065.1    311.9   0.000000002   0.00000   0.00074   0.00032   0.00031
 4 127   32411.3    308.5   0.000000000   0.00000   0.00020   0.00026   0.00003
 4 128   32413.8    308.5   0.000000000   0.00000   0.00000   0.00019   0.00026
 4 129   32414.1    308.5   0.000000000   0.00000   0.00033   0.00019   0.00007
 4 130   46603.1    214.6   0.000000000   0.00000   0.00025   0.00013   0.00012
 4 131   46618.1    214.5   0.000000000   0.00000   0.00024   0.00007   0.00004
 4 132   46620.2    214.5   0.000000000   0.00000   0.00010   0.00008   0.00001
 4 133   47406.3    210.9   0.000000000   0.00000   0.00010   0.00003   0.00010
 4 134   47409.1    210.9   0.000000000   0.00000   0.00016   0.00021   0.00007
 4 135   47413.2    210.9   0.000000000   0.00000   0.00011   0.00015   0.00001
 4 136   47663.0    209.8   0.000000001   0.00000   0.00008   0.00036   0.00051
 4 137   47689.8    209.7   0.000000001   0.00000   0.00048   0.00004   0.00025
 4 138   47807.5    209.2   0.000000000   0.00000   0.00018   0.00006   0.00012
 4 139   47865.3    208.9   0.000000001   0.00000   0.00010   0.00021   0.00041
 4 140   47995.9    208.4   0.000000003   0.00000   0.00030   0.00082   0.00053
 4 141   47999.0    208.3   0.000000001   0.00000   0.00036   0.00036   0.00006
 4 142   48945.9    204.3   0.000000000   0.00000   0.00007   0.00005   0.00006
 4 143   48951.9    204.3   0.000000001   0.00000   0.00006   0.00014   0.00043
 4 144   48958.0    204.3   0.000000001   0.00000   0.00031   0.00019   0.00033
 4 145   49645.4    201.4   0.000000000   0.00000   0.00025   0.00001   0.00027
 4 146   49649.0    201.4   0.000000002   0.00000   0.00050   0.00033   0.00038
 4 147   49653.9    201.4   0.000000002   0.00000   0.00042   0.00041   0.00038
 4 148   50242.6    199.0   0.000000000   0.00000   0.00015   0.00011   0.00006
 4 149   50260.0    199.0   0.000000000   0.00000   0.00008   0.00031   0.00008
 4 150   50316.4    198.7   0.000000001   0.00000   0.00035   0.00008   0.00016
 4 151   50354.5    198.6   0.000000000   0.00000   0.00026   0.00007   0.00022
 4 152   50395.7    198.4   0.000000000   0.00000   0.00011   0.00011   0.00023
 4 153   50403.9    198.4   0.000000000   0.00000   0.00015   0.00001   0.00014
 4 154   51810.5    193.0   0.000000000   0.00000   0.00006   0.00008   0.00016
 4 155   51853.2    192.9   0.000000000   0.00000   0.00005   0.00002   0.00015
 4 156   51895.0    192.7   0.000000000   0.00000   0.00020   0.00010   0.00000
 4 157   52661.6    189.9   0.000000000   0.00000   0.00021   0.00003   0.00004
 4 158   52706.1    189.7   0.000000000   0.00000   0.00022   0.00006   0.00005
 4 159   52727.0    189.7   0.000000003   0.00000   0.00025   0.00058   0.00063

------------------------------------------------------------------------------
                           SOC CORRECTED DIPOLE MOMENTS
------------------------------------------------------------------------------
      TX        TY        TZ           |T|
   (Debye)   (Debye)   (Debye)      (Debye)
------------------------------------------------------------------------------
  31.19779 -14.55856 -13.33768     36.92083

--------------
CASSCF TIMINGS
--------------

Total time                       ...     8683.4 sec
Sum of individual times          ...     8702.4 sec (100.2%)

Calculation of AO operators
   F(Core) operator              ...       44.8 sec (  0.5%)
   G(Act) operator               ...       41.2 sec (  0.5%)
   J(AO) operators               ...        0.0 sec (  0.0%)
Calculation of MO transformed quantities
   J(MO) operators               ...        3.9 sec (  0.0%)
   (pq|rs) integrals             ...        0.0 sec (  0.0%)
   AO->MO one electron integrals ...        0.1 sec (  0.0%)
Configuration interaction steps
   CI-setup phase                ...        0.0 sec (  0.0%)
   CI-solution phase             ...        0.1 sec (  0.0%)
   Generation of densities       ...        0.0 sec (  0.0%)
Orbital improvement steps
   Orbital gradient              ...        0.0 sec (  0.0%)
PT2 
   NEVPT2 time                   ...     8555.2 sec ( 98.5%)
Properties                       ...       30.3 sec (  0.3%)
   SOC integral calculation      ...       26.7 sec (  0.3%)
   SSC RMEs (incl. integrals)    ...        0.0 sec (  0.0%)
   SOC RMEs                      ...        0.1 sec (  0.0%)

Maximum memory used throughout the entire CASSCF-calculation: 1136.4 MB

-------------------------   --------------------
FINAL SINGLE POINT ENERGY     -2886.137146249785
-------------------------   --------------------


                            ***************************************
                            *     ORCA property calculations      *
                            ***************************************

                                    ---------------------
                                    Active property flags
                                    ---------------------
   (+) Dipole Moment


------------------------------------------------------------------------------
                       ORCA ELECTRIC PROPERTIES CALCULATION
------------------------------------------------------------------------------

Dipole Moment Calculation                       ... on
Quadrupole Moment Calculation                   ... off
Polarizability Calculation                      ... off
GBWName                                         ... nevpt2.gbw
Electron density                                ... nevpt2.scfp
The origin for moment calculation is the CENTER OF MASS  = (12.306935, 14.086923 12.059983)

-------------
DIPOLE MOMENT
-------------
                                X             Y             Z
Electronic contribution:    -12.74302       6.26368       5.62417
Nuclear contribution   :     12.27459      -5.72813      -5.24719
                        -----------------------------------------
Total Dipole Moment    :     -0.46843       0.53556       0.37698
                        -----------------------------------------
Magnitude (a.u.)       :      0.80521
Magnitude (Debye)      :      2.04668



--------------------
Rotational spectrum 
--------------------
 
Rotational constants in cm-1:     0.001747     0.001060     0.001012 
Rotational constants in MHz :    52.374164    31.789072    30.329337 

 Dipole components along the rotational axes: 
x,y,z [a.u.] :    -0.369348     0.682884    -0.213579 
x,y,z [Debye]:    -0.938807     1.735753    -0.542873 

 

Timings for individual modules:

Sum of individual times         ...     8706.103 sec (= 145.102 min)
GTO integral calculation        ...        9.344 sec (=   0.156 min)   0.1 %
SCF iterations                  ...        9.000 sec (=   0.150 min)   0.1 %
CASSCF iterations               ...     8687.759 sec (= 144.796 min)  99.8 %
                             ****ORCA TERMINATED NORMALLY****
TOTAL RUN TIME: 0 days 2 hours 25 minutes 7 seconds 256 msec
