
                                 *****************
                                 * O   R   C   A *
                                 *****************

                                            #,                                       
                                            ###                                      
                                            ####                                     
                                            #####                                    
                                            ######                                   
                                           ########,                                 
                                     ,,################,,,,,                         
                               ,,#################################,,                 
                          ,,##########################################,,             
                       ,#########################################, ''#####,          
                    ,#############################################,,   '####,        
                  ,##################################################,,,,####,       
                ,###########''''           ''''###############################       
              ,#####''   ,,,,##########,,,,          '''####'''          '####       
            ,##' ,,,,###########################,,,                        '##       
           ' ,,###''''                  '''############,,,                           
         ,,##''                                '''############,,,,        ,,,,,,###''
      ,#''                                            '''#######################'''  
     '                                                          ''''####''''         
             ,#######,   #######,   ,#######,      ##                                
            ,#'     '#,  ##    ##  ,#'     '#,    #''#        ######   ,####,        
            ##       ##  ##   ,#'  ##            #'  '#       #        #'  '#        
            ##       ##  #######   ##           ,######,      #####,   #    #        
            '#,     ,#'  ##    ##  '#,     ,#' ,#      #,         ##   #,  ,#        
             '#######'   ##     ##  '#######'  #'      '#     #####' # '####'        



                  #######################################################
                  #                        -***-                        #
                  #          Department of theory and spectroscopy      #
                  #    Directorship and core code : Frank Neese         #
                  #        Max Planck Institute fuer Kohlenforschung    #
                  #                Kaiser Wilhelm Platz 1               #
                  #                 D-45470 Muelheim/Ruhr               #
                  #                      Germany                        #
                  #                                                     #
                  #                  All rights reserved                #
                  #                        -***-                        #
                  #######################################################


                         Program Version 5.0.3 -  RELEASE  -


 With contributions from (in alphabetic order):
   Daniel Aravena         : Magnetic Suceptibility
   Michael Atanasov       : Ab Initio Ligand Field Theory (pilot matlab implementation)
   Alexander A. Auer      : GIAO ZORA, VPT2 properties, NMR spectrum
   Ute Becker             : Parallelization
   Giovanni Bistoni       : ED, misc. LED, open-shell LED, HFLD
   Martin Brehm           : Molecular dynamics
   Dmytro Bykov           : SCF Hessian
   Vijay G. Chilkuri      : MRCI spin determinant printing, contributions to CSF-ICE
   Dipayan Datta          : RHF DLPNO-CCSD density
   Achintya Kumar Dutta   : EOM-CC, STEOM-CC
   Dmitry Ganyushin       : Spin-Orbit,Spin-Spin,Magnetic field MRCI
   Miquel Garcia          : C-PCM and meta-GGA Hessian, CC/C-PCM, Gaussian charge scheme
   Yang Guo               : DLPNO-NEVPT2, F12-NEVPT2, CIM, IAO-localization
   Andreas Hansen         : Spin unrestricted coupled pair/coupled cluster methods
   Benjamin Helmich-Paris : MC-RPA, TRAH-SCF, COSX integrals
   Lee Huntington         : MR-EOM, pCC
   Robert Izsak           : Overlap fitted RIJCOSX, COSX-SCS-MP3, EOM
   Marcus Kettner         : VPT2
   Christian Kollmar      : KDIIS, OOCD, Brueckner-CCSD(T), CCSD density, CASPT2, CASPT2-K
   Simone Kossmann        : Meta GGA functionals, TD-DFT gradient, OOMP2, MP2 Hessian
   Martin Krupicka        : Initial AUTO-CI
   Lucas Lang             : DCDCAS
   Marvin Lechner         : AUTO-CI (C++ implementation), FIC-MRCC
   Dagmar Lenk            : GEPOL surface, SMD
   Dimitrios Liakos       : Extrapolation schemes; Compound Job, initial MDCI parallelization
   Dimitrios Manganas     : Further ROCIS development; embedding schemes
   Dimitrios Pantazis     : SARC Basis sets
   Anastasios Papadopoulos: AUTO-CI, single reference methods and gradients
   Taras Petrenko         : DFT Hessian,TD-DFT gradient, ASA, ECA, R-Raman, ABS, FL, XAS/XES, NRVS
   Peter Pinski           : DLPNO-MP2, DLPNO-MP2 Gradient
   Christoph Reimann      : Effective Core Potentials
   Marius Retegan         : Local ZFS, SOC
   Christoph Riplinger    : Optimizer, TS searches, QM/MM, DLPNO-CCSD(T), (RO)-DLPNO pert. Triples
   Tobias Risthaus        : Range-separated hybrids, TD-DFT gradient, RPA, STAB
   Michael Roemelt        : Original ROCIS implementation
   Masaaki Saitow         : Open-shell DLPNO-CCSD energy and density
   Barbara Sandhoefer     : DKH picture change effects
   Avijit Sen             : IP-ROCIS
   Kantharuban Sivalingam : CASSCF convergence, NEVPT2, FIC-MRCI
   Bernardo de Souza      : ESD, SOC TD-DFT
   Georgi Stoychev        : AutoAux, RI-MP2 NMR, DLPNO-MP2 response
   Willem Van den Heuvel  : Paramagnetic NMR
   Boris Wezisla          : Elementary symmetry handling
   Frank Wennmohs         : Technical directorship


 We gratefully acknowledge several colleagues who have allowed us to
 interface, adapt or use parts of their codes:
   Stefan Grimme, W. Hujo, H. Kruse, P. Pracht,  : VdW corrections, initial TS optimization,
                  C. Bannwarth, S. Ehlert          DFT functionals, gCP, sTDA/sTD-DF
   Ed Valeev, F. Pavosevic, A. Kumar             : LibInt (2-el integral package), F12 methods
   Garnet Chan, S. Sharma, J. Yang, R. Olivares  : DMRG
   Ulf Ekstrom                                   : XCFun DFT Library
   Mihaly Kallay                                 : mrcc  (arbitrary order and MRCC methods)
   Jiri Pittner, Ondrej Demel                    : Mk-CCSD
   Frank Weinhold                                : gennbo (NPA and NBO analysis)
   Christopher J. Cramer and Donald G. Truhlar   : smd solvation model
   Lars Goerigk                                  : TD-DFT with DH, B97 family of functionals
   V. Asgeirsson, H. Jonsson                     : NEB implementation
   FAccTs GmbH                                   : IRC, NEB, NEB-TS, DLPNO-Multilevel, CI-OPT
                                                   MM, QMMM, 2- and 3-layer-ONIOM, Crystal-QMMM,
                                                   LR-CPCM, SF, NACMEs, symmetry and pop. for TD-DFT,
                                                   nearIR, NL-DFT gradient (VV10), updates on ESD,
                                                   ML-optimized integration grids
   S Lehtola, MJT Oliveira, MAL Marques          : LibXC Library
   Liviu Ungur et al                             : ANISO software


 Your calculation uses the libint2 library for the computation of 2-el integrals
 For citations please refer to: http://libint.valeyev.net

 Your ORCA version has been built with support for libXC version: 5.1.0
 For citations please refer to: https://tddft.org/programs/libxc/

 This ORCA versions uses:
   CBLAS   interface :  Fast vector & matrix operations
   LAPACKE interface :  Fast linear algebra routines
   SCALAPACK package :  Parallel linear algebra routines
   Shared memory     :  Shared parallel matrices
   BLAS/LAPACK       :  OpenBLAS 0.3.15  USE64BITINT DYNAMIC_ARCH NO_AFFINITY Sandybridge SINGLE_THREADED
        Core in use  :  Sandybridge
   Copyright (c) 2011-2014, The OpenBLAS Project




***************************************
The coordinates will be read from file: 6.xyz
***************************************


================================================================================

cite the ECPs for Au [Def2-ECP] as follows:
Ce-Yb(ecp-28): M. Dolg, H. Stoll, H.Preuss, J. Chem. Phys., 1989, 90, 1730-1734.
Y-Cd(ecp-28), Hf-Hg(ecp-46): D. Andrae,U. Haeussermann, M. Dolg, H. Stoll, H. Preuss, Theor. Chim. Acta, 1990, 77, 123-141.
In-Sb(ecp-28), Tl-Bi(ecp-46): B. Metz, H. Stoll, M. Dolg, J. Chem. Phys., 2000, 113, 2563-2569.
Te-Xe(ecp-28), Po-Rn(ecp-46): K. A. Peterson, D. Figgen, E. Goll, H. Stoll, M. Dolg, J. Chem. Phys., 2003, 119, 11113-11123.
Rb(ecp-28), Cs(ecp-46): T. Leininger, A. Nicklass, W. Kuechle, H. Stoll, M. Dolg, A. Bergner, Chem. Phys. Lett., 1996, 255, 274-280.
Sr(ecp-28), Ba(ecp-46): M. Kaupp, P. V. Schleyer, H. Stoll and H. Preuss, J. Chem. Phys., 1991, 94, 1360-1366.
La(ecp-46): M. Dolg, H. Stoll, A. Savin, H. Preuss, Theor. Chim. Acta, 1989, 75, 173-194.
Lu(ecp-28): X. Cao, M. Dolg, J. Chem. Phys., 2001, 115, 7348-7355.

ECP parameters for Au [Def2-ECP] have been obtained from:
TURBOMOLE (7.0.2)

----- Orbital basis set information -----
Your calculation utilizes the basis: def2-TZVP
   F. Weigend and R. Ahlrichs, Phys. Chem. Chem. Phys. 7, 3297 (2005).

----- AuxJ basis set information -----
Your calculation utilizes the auxiliary basis: def2/J
   F. Weigend, Phys. Chem. Chem. Phys. 8, 1057 (2006).

================================================================================
                                        WARNINGS
                       Please study these warnings very carefully!
================================================================================


WARNING: your system is open-shell and RHF/RKS was chosen
  ===> : WILL SWITCH to UHF/UKS


WARNING: Geometry Optimization
  ===> : Switching off AutoStart
         For restart on a previous wavefunction, please use MOREAD

INFO   : the flag for use of the SHARK integral package has been found!

================================================================================
                                       INPUT FILE
================================================================================
NAME = pbe.inp
|  1> %pal nprocs 1 end 
|  2> 
|  3> !PBE def2-TZVP OPT UNO
|  4> !SLOWCONV KDIIS 
|  5> 
|  6> %geom maxiter 300 end
|  7> 
|  8> *xyzfile 0 4 6.xyz                           ****END OF INPUT****
================================================================================

                       *****************************
                       * Geometry Optimization Run *
                       *****************************

Geometry optimization settings:
Update method            Update   .... BFGS
Choice of coordinates    CoordSys .... Z-matrix Internals
Initial Hessian          InHess   .... Almoef's Model

Convergence Tolerances:
Energy Change            TolE     ....  5.0000e-06 Eh
Max. Gradient            TolMAXG  ....  3.0000e-04 Eh/bohr
RMS Gradient             TolRMSG  ....  1.0000e-04 Eh/bohr
Max. Displacement        TolMAXD  ....  4.0000e-03 bohr
RMS Displacement         TolRMSD  ....  2.0000e-03 bohr
Strict Convergence                ....  False
------------------------------------------------------------------------------
                        ORCA OPTIMIZATION COORDINATE SETUP
------------------------------------------------------------------------------

The optimization will be done in new redundant internal coordinates
Making redundant internal coordinates   ...  (new redundants) done
Evaluating the initial hessian          ...  (Almloef) done
Evaluating the coordinates              ...  done
Calculating the B-matrix                .... done
Calculating the G-matrix                .... done
Diagonalizing the G-matrix              .... done
The first mode is                       ....   89
The number of degrees of freedom        ....   27

    -----------------------------------------------------------------
                    Redundant Internal Coordinates


    -----------------------------------------------------------------
         Definition                    Initial Value    Approx d2E/dq
    -----------------------------------------------------------------
      1. B(Au  2,Au  1)                  2.6319         0.012632   
      2. B(Au  4,Au  0)                  2.7827         0.007261   
      3. B(Au  4,Au  3)                  2.7837         0.007235   
      4. B(Au  5,Au  1)                  2.8283         0.006141   
      5. B(Au  6,Au  4)                  2.6936         0.010073   
      6. B(Au  7,Au  1)                  2.6814         0.010533   
      7. B(Au  9,Au  2)                  2.6826         0.010488   
      8. B(Au  9,Au  1)                  2.8510         0.005650   
      9. B(Mn 10,Au  9)                  2.6275         0.093357   
     10. B(Mn 10,Au  8)                  2.4995         0.149407   
     11. B(Mn 10,Au  5)                  2.5511         0.123571   
     12. B(Mn 10,Au  7)                  2.4705         0.166160   
     13. B(Mn 10,Au  6)                  2.5416         0.127996   
     14. B(Mn 10,Au  3)                  2.7503         0.059449   
     15. B(Mn 10,Au  0)                  2.5135         0.141889   
     16. A(Au  4,Au  0,Mn 10)          100.8634         0.200154   
     17. A(Au  2,Au  1,Au  5)          113.0185         0.144194   
     18. A(Au  5,Au  1,Au  9)           70.9570         0.135005   
     19. A(Au  5,Au  1,Au  7)           64.1405         0.141970   
     20. A(Au  2,Au  1,Au  9)           58.4208         0.143164   
     21. A(Au  2,Au  1,Au  7)          143.8565         0.151364   
     22. A(Au  7,Au  1,Au  9)           89.2521         0.140981   
     23. A(Au  1,Au  2,Au  9)           64.8760         0.151303   
     24. A(Au  4,Au  3,Mn 10)           95.1880         0.180215   
     25. A(Au  0,Au  4,Au  6)           64.6035         0.143464   
     26. A(Au  0,Au  4,Au  3)           65.3416         0.139533   
     27. A(Au  3,Au  4,Au  6)           67.5244         0.143420   
     28. A(Au  1,Au  5,Mn 10)           81.6340         0.192721   
     29. A(Au  4,Au  6,Mn 10)          102.5827         0.205944   
     30. A(Au  1,Au  7,Mn 10)           86.1676         0.214319   
     31. A(Au  1,Au  9,Mn 10)           79.9144         0.184527   
     32. A(Au  2,Au  9,Mn 10)          136.6083         0.198882   
     33. A(Au  1,Au  9,Au  2)           56.7032         0.140931   
     34. A(Au  7,Mn 10,Au  8)           66.2788         0.345165   
     35. A(Au  6,Mn 10,Au  8)           63.4149         0.330473   
     36. A(Au  0,Mn 10,Au  7)          159.4532         0.342189   
     37. A(Au  5,Mn 10,Au  8)          122.2602         0.328558   
     38. A(Au  3,Mn 10,Au  8)          116.1203         0.291996   
     39. A(Au  5,Mn 10,Au  6)          126.3996         0.320317   
     40. A(Au  3,Mn 10,Au  5)           60.2940         0.283457   
     41. A(Au  0,Mn 10,Au  8)          126.1543         0.336172   
     42. A(Au  8,Mn 10,Au  9)          143.8088         0.313828   
     43. A(Au  7,Mn 10,Au  9)           99.3588         0.319302   
     44. A(Au  6,Mn 10,Au  7)          127.4373         0.336353   
     45. A(Au  3,Mn 10,Au  6)           70.1260         0.285012   
     46. A(Au  6,Mn 10,Au  9)          130.5695         0.306093   
     47. A(Au  5,Mn 10,Au  9)           79.0499         0.304371   
     48. A(Au  5,Mn 10,Au  7)           71.3152         0.334390   
     49. A(Au  3,Mn 10,Au  9)           99.7108         0.271500   
     50. A(Au  0,Mn 10,Au  9)           60.7342         0.311216   
     51. A(Au  3,Mn 10,Au  7)          122.6931         0.296938   
     52. A(Au  0,Mn 10,Au  6)           70.7708         0.327668   
     53. A(Au  0,Mn 10,Au  5)          106.9665         0.325775   
     54. A(Au  0,Mn 10,Au  3)           69.4494         0.289638   
     55. D(Au  9,Au  2,Au  1,Au  7)     29.8184         0.001504   
     56. D(Au  9,Au  2,Au  1,Au  5)    -47.3680         0.001504   
     57. D(Au  6,Au  4,Au  0,Mn 10)    -33.9110         0.001501   
     58. D(Au  6,Au  4,Au  3,Mn 10)     34.4146         0.001501   
     59. D(Au  0,Au  4,Au  3,Mn 10)    -36.8752         0.001501   
     60. D(Au  3,Au  4,Au  0,Mn 10)     41.7476         0.001501   
     61. D(Mn 10,Au  5,Au  1,Au  9)     48.2363         0.001501   
     62. D(Mn 10,Au  5,Au  1,Au  2)     89.7699         0.001501   
     63. D(Mn 10,Au  5,Au  1,Au  7)    -50.5040         0.001501   
     64. D(Mn 10,Au  6,Au  4,Au  0)     33.7240         0.001502   
     65. D(Mn 10,Au  6,Au  4,Au  3)    -38.6148         0.001502   
     66. D(Mn 10,Au  7,Au  1,Au  2)    -41.9949         0.001503   
     67. D(Mn 10,Au  7,Au  1,Au  5)     52.1982         0.001503   
     68. D(Mn 10,Au  7,Au  1,Au  9)    -16.9294         0.001503   
     69. D(Mn 10,Au  9,Au  2,Au  1)     -1.3566         0.001503   
     70. D(Au  2,Au  9,Au  1,Au  7)   -162.9438         0.001501   
     71. D(Au  2,Au  9,Au  1,Au  5)    134.2466         0.001501   
     72. D(Mn 10,Au  9,Au  1,Au  2)    179.0535         0.001501   
     73. D(Mn 10,Au  9,Au  1,Au  7)     16.1097         0.001501   
     74. D(Mn 10,Au  9,Au  1,Au  5)    -46.6999         0.001501   
     75. D(Au  7,Mn 10,Au  3,Au  4)   -158.4689         0.001514   
     76. D(Au  5,Mn 10,Au  9,Au  2)     52.1221         0.001536   
     77. D(Au  5,Mn 10,Au  3,Au  4)    165.0874         0.001514   
     78. D(Au  0,Mn 10,Au  3,Au  4)     40.1498         0.001514   
     79. D(Au  0,Mn 10,Au  9,Au  2)    168.8103         0.001536   
     80. D(Au  9,Mn 10,Au  0,Au  4)   -155.4697         0.001574   
     81. D(Au  6,Mn 10,Au  9,Au  1)   -179.9767         0.001536   
     82. D(Au  6,Mn 10,Au  3,Au  4)    -36.0528         0.001514   
     83. D(Au  7,Mn 10,Au  9,Au  2)    -16.6184         0.001536   
     84. D(Au  8,Mn 10,Au  3,Au  4)    -81.0418         0.001514   
     85. D(Au  8,Mn 10,Au  0,Au  4)     67.1117         0.001574   
     86. D(Au  8,Mn 10,Au  7,Au  1)    163.8599         0.001600   
     87. D(Au  6,Mn 10,Au  7,Au  1)   -178.3235         0.001600   
     88. D(Au  7,Mn 10,Au  0,Au  4)   -170.8942         0.001574   
     89. D(Au  6,Mn 10,Au  0,Au  4)     34.4501         0.001574   
     90. D(Au  9,Mn 10,Au  6,Au  4)    -47.4299         0.001561   
     91. D(Au  5,Mn 10,Au  0,Au  4)    -88.9619         0.001574   
     92. D(Au  7,Mn 10,Au  6,Au  4)    154.8874         0.001561   
     93. D(Au  3,Mn 10,Au  0,Au  4)    -40.8507         0.001574   
     94. D(Au  5,Mn 10,Au  6,Au  4)     61.2658         0.001561   
     95. D(Au  3,Mn 10,Au  6,Au  4)     38.3621         0.001561   
     96. D(Au  8,Mn 10,Au  6,Au  4)    173.1419         0.001561   
     97. D(Au  0,Mn 10,Au  6,Au  4)    -36.0193         0.001561   
     98. D(Au  0,Mn 10,Au  7,Au  1)     32.2754         0.001600   
     99. D(Au  3,Mn 10,Au  7,Au  1)    -89.3188         0.001600   
    100. D(Au  5,Mn 10,Au  7,Au  1)    -56.3165         0.001600   
    101. D(Au  9,Mn 10,Au  5,Au  1)    -51.1908         0.001557   
    102. D(Au  8,Mn 10,Au  5,Au  1)     97.0155         0.001557   
    103. D(Au  9,Mn 10,Au  7,Au  1)     18.6748         0.001600   
    104. D(Au  0,Mn 10,Au  9,Au  1)    167.6586         0.001536   
    105. D(Au  7,Mn 10,Au  5,Au  1)     52.7122         0.001557   
    106. D(Au  3,Mn 10,Au  9,Au  1)    107.9331         0.001536   
    107. D(Au  3,Mn 10,Au  9,Au  2)    109.0848         0.001536   
    108. D(Au  5,Mn 10,Au  9,Au  1)     50.9705         0.001536   
    109. D(Au  6,Mn 10,Au  5,Au  1)    175.9375         0.001557   
    110. D(Au  3,Mn 10,Au  5,Au  1)   -159.1406         0.001557   
    111. D(Au  6,Mn 10,Au  9,Au  2)   -178.8251         0.001536   
    112. D(Au  7,Mn 10,Au  9,Au  1)    -17.7701         0.001536   
    113. D(Au  0,Mn 10,Au  5,Au  1)   -105.7674         0.001557   
    114. D(Au  8,Mn 10,Au  9,Au  1)    -80.0458         0.001536   
    115. D(Au  8,Mn 10,Au  9,Au  2)    -78.8942         0.001536   
    116. D(Au  9,Mn 10,Au  3,Au  4)     93.7205         0.001514   
    -----------------------------------------------------------------

Number of atoms                         .... 11
Number of degrees of freedom            .... 116

         *************************************************************
         *                GEOMETRY OPTIMIZATION CYCLE   1            *
         *************************************************************
---------------------------------
CARTESIAN COORDINATES (ANGSTROEM)
---------------------------------
  Au     9.603105    7.727761    6.761217
  Au     7.648263    3.133050    7.527855
  Au     8.692084    2.844333    5.129064
  Au    10.487938    6.951098    9.525729
  Au    10.839567    9.514661    8.499465
  Au     9.328541    4.558644    9.300872
  Au     8.259071    8.969382    9.046246
  Au     6.420479    4.870158    9.160329
  Au     6.070693    7.543951    9.493654
  Au     8.820968    5.327429    6.135949
  Mn     8.043717    6.539198    8.333924

----------------------------
CARTESIAN COORDINATES (A.U.)
----------------------------
  NO LB      ZA    FRAG     MASS         X           Y           Z
   0 Au   19.0000*   0   196.966   18.147238   14.603352   12.776848
   1 Au   19.0000*   0   196.966   14.453123    5.920607   14.225584
   2 Au   19.0000*   0   196.966   16.425659    5.375011    9.692526
   3 Au   19.0000*   0   196.966   19.819330   13.135672   18.001019
   4 Au   19.0000*   0   196.966   20.483814   17.980104   16.061660
   5 Au   19.0000*   0   196.966   17.628387    8.614588   17.576101
   6 Au   19.0000*   0   196.966   15.607382   16.949675   17.094928
   7 Au   19.0000*   0   196.966   12.132947    9.203264   17.310514
   8 Au   19.0000*   0   196.966   11.471947   14.256002   17.940407
   9 Au   19.0000*   0   196.966   16.669214   10.067381   11.595263
  10 Mn   25.0000    0    54.940   15.200423   12.357293   15.748834
* core charge reduced due to ECP

--------------------------------
INTERNAL COORDINATES (ANGSTROEM)
--------------------------------
 Au     0   0   0     0.000000000000     0.00000000     0.00000000
 Au     1   0   0     5.051782186861     0.00000000     0.00000000
 Au     2   1   0     2.631941765095    78.93001546     0.00000000
 Au     1   2   3     3.004772956268    74.88477873   227.23316561
 Au     1   2   3     2.782688911679   131.39106759   216.67531722
 Au     4   1   2     2.668070475424    91.50556639     2.59739345
 Au     5   1   2     2.693559574404    64.60345758   296.46955294
 Au     2   1   3     2.681411705088    71.35862204   200.86664965
 Au     7   5   1     2.649721286201   159.13166989    50.14980217
 Au     1   2   3     2.600825315267    23.17683213    12.14654504
 Mn     8   2   1     2.470535129497    86.16760147   354.35229152

---------------------------
INTERNAL COORDINATES (A.U.)
---------------------------
 Au     0   0   0     0.000000000000     0.00000000     0.00000000
 Au     1   0   0     9.546484821389     0.00000000     0.00000000
 Au     2   1   0     4.973649136460    78.93001546     0.00000000
 Au     1   2   3     5.678197981959    74.88477873   227.23316561
 Au     1   2   3     5.258519958973   131.39106759   216.67531722
 Au     4   1   2     5.041922504552    91.50556639     2.59739345
 Au     5   1   2     5.090089921024    64.60345758   296.46955294
 Au     2   1   3     5.067133774907    71.35862204   200.86664965
 Au     7   5   1     5.007247562142   159.13166989    50.14980217
 Au     1   2   3     4.914847568024    23.17683213    12.14654504
 Mn     8   2   1     4.668634798980    86.16760147   354.35229152

---------------------
BASIS SET INFORMATION
---------------------
There are 2 groups of distinct atoms

 Group   1 Type Au  : 8s7p6d1f contracted to 6s4p3d1f pattern {311111/4111/411/1}
 Group   2 Type Mn  : 17s11p7d1f contracted to 6s4p4d1f pattern {842111/6311/4111/1}

Atom   0Au   basis set group =>   1
Atom   1Au   basis set group =>   1
Atom   2Au   basis set group =>   1
Atom   3Au   basis set group =>   1
Atom   4Au   basis set group =>   1
Atom   5Au   basis set group =>   1
Atom   6Au   basis set group =>   1
Atom   7Au   basis set group =>   1
Atom   8Au   basis set group =>   1
Atom   9Au   basis set group =>   1
Atom  10Mn   basis set group =>   2
---------------------------------
AUXILIARY/J BASIS SET INFORMATION
---------------------------------
There are 2 groups of distinct atoms

 Group   1 Type Au  : 11s5p5d3f3g contracted to 8s5p5d2f3g pattern {41111111/11111/11111/21/111}
 Group   2 Type Mn  : 19s5p5d3f3g contracted to 8s5p5d2f3g pattern {121111111/11111/11111/21/111}

Atom   0Au   basis set group =>   1
Atom   1Au   basis set group =>   1
Atom   2Au   basis set group =>   1
Atom   3Au   basis set group =>   1
Atom   4Au   basis set group =>   1
Atom   5Au   basis set group =>   1
Atom   6Au   basis set group =>   1
Atom   7Au   basis set group =>   1
Atom   8Au   basis set group =>   1
Atom   9Au   basis set group =>   1
Atom  10Mn   basis set group =>   2
-------------------------
ECP PARAMETER INFORMATION
-------------------------

 Group 1, Type Au ECP Def2-ECP (replacing 60 core electrons, lmax=3)

Atom   0Au   ECP group =>   1
Atom   1Au   ECP group =>   1
Atom   2Au   ECP group =>   1
Atom   3Au   ECP group =>   1
Atom   4Au   ECP group =>   1
Atom   5Au   ECP group =>   1
Atom   6Au   ECP group =>   1
Atom   7Au   ECP group =>   1
Atom   8Au   ECP group =>   1
Atom   9Au   ECP group =>   1

------------------------------------------------------------------------------
                           ORCA GTO INTEGRAL CALCULATION
                           -- RI-GTO INTEGRALS CHOSEN --
------------------------------------------------------------------------------
------------------------------------------------------------------------------
                   ___                                                        
                  /   \      - P O W E R E D   B Y -                         
                 /     \                                                     
                 |  |  |   _    _      __       _____    __    __             
                 |  |  |  | |  | |    /  \     |  _  \  |  |  /  |          
                  \  \/   | |  | |   /    \    | | | |  |  | /  /          
                 / \  \   | |__| |  /  /\  \   | |_| |  |  |/  /          
                |  |  |   |  __  | /  /__\  \  |    /   |      \           
                |  |  |   | |  | | |   __   |  |    \   |  |\   \          
                \     /   | |  | | |  |  |  |  | |\  \  |  | \   \       
                 \___/    |_|  |_| |__|  |__|  |_| \__\ |__|  \__/        
                                                                              
                      - O R C A' S   B I G   F R I E N D -                    
                                      &                                       
                       - I N T E G R A L  F E E D E R -                       
                                                                              
 v1 FN, 2020, v2 2021                                                         
------------------------------------------------------------------------------


Reading SHARK input file pbe.SHARKINP.tmp ... ok
----------------------
SHARK INTEGRAL PACKAGE
----------------------

Number of atoms                             ...     11
Number of basis functions                   ...    445
Number of shells                            ...    155
Maximum angular momentum                    ...      3
Integral batch strategy                     ... SHARK/LIBINT Hybrid
RI-J (if used) integral strategy            ... SPLIT-RIJ (Revised 2003 algorithm where possible)
Printlevel                                  ...      1
Contraction scheme used                     ... SEGMENTED contraction
Coulomb Range Separation                    ... NOT USED
Exchange Range Separation                   ... NOT USED
Finite Nucleus Model                        ... NOT USED
Auxiliary Coulomb fitting basis             ... AVAILABLE
   # of basis functions in Aux-J            ...    979
   # of shells in Aux-J                     ...    253
   Maximum angular momentum in Aux-J        ...      4
Auxiliary J/K fitting basis                 ... NOT available
Auxiliary Correlation fitting basis         ... NOT available
Auxiliary 'external' fitting basis          ... NOT available
Integral threshold                          ...     2.500000e-11
Primitive cut-off                           ...     2.500000e-12
Primitive pair pre-selection threshold      ...     2.500000e-12

Calculating pre-screening integrals         ... done (  0.4 sec) Dimension = 155
Organizing shell pair data                  ... done (  0.8 sec)
Shell pair information
Total number of shell pairs                 ...     12090
Shell pairs after pre-screening             ...      9742
Total number of primitive shell pairs       ...     33105
Primitive shell pairs kept                  ...     19724
          la=0 lb=0:   1537 shell pairs
          la=1 lb=0:   2233 shell pairs
          la=1 lb=1:    837 shell pairs
          la=2 lb=0:   1921 shell pairs
          la=2 lb=1:   1353 shell pairs
          la=2 lb=2:    562 shell pairs
          la=3 lb=0:    522 shell pairs
          la=3 lb=1:    386 shell pairs
          la=3 lb=2:    334 shell pairs
          la=3 lb=3:     57 shell pairs

Calculating one electron integrals          ... done (  0.1 sec)
Calculating ECP integrals                   ... done (  5.3 sec)
Calculating RI/J V-Matrix + Cholesky decomp.... done (  0.2 sec)
Calculating Nuclear repulsion               ... done (  0.0 sec) ENN=   3081.615315603557 Eh

SHARK setup successfully completed in   7.8 seconds

Maximum memory used throughout the entire GTOINT-calculation: 290.1 MB
-------------------------------------------------------------------------------
                                 ORCA SCF
-------------------------------------------------------------------------------

------------
SCF SETTINGS
------------
Hamiltonian:
 Density Functional     Method          .... DFT(GTOs)
 Exchange Functional    Exchange        .... PBE
   PBE kappa parameter   XKappa         ....  0.804000
   PBE mue parameter    XMuePBE         ....  0.219520
 Correlation Functional Correlation     .... PBE
   PBE beta parameter  CBetaPBE         ....  0.066725
 LDA part of GGA corr.  LDAOpt          .... PW91-LDA
 Gradients option       PostSCFGGA      .... off
   Density functional embedding theory  .... OFF
   NL short-range parameter             ....  6.400000
 RI-approximation to the Coulomb term is turned on
   Number of AuxJ basis functions       .... 979


General Settings:
 Integral files         IntName         .... pbe
 Hartree-Fock type      HFTyp           .... UHF
 Total Charge           Charge          ....    0
 Multiplicity           Mult            ....    4
 Number of Electrons    NEL             ....  215
 Basis Dimension        Dim             ....  445
 Nuclear Repulsion      ENuc            ....   3081.6153156036 Eh

Convergence Acceleration:
 DIIS                   CNVDIIS         .... off
 Trust-Rad. Augm. Hess. CNVTRAH         .... auto
   Auto Start mean grad. ratio tolernc. ....  1.125000
   Auto Start start iteration           ....    20
   Auto Start num. interpolation iter.  ....    10
   Max. Number of Micro iterations      ....    16
   Max. Number of Macro iterations      .... Maxiter - #DIIS iter
   Number of Davidson start vectors     ....     2
   Converg. threshold I  (grad. norm)   ....   1.000e-05
   Converg. threshold II (energy diff.) ....   1.000e-08
   Grad. Scal. Fac. for Micro threshold ....   0.100
   Minimum threshold for Micro iter.    ....   0.010
   NR start threshold (gradient norm)   ....   0.001
   Initial trust radius                 ....   0.400
   Minimum AH scaling param. (alpha)    ....   1.000
   Maximum AH scaling param. (alpha)    .... 1000.000
   Orbital update algorithm             .... Taylor
   White noise on init. David. guess    .... on
   Maximum white noise                  ....   0.010
   Quad. conv. algorithm                .... NR
 SOSCF                  CNVSOSCF        .... off
 Level Shifting         CNVShift        .... off
 Zerner damping         CNVZerner       .... off
 Static damping         CNVDamp         .... off
 Fernandez-Rico         CNVRico         .... off

SCF Procedure:
 Maximum # iterations   MaxIter         ....   125
 SCF integral mode      SCFMode         .... Direct
   Integral package                     .... SHARK and LIBINT hybrid scheme
 Reset frequency        DirectResetFreq ....    20
 Integral Threshold     Thresh          ....  2.500e-11 Eh
 Primitive CutOff       TCut            ....  2.500e-12 Eh

Convergence Tolerance:
 Convergence Check Mode ConvCheckMode   .... Total+1el-Energy
 Convergence forced     ConvForced      .... 0
 Energy Change          TolE            ....  1.000e-08 Eh
 1-El. energy change                    ....  1.000e-05 Eh


Diagonalization of the overlap matrix:
Smallest eigenvalue                        ... 4.507e-04
Time for diagonalization                   ...    0.050 sec
Threshold for overlap eigenvalues          ... 1.000e-08
Number of eigenvalues below threshold      ... 0
Time for construction of square roots      ...    0.040 sec
Total time needed                          ...    0.091 sec

Time for model grid setup =    1.207 sec

------------------------------
INITIAL GUESS: MODEL POTENTIAL
------------------------------
Loading Hartree-Fock densities                     ... done
  calling /home/ehlert/src/miniconda3/envs/orca500/Programs/ORCA501/orca pbe_atom79.inp > pbe_atom79.out in order to generate an atomic fitting density for atom 0 (Au with ECP) on-the-fly... 
    atom 0 (Au), assumed electronic state with S=2: 1s2 2s2 2p6 3s2 3p6 4s2 3d10 4p6 5s2 4d10 5p6 6s1 4f14 5d10           ... done
Calculating cut-offs                               ... done
Initializing the effective Hamiltonian             ... done
Setting up the integral package (SHARK)            ... done
Starting the Coulomb interaction                   ... done (   1.4 sec)
Reading the grid                                   ... done
Mapping shells                                     ... done
Starting the XC term evaluation                    ... done (   1.8 sec)
  promolecular density results
     # of electrons  =    815.012485863
     EX              =  -3708.822136609
     EC              =    -49.492463472
     EX+EC           =  -3758.314600081
Transforming the Hamiltonian                       ... done (   0.0 sec)
Diagonalizing the Hamiltonian                      ... done (   0.1 sec)
Back transforming the eigenvectors                 ... done (   0.0 sec)
Now organizing SCF variables                       ... done
                      ------------------
                      INITIAL GUESS DONE (   5.8 sec)
                      ------------------
-------------------
DFT GRID GENERATION
-------------------

General Integration Accuracy     IntAcc      ... 4.388
Radial Grid Type                 RadialGrid  ... OptM3 with GC (2021)
Angular Grid (max. ang.)         AngularGrid ... 4 (Lebedev-302)
Angular grid pruning method      GridPruning ... 4 (adaptive)
Weight generation scheme         WeightScheme... Becke
Basis function cutoff            BFCut       ... 1.0000e-11
Integration weight cutoff        WCut        ... 1.0000e-14
Angular grids for H and He will be reduced by one unit
Partially contracted basis set               ... off
Rotationally invariant grid construction     ... off

Total number of grid points                  ...   123745
Total number of batches                      ...     1939
Average number of points per batch           ...       63
Average number of grid points per atom       ...    11250
Time for grid setup =    3.026 sec

--------------
SCF ITERATIONS
--------------
ITER       Energy         Delta-E        Max-DP      RMS-DP      [F,P]   Gradient Norm
               ***  Starting incremental Fock matrix formation  ***
                             ****Resetting KDIIS****
                             ****Turning on KDIIS(Cayley)****
  0  -2507.5167798773   0.000000000000 0.16368281  0.00119329  0.3372853   0.212337334
  1  -2508.3677150147  -0.850935137402 0.14500712  0.00109997  0.3015702   0.162461201
  2  -2508.6943659242  -0.326650909547 0.09868999  0.00109350  0.2380438   0.122982228
  3  -2508.8635400342  -0.169174109960 0.13798729  0.00145364  0.1393023   0.071676894
  4  -2508.9393231802  -0.075783145989 0.02562740  0.00039036  0.0118713   0.011496542
  5  -2508.9515013600  -0.012178179768 0.03916119  0.00041750  0.0071657   0.007145982
  6  -2508.9584443604  -0.006943000448 0.01844708  0.00021109  0.0177160   0.007804062
  7  -2508.9646648220  -0.006220461605 0.02098207  0.00025328  0.0073196   0.003983107
  8  -2508.9666789230  -0.002014101020 0.01315018  0.00013847  0.0078701   0.006366197
  9  -2508.9705247086  -0.003845785542 0.01274782  0.00015130  0.0089193   0.001789068
 10  -2508.9733542876  -0.002829578999 0.00690625  0.00007754  0.0084066   0.002401128
 11  -2508.9749434895  -0.001589201967 0.00677005  0.00007685  0.0089959   0.001558387
 12  -2508.9765965933  -0.001653103782 0.00137537  0.00001056  0.0091840   0.001573282
 13  -2508.9765108668   0.000085726542 0.00354750  0.00003690  0.0098330   0.001514506
 14  -2508.9757014081   0.000809458679 0.00560312  0.00004161  0.0101730   0.001586194
 15  -2508.9752690596   0.000432348503 0.01216069  0.00014372  0.0106223   0.001896509
 16  -2508.9724175664   0.002851493234 0.01126863  0.00013059  0.0079955   0.001956970
 17  -2508.9747061494  -0.002288583082 0.01672981  0.00008548  0.0093891   0.002237540
 18  -2508.9747546350  -0.000048485571 0.00883791  0.00006550  0.0088703   0.002615238
 19  -2508.9756833770  -0.000928742008 0.00597988  0.00006857  0.0123651   0.002359438
               *** Restarting incremental Fock matrix formation ***
                             ****Resetting KDIIS****

 WARNING: the maximum gradient error descreased on average only by a factor   1.0
          during the last 20 iterations

                      *** Initiating the TRAH-SCF procedure ***

                    *** KDIIS BlockDiag ( 0.108 sec) ***

TRAH GRID
---------

General Integration Accuracy     IntAcc      ... 3.467
Radial Grid Type                 RadialGrid  ... OptM3 with GC (2021)
Angular Grid (max. ang.)         AngularGrid ... 1 (Lebedev-50)
Angular grid pruning method      GridPruning ... 4 (adaptive)
Weight generation scheme         WeightScheme... Becke
Basis function cutoff            BFCut       ... 1.0000e-11
Integration weight cutoff        WCut        ... 1.0000e-14
Angular grids for H and He will be reduced by one unit
Partially contracted basis set               ... off
Rotationally invariant grid construction     ... off

Total number of grid points                  ...    53432
Total number of batches                      ...      839
Average number of points per batch           ...       63
Average number of grid points per atom       ...     4857

 --------------------------------------------------------------------------------------------
   Iter.        energy            ||Error||_2        Shift      TRadius  Mac/Mic        Rej.
 --------------------------------------------------------------------------------------------
WARNING: 1 diagonal Hessian elements are negative!
    0      -2508.976985979311     2.368049e-02                     0.400 (TRAH MAcro)   No
WARNING : small    HOMO - LUMO gap : (op = alpha) 0.006627
WARNING : negative HOMO - LUMO gap : (op =  beta) -0.016657
    0     dE    -1.357550e-04     7.362207e-02    -1.3575e-04      0.006 (TRAH MIcro)
    0     dE    -4.979390e-03     6.774520e-02    -7.6541e-03      0.400 (TRAH MIcro)
    0     dE    -5.908864e-03     9.088761e-02    -1.2360e-02      0.400 (TRAH MIcro)
    0     dE    -6.964174e-03     6.336514e-02    -1.8171e-02      0.400 (TRAH MIcro)
    0     dE    -7.973514e-03     5.322833e-02    -2.3315e-02      0.400 (TRAH MIcro)
    0     dE    -8.904824e-03     5.374126e-02    -2.6835e-02      0.400 (TRAH MIcro)
    0     dE    -1.011266e-02     6.189255e-02    -3.1193e-02      0.399 (TRAH MIcro)
    0     dE    -1.258709e-02     6.166436e-02    -3.9161e-02      0.396 (TRAH MIcro)
    0     dE    -1.412896e-02     4.252826e-02    -5.7778e-02      0.360 (TRAH MIcro)
    0     dE    -1.582781e-02     2.107026e-02    -6.2159e-02      0.374 (TRAH MIcro)
    0     dE    -1.634904e-02     1.182432e-02    -6.3380e-02      0.378 (TRAH MIcro)
    0     dE    -1.646514e-02     6.694514e-03    -6.3690e-02      0.379 (TRAH MIcro)
    0     dE    -1.651270e-02     2.358192e-03    -6.3773e-02      0.380 (TRAH MIcro)
    1      -2508.992037210081     3.425777e-02                     0.480 (TRAH MAcro)   No
WARNING : small    HOMO - LUMO gap : (op = alpha) 0.010984
WARNING : small    HOMO - LUMO gap : (op =  beta) 0.009094
    1     dE    -3.750023e-04     4.905050e-02    -3.7496e-04      0.011 (TRAH MIcro)
    1     dE    -1.080486e-02     1.545665e-01    -9.4913e-03      0.480 (TRAH MIcro)
    1     dE    -1.587765e-02     3.824193e-02    -2.8845e-02      0.480 (TRAH MIcro)
    1     dE    -1.690386e-02     2.218257e-02    -3.2022e-02      0.480 (TRAH MIcro)
    1     dE    -1.732834e-02     1.295302e-02    -3.3395e-02      0.480 (TRAH MIcro)
    1     dE    -1.741574e-02     6.500674e-03    -3.3661e-02      0.480 (TRAH MIcro)
    1     dE    -1.665532e-02     3.507820e-03    -3.5882e-02      0.456 (TRAH MIcro)
    1     dE    -1.665373e-02     1.226877e-03    -3.5895e-02      0.456 (TRAH MIcro)
    2      -2509.006771923274     2.985120e-02                     0.576 (TRAH MAcro)   No
WARNING : small    HOMO - LUMO gap : (op = alpha) 0.014382
    2     dE    -2.121531e-04     2.702519e-02    -2.1214e-04      0.007 (TRAH MIcro)
    2     dE    -3.217962e-03     4.215651e-02    -3.0357e-03      0.245 (TRAH MIcro)
    2     dE    -4.085299e-03     1.955147e-02    -3.7118e-03      0.317 (TRAH MIcro)
    2     dE    -4.270949e-03     1.145905e-02    -3.8562e-03      0.328 (TRAH MIcro)
    2     dE    -4.391553e-03     6.952694e-03    -3.9507e-03      0.334 (TRAH MIcro)
    2     dE    -4.423198e-03     3.718048e-03    -3.9748e-03      0.336 (TRAH MIcro)
    2     dE    -4.433706e-03     2.358601e-03    -3.9821e-03      0.337 (TRAH MIcro)
    3      -2509.010890901537     1.857718e-02                     0.691 (TRAH MAcro)   No
WARNING : small    HOMO - LUMO gap : (op = alpha) 0.014850
    3     dE    -7.704225e-05     1.566501e-02    -7.7041e-05      0.004 (TRAH MIcro)
    3     dE    -1.454886e-04     5.486626e-03    -1.4546e-04      0.015 (TRAH MIcro)
    3     dE    -1.722231e-04     3.481617e-03    -1.7212e-04      0.025 (TRAH MIcro)
    3     dE    -1.823388e-04     1.905825e-03    -1.8218e-04      0.030 (TRAH MIcro)
    3     dE    -1.838551e-04     8.476508e-04    -1.8367e-04      0.031 (TRAH MIcro)
    4      -2509.011074514314     8.908653e-04                           (NR   MAcro)
WARNING : small    HOMO - LUMO gap : (op = alpha) 0.015876
    4     dE    -6.738324e-07     6.713699e-04                           (NR   MIcro)
    4     dE    -9.989036e-07     5.675195e-04                           (NR   MIcro)
    4     dE    -1.146867e-06     2.354911e-04                           (NR   MIcro)
    4     dE    -1.167714e-06     1.216864e-04                           (NR   MIcro)
    4     dE    -1.175506e-06     6.651940e-05                           (NR   MIcro)
    4     dE    -1.177640e-06     3.150474e-05                           (NR   MIcro)
    4     dE    -1.178234e-06     1.829480e-05                           (NR   MIcro)
    4     dE    -1.178437e-06     9.292979e-06                           (NR   MIcro)
    4     dE    -1.178480e-06     3.956970e-06                           (NR   MIcro)
    5      -2509.011075692280     6.194970e-06                           (NR   MAcro)
WARNING : small    HOMO - LUMO gap : (op = alpha) 0.015864
    5     dE    -1.327345e-11     3.324729e-06                           (NR   MIcro)
    5     dE    -1.983940e-11     2.075643e-06                           (NR   MIcro)
    5     dE    -2.421910e-11     1.519377e-06                           (NR   MIcro)
    5     dE    -2.527559e-11     7.149718e-07                           (NR   MIcro)
    6      -2509.011075692304     7.148712e-07                           (NR   MAcro)
WARNING : small    HOMO - LUMO gap : (op = alpha) 0.015864

               *****************************************************
               *                     SUCCESS                       *
               *           SCF CONVERGED AFTER  73 CYCLES          *
               *****************************************************


----------------
TOTAL SCF ENERGY
----------------

Total Energy       :        -2509.01107569 Eh          -68273.66234 eV

Components:
Nuclear Repulsion  :         3081.61531560 Eh           83855.01584 eV
Electronic Energy  :        -5590.62639130 Eh         -152128.67818 eV
One Electron Energy:       -10128.21707517 Eh         -275602.79799 eV
Two Electron Energy:         4537.59068388 Eh          123474.11981 eV

Virial components:
Potential Energy   :        -4116.03281185 Eh         -112002.94693 eV
Kinetic Energy     :         1607.02173616 Eh           43729.28459 eV
Virial Ratio       :            2.56128011


DFT components:
N(Alpha)           :      109.000016376633 electrons
N(Beta)            :      106.000016160780 electrons
N(Total)           :      215.000032537412 electrons
E(X)               :     -171.346779951472 Eh       
E(C)               :       -9.331204511741 Eh       
E(XC)              :     -180.677984463213 Eh       
DFET-embed. en.    :        0.000000000000 Eh       

---------------
SCF CONVERGENCE
---------------

  Last Energy change         ...   -2.4102e-11  Tolerance :   1.0000e-08
  Last Orbital Gradient      ...    7.1487e-07  Tolerance :   1.0000e-05
  Last Orbital Rotation      ...    1.4591e-05

             **** THE GBW FILE WAS UPDATED (pbe.gbw) ****
             **** DENSITY pbe.scfp WAS UPDATED ****
             **** ENERGY FILE WAS UPDATED (pbe.en.tmp) ****
----------------------
UHF SPIN CONTAMINATION
----------------------

Warning: in a DFT calculation there is little theoretical justification to 
         calculate <S**2> as in Hartree-Fock theory. We will do it anyways
         but you should keep in mind that the values have only limited relevance

Expectation value of <S**2>     :     5.022005
Ideal value S*(S+1) for S=1.5   :     3.750000
Deviation                       :     1.272005

             **** THE GBW FILE WAS UPDATED (pbe.gbw) ****
             **** DENSITY pbe.scfp WAS UPDATED ****
----------------
ORBITAL ENERGIES
----------------
                 SPIN UP ORBITALS
  NO   OCC          E(Eh)            E(eV) 
   0   1.0000    -234.199189     -6372.8839 
   1   1.0000     -26.898739      -731.9519 
   2   1.0000     -23.049014      -627.1956 
   3   1.0000     -23.047072      -627.1427 
   4   1.0000     -23.046238      -627.1200 
   5   1.0000      -4.034506      -109.7845 
   6   1.0000      -4.034055      -109.7722 
   7   1.0000      -4.029444      -109.6468 
   8   1.0000      -4.026539      -109.5677 
   9   1.0000      -4.024475      -109.5115 
  10   1.0000      -4.022456      -109.4566 
  11   1.0000      -4.021384      -109.4274 
  12   1.0000      -4.020237      -109.3962 
  13   1.0000      -4.019387      -109.3731 
  14   1.0000      -4.003452      -108.9395 
  15   1.0000      -3.104233       -84.4705 
  16   1.0000      -2.254060       -61.3361 
  17   1.0000      -2.253856       -61.3305 
  18   1.0000      -2.249029       -61.1992 
  19   1.0000      -2.248891       -61.1954 
  20   1.0000      -2.248721       -61.1908 
  21   1.0000      -2.245084       -61.0918 
  22   1.0000      -2.243811       -61.0572 
  23   1.0000      -2.243176       -61.0399 
  24   1.0000      -2.242174       -61.0127 
  25   1.0000      -2.242065       -61.0097 
  26   1.0000      -2.240013       -60.9539 
  27   1.0000      -2.238718       -60.9186 
  28   1.0000      -2.238080       -60.9013 
  29   1.0000      -2.237249       -60.8786 
  30   1.0000      -2.236956       -60.8707 
  31   1.0000      -2.236248       -60.8514 
  32   1.0000      -2.235387       -60.8280 
  33   1.0000      -2.235149       -60.8215 
  34   1.0000      -2.234259       -60.7973 
  35   1.0000      -2.232496       -60.7493 
  36   1.0000      -2.232462       -60.7484 
  37   1.0000      -2.231829       -60.7312 
  38   1.0000      -2.230641       -60.6988 
  39   1.0000      -2.230396       -60.6922 
  40   1.0000      -2.228361       -60.6368 
  41   1.0000      -2.227222       -60.6058 
  42   1.0000      -2.226576       -60.5882 
  43   1.0000      -2.222129       -60.4672 
  44   1.0000      -2.216928       -60.3257 
  45   1.0000      -2.209899       -60.1344 
  46   1.0000      -2.010378       -54.7052 
  47   1.0000      -2.005691       -54.5776 
  48   1.0000      -2.004553       -54.5467 
  49   1.0000      -0.413032       -11.2392 
  50   1.0000      -0.383952       -10.4479 
  51   1.0000      -0.381626       -10.3846 
  52   1.0000      -0.374850       -10.2002 
  53   1.0000      -0.371603       -10.1118 
  54   1.0000      -0.365760        -9.9528 
  55   1.0000      -0.363143        -9.8816 
  56   1.0000      -0.349605        -9.5132 
  57   1.0000      -0.346871        -9.4388 
  58   1.0000      -0.342946        -9.3320 
  59   1.0000      -0.342204        -9.3118 
  60   1.0000      -0.337502        -9.1839 
  61   1.0000      -0.332308        -9.0426 
  62   1.0000      -0.331085        -9.0093 
  63   1.0000      -0.327643        -8.9156 
  64   1.0000      -0.323489        -8.8026 
  65   1.0000      -0.321658        -8.7528 
  66   1.0000      -0.317171        -8.6307 
  67   1.0000      -0.313257        -8.5242 
  68   1.0000      -0.311904        -8.4873 
  69   1.0000      -0.308064        -8.3828 
  70   1.0000      -0.305871        -8.3232 
  71   1.0000      -0.303019        -8.2456 
  72   1.0000      -0.300981        -8.1901 
  73   1.0000      -0.298006        -8.1092 
  74   1.0000      -0.291966        -7.9448 
  75   1.0000      -0.288038        -7.8379 
  76   1.0000      -0.287271        -7.8171 
  77   1.0000      -0.283650        -7.7185 
  78   1.0000      -0.283473        -7.7137 
  79   1.0000      -0.280247        -7.6259 
  80   1.0000      -0.280165        -7.6237 
  81   1.0000      -0.276361        -7.5202 
  82   1.0000      -0.275467        -7.4958 
  83   1.0000      -0.274004        -7.4560 
  84   1.0000      -0.272922        -7.4266 
  85   1.0000      -0.270989        -7.3740 
  86   1.0000      -0.268104        -7.2955 
  87   1.0000      -0.266317        -7.2469 
  88   1.0000      -0.264538        -7.1985 
  89   1.0000      -0.263649        -7.1742 
  90   1.0000      -0.261455        -7.1146 
  91   1.0000      -0.259162        -7.0521 
  92   1.0000      -0.256864        -6.9896 
  93   1.0000      -0.255285        -6.9467 
  94   1.0000      -0.252838        -6.8801 
  95   1.0000      -0.252303        -6.8655 
  96   1.0000      -0.249289        -6.7835 
  97   1.0000      -0.247984        -6.7480 
  98   1.0000      -0.247133        -6.7248 
  99   1.0000      -0.244996        -6.6667 
 100   1.0000      -0.243272        -6.6198 
 101   1.0000      -0.242448        -6.5973 
 102   1.0000      -0.241548        -6.5729 
 103   1.0000      -0.235895        -6.4190 
 104   1.0000      -0.232248        -6.3198 
 105   1.0000      -0.230872        -6.2823 
 106   1.0000      -0.224593        -6.1115 
 107   1.0000      -0.219540        -5.9740 
 108   1.0000      -0.209865        -5.7107 
 109   0.0000      -0.194001        -5.2790 
 110   0.0000      -0.163823        -4.4579 
 111   0.0000      -0.133725        -3.6388 
 112   0.0000      -0.127313        -3.4644 
 113   0.0000      -0.117362        -3.1936 
 114   0.0000      -0.099124        -2.6973 
 115   0.0000      -0.074718        -2.0332 
 116   0.0000      -0.061967        -1.6862 
 117   0.0000      -0.053089        -1.4446 
 118   0.0000      -0.050471        -1.3734 
 119   0.0000      -0.044417        -1.2087 
 120   0.0000      -0.033235        -0.9044 
 121   0.0000      -0.031305        -0.8518 
 122   0.0000      -0.012783        -0.3478 
 123   0.0000      -0.010523        -0.2864 
 124   0.0000       0.004132         0.1124 
 125   0.0000       0.016796         0.4571 
 126   0.0000       0.022106         0.6015 
 127   0.0000       0.029519         0.8033 
 128   0.0000       0.039220         1.0672 
 129   0.0000       0.047094         1.2815 
 130   0.0000       0.050433         1.3723 
 131   0.0000       0.058090         1.5807 
 132   0.0000       0.061732         1.6798 
 133   0.0000       0.064389         1.7521 
 134   0.0000       0.066582         1.8118 
 135   0.0000       0.068956         1.8764 
 136   0.0000       0.076443         2.0801 
 137   0.0000       0.083309         2.2669 
 138   0.0000       0.091956         2.5022 
 139   0.0000       0.094669         2.5761 
 140   0.0000       0.109878         2.9899 
 141   0.0000       0.114145         3.1061 
 142   0.0000       0.114646         3.1197 
 143   0.0000       0.124740         3.3943 
 144   0.0000       0.136283         3.7084 
 145   0.0000       0.146111         3.9759 
 146   0.0000       0.148340         4.0365 
 147   0.0000       0.155917         4.2427 
 148   0.0000       0.162963         4.4345 
 149   0.0000       0.172338         4.6896 
 150   0.0000       0.177133         4.8200 
 151   0.0000       0.186271         5.0687 
 152   0.0000       0.188476         5.1287 
 153   0.0000       0.200452         5.4546 
 154   0.0000       0.209285         5.6949 
 155   0.0000       0.213194         5.8013 
 156   0.0000       0.222726         6.0607 
 157   0.0000       0.225347         6.1320 
 158   0.0000       0.231305         6.2941 
 159   0.0000       0.232801         6.3348 
 160   0.0000       0.241435         6.5698 
 161   0.0000       0.248822         6.7708 
 162   0.0000       0.252883         6.8813 
 163   0.0000       0.259060         7.0494 
 164   0.0000       0.265830         7.2336 
 165   0.0000       0.271286         7.3821 
 166   0.0000       0.279150         7.5961 
 167   0.0000       0.280548         7.6341 
 168   0.0000       0.286054         7.7839 
 169   0.0000       0.291002         7.9186 
 170   0.0000       0.292510         7.9596 
 171   0.0000       0.302317         8.2265 
 172   0.0000       0.309031         8.4092 
 173   0.0000       0.310207         8.4412 
 174   0.0000       0.317189         8.6312 
 175   0.0000       0.320650         8.7253 
 176   0.0000       0.329378         8.9628 
 177   0.0000       0.332288         9.0420 
 178   0.0000       0.336970         9.1694 
 179   0.0000       0.337890         9.1945 
 180   0.0000       0.344164         9.3652 
 181   0.0000       0.349599         9.5131 
 182   0.0000       0.353890         9.6298 
 183   0.0000       0.359497         9.7824 
 184   0.0000       0.368707        10.0330 
 185   0.0000       0.372242        10.1292 
 186   0.0000       0.379453        10.3254 
 187   0.0000       0.386082        10.5058 
 188   0.0000       0.390634        10.6297 
 189   0.0000       0.394172        10.7260 
 190   0.0000       0.398054        10.8316 
 191   0.0000       0.402087        10.9413 
 192   0.0000       0.407528        11.0894 
 193   0.0000       0.409505        11.1432 
 194   0.0000       0.424383        11.5480 
 195   0.0000       0.425997        11.5920 
 196   0.0000       0.432767        11.7762 
 197   0.0000       0.439698        11.9648 
 198   0.0000       0.447506        12.1773 
 199   0.0000       0.449579        12.2337 
 200   0.0000       0.458321        12.4715 
 201   0.0000       0.461189        12.5496 
 202   0.0000       0.473023        12.8716 
 203   0.0000       0.484444        13.1824 
 204   0.0000       0.489888        13.3305 
 205   0.0000       0.492123        13.3913 
 206   0.0000       0.497182        13.5290 
 207   0.0000       0.505099        13.7444 
 208   0.0000       0.509078        13.8527 
 209   0.0000       0.518662        14.1135 
 210   0.0000       0.526962        14.3394 
 211   0.0000       0.536366        14.5953 
 212   0.0000       0.551033        14.9944 
 213   0.0000       0.552927        15.0459 
 214   0.0000       0.596330        16.2270 
 215   0.0000       0.600674        16.3452 
 216   0.0000       0.608989        16.5714 
 217   0.0000       0.630231        17.1495 
 218   0.0000       0.645527        17.5657 
 219   0.0000       0.655476        17.8364 
 220   0.0000       0.665192        18.1008 
 221   0.0000       0.669703        18.2236 
 222   0.0000       0.689226        18.7548 
 223   0.0000       0.704891        19.1811 
 224   0.0000       0.712194        19.3798 
 225   0.0000       0.728061        19.8115 
 226   0.0000       0.749184        20.3863 
 227   0.0000       0.765779        20.8379 
 228   0.0000       0.778829        21.1930 
 229   0.0000       0.795174        21.6378 
 230   0.0000       0.808593        22.0029 
 231   0.0000       0.822953        22.3937 
 232   0.0000       0.829295        22.5663 
 233   0.0000       0.838513        22.8171 
 234   0.0000       0.843086        22.9415 
 235   0.0000       0.863598        23.4997 
 236   0.0000       0.871852        23.7243 
 237   0.0000       0.876218        23.8431 
 238   0.0000       0.891542        24.2601 
 239   0.0000       0.902544        24.5595 
 240   0.0000       0.913699        24.8630 
 241   0.0000       0.932613        25.3777 
 242   0.0000       0.938956        25.5503 
 243   0.0000       0.969127        26.3713 
 244   0.0000       0.983745        26.7691 
 245   0.0000       1.001457        27.2510 
 246   0.0000       1.052131        28.6299 
 247   0.0000       1.070748        29.1365 
 248   0.0000       1.099082        29.9075 
 249   0.0000       1.201851        32.7040 
 250   0.0000       1.223891        33.3038 
 251   0.0000       1.236872        33.6570 
 252   0.0000       1.267730        34.4967 
 253   0.0000       1.275559        34.7097 
 254   0.0000       1.294913        35.2364 
 255   0.0000       1.299265        35.3548 
 256   0.0000       1.307504        35.5790 
 257   0.0000       1.311451        35.6864 
 258   0.0000       1.323586        36.0166 
 259   0.0000       1.334887        36.3241 
 260   0.0000       1.345638        36.6167 
 261   0.0000       1.350549        36.7503 
 262   0.0000       1.360623        37.0244 
 263   0.0000       1.365875        37.1673 
 264   0.0000       1.372589        37.3500 
 265   0.0000       1.381621        37.5958 
 266   0.0000       1.382960        37.6322 
 267   0.0000       1.391029        37.8518 
 268   0.0000       1.395855        37.9831 
 269   0.0000       1.405338        38.2412 
 270   0.0000       1.410346        38.3775 
 271   0.0000       1.414692        38.4957 
 272   0.0000       1.422175        38.6993 
 273   0.0000       1.423646        38.7394 
 274   0.0000       1.429887        38.9092 
 275   0.0000       1.434956        39.0471 
 276   0.0000       1.442275        39.2463 
 277   0.0000       1.444693        39.3121 
 278   0.0000       1.446523        39.3619 
 279   0.0000       1.451768        39.5046 
 280   0.0000       1.454761        39.5861 
 281   0.0000       1.461144        39.7597 
 282   0.0000       1.462062        39.7847 
 283   0.0000       1.465339        39.8739 
 284   0.0000       1.467202        39.9246 
 285   0.0000       1.473062        40.0841 
 286   0.0000       1.475465        40.1494 
 287   0.0000       1.477734        40.2112 
 288   0.0000       1.479686        40.2643 
 289   0.0000       1.483529        40.3689 
 290   0.0000       1.484120        40.3850 
 291   0.0000       1.485738        40.4290 
 292   0.0000       1.489181        40.5227 
 293   0.0000       1.490925        40.5701 
 294   0.0000       1.492262        40.6065 
 295   0.0000       1.494959        40.6799 
 296   0.0000       1.496821        40.7306 
 297   0.0000       1.497072        40.7374 
 298   0.0000       1.498563        40.7780 
 299   0.0000       1.501715        40.8637 
 300   0.0000       1.504258        40.9330 
 301   0.0000       1.506439        40.9923 
 302   0.0000       1.507084        41.0098 
 303   0.0000       1.508429        41.0465 
 304   0.0000       1.512656        41.1615 
 305   0.0000       1.513668        41.1890 
 306   0.0000       1.514524        41.2123 
 307   0.0000       1.516882        41.2764 
 308   0.0000       1.520136        41.3650 
 309   0.0000       1.521675        41.4069 
 310   0.0000       1.522689        41.4345 
 311   0.0000       1.526499        41.5381 
 312   0.0000       1.527931        41.5771 
 313   0.0000       1.531361        41.6704 
 314   0.0000       1.532208        41.6935 
 315   0.0000       1.535184        41.7745 
 316   0.0000       1.536754        41.8172 
 317   0.0000       1.539267        41.8856 
 318   0.0000       1.540651        41.9232 
 319   0.0000       1.541155        41.9370 
 320   0.0000       1.543534        42.0017 
 321   0.0000       1.546483        42.0819 
 322   0.0000       1.549129        42.1540 
 323   0.0000       1.551869        42.2285 
 324   0.0000       1.553783        42.2806 
 325   0.0000       1.556403        42.3519 
 326   0.0000       1.559475        42.4355 
 327   0.0000       1.560229        42.4560 
 328   0.0000       1.564191        42.5638 
 329   0.0000       1.565820        42.6081 
 330   0.0000       1.567845        42.6632 
 331   0.0000       1.572914        42.8012 
 332   0.0000       1.577276        42.9199 
 333   0.0000       1.578031        42.9404 
 334   0.0000       1.580061        42.9956 
 335   0.0000       1.586882        43.1812 
 336   0.0000       1.589661        43.2569 
 337   0.0000       1.592517        43.3346 
 338   0.0000       1.595245        43.4088 
 339   0.0000       1.599538        43.5256 
 340   0.0000       1.603980        43.6465 
 341   0.0000       1.608491        43.7693 
 342   0.0000       1.610862        43.8338 
 343   0.0000       1.616585        43.9895 
 344   0.0000       1.620572        44.0980 
 345   0.0000       1.626582        44.2615 
 346   0.0000       1.631081        44.3840 
 347   0.0000       1.638651        44.5900 
 348   0.0000       1.648571        44.8599 
 349   0.0000       1.663648        45.2702 
 350   0.0000       1.668094        45.3911 
 351   0.0000       1.674729        45.5717 
 352   0.0000       1.686141        45.8822 
 353   0.0000       1.697869        46.2014 
 354   0.0000       1.708304        46.4853 
 355   0.0000       1.725813        46.9618 
 356   0.0000       1.728426        47.0328 
 357   0.0000       1.782426        48.5023 
 358   0.0000       1.791399        48.7464 
 359   0.0000       1.804253        49.0962 
 360   0.0000       1.813949        49.3601 
 361   0.0000       1.832463        49.8638 
 362   0.0000       1.844667        50.1959 
 363   0.0000       1.858304        50.5670 
 364   0.0000       1.877265        51.0830 
 365   0.0000       1.899701        51.6935 
 366   0.0000       1.907792        51.9136 
 367   0.0000       1.934650        52.6445 
 368   0.0000       1.965968        53.4967 
 369   0.0000       1.985257        54.0216 
 370   0.0000       2.048985        55.7557 
 371   0.0000       2.105025        57.2806 
 372   0.0000       2.150902        58.5290 
 373   0.0000       2.202063        59.9212 
 374   0.0000       2.237989        60.8988 
 375   0.0000       2.295224        62.4562 
 376   0.0000       2.353457        64.0408 
 377   0.0000       2.364399        64.3386 
 378   0.0000       2.428310        66.0777 
 379   0.0000       2.448329        66.6224 
 380   0.0000       2.487065        67.6765 
 381   0.0000       2.543871        69.2223 
 382   0.0000       2.829219        76.9870 
 383   0.0000       3.194342        86.9225 
 384   0.0000       3.228357        87.8480 
 385   0.0000       3.238819        88.1328 
 386   0.0000       3.244046        88.2750 
 387   0.0000       3.252530        88.5058 
 388   0.0000       3.258682        88.6733 
 389   0.0000       3.274121        89.0934 
 390   0.0000       3.305674        89.9520 
 391   0.0000       3.344279        91.0025 
 392   0.0000       3.396105        92.4127 
 393   0.0000       3.454173        93.9928 
 394   0.0000       3.504443        95.3608 
 395   0.0000      23.435267       637.7060 
 396   0.0000      23.637450       643.2077 
 397   0.0000      23.974600       652.3820 
 398   0.0000      24.003674       653.1732 
 399   0.0000      24.216056       658.9524 
 400   0.0000      24.289264       660.9445 
 401   0.0000      24.416635       664.4104 
 402   0.0000      24.682991       671.6583 
 403   0.0000      25.017005       680.7473 
 404   0.0000      25.086821       682.6471 
 405   0.0000      25.307615       688.6552 
 406   0.0000      25.374044       690.4628 
 407   0.0000      25.630496       697.4413 
 408   0.0000      25.833270       702.9590 
 409   0.0000      25.870396       703.9693 
 410   0.0000      26.092024       710.0001 
 411   0.0000      26.326463       716.3795 
 412   0.0000      26.505328       721.2466 
 413   0.0000      26.567454       722.9372 
 414   0.0000      26.801438       729.3042 
 415   0.0000      26.898110       731.9348 
 416   0.0000      27.043287       735.8853 
 417   0.0000      27.271106       742.0845 
 418   0.0000      27.428121       746.3571 
 419   0.0000      27.615410       751.4535 
 420   0.0000      27.877171       758.5764 
 421   0.0000      28.205896       767.5214 
 422   0.0000      28.368990       771.9595 
 423   0.0000      28.475021       774.8447 
 424   0.0000      29.042642       790.2905 
 425   0.0000      43.859496      1193.4776 
 426   0.0000      43.916410      1195.0263 
 427   0.0000      43.944059      1195.7786 
 428   0.0000      43.999527      1197.2880 
 429   0.0000      44.047370      1198.5899 
 430   0.0000      44.055855      1198.8208 
 431   0.0000      44.100104      1200.0248 
 432   0.0000      44.135089      1200.9768 
 433   0.0000      44.149487      1201.3686 
 434   0.0000      44.213549      1203.1118 
 435   0.0000     205.075934      5580.3999 
 436   0.0000     205.102452      5581.1215 
 437   0.0000     205.103705      5581.1556 
 438   0.0000     205.129870      5581.8675 
 439   0.0000     205.151878      5582.4664 
 440   0.0000     205.153998      5582.5241 
 441   0.0000     205.170121      5582.9628 
 442   0.0000     205.186514      5583.4089 
 443   0.0000     205.193589      5583.6014 
 444   0.0000     205.215509      5584.1979 

                 SPIN DOWN ORBITALS
  NO   OCC          E(Eh)            E(eV) 
   0   1.0000    -234.198451     -6372.8639 
   1   1.0000     -26.836392      -730.2554 
   2   1.0000     -23.001948      -625.9148 
   3   1.0000     -23.000235      -625.8682 
   4   1.0000     -22.998038      -625.8084 
   5   1.0000      -4.033551      -109.7585 
   6   1.0000      -4.033378      -109.7538 
   7   1.0000      -4.028376      -109.6177 
   8   1.0000      -4.025390      -109.5364 
   9   1.0000      -4.023666      -109.4895 
  10   1.0000      -4.022117      -109.4474 
  11   1.0000      -4.021444      -109.4291 
  12   1.0000      -4.019861      -109.3860 
  13   1.0000      -4.019751      -109.3830 
  14   1.0000      -4.003812      -108.9493 
  15   1.0000      -2.951732       -80.3207 
  16   1.0000      -2.253302       -61.3155 
  17   1.0000      -2.251966       -61.2791 
  18   1.0000      -2.248289       -61.1790 
  19   1.0000      -2.248144       -61.1751 
  20   1.0000      -2.247550       -61.1589 
  21   1.0000      -2.243461       -61.0477 
  22   1.0000      -2.242420       -61.0194 
  23   1.0000      -2.241733       -61.0006 
  24   1.0000      -2.241048       -60.9820 
  25   1.0000      -2.240935       -60.9789 
  26   1.0000      -2.239032       -60.9272 
  27   1.0000      -2.238692       -60.9179 
  28   1.0000      -2.237869       -60.8955 
  29   1.0000      -2.237647       -60.8895 
  30   1.0000      -2.236703       -60.8638 
  31   1.0000      -2.235926       -60.8426 
  32   1.0000      -2.234735       -60.8102 
  33   1.0000      -2.234213       -60.7960 
  34   1.0000      -2.233640       -60.7804 
  35   1.0000      -2.232867       -60.7594 
  36   1.0000      -2.232634       -60.7531 
  37   1.0000      -2.231510       -60.7225 
  38   1.0000      -2.230808       -60.7034 
  39   1.0000      -2.229248       -60.6609 
  40   1.0000      -2.228828       -60.6495 
  41   1.0000      -2.227095       -60.6023 
  42   1.0000      -2.225702       -60.5644 
  43   1.0000      -2.222533       -60.4782 
  44   1.0000      -2.217340       -60.3369 
  45   1.0000      -2.210219       -60.1431 
  46   1.0000      -1.862853       -50.6908 
  47   1.0000      -1.857902       -50.5561 
  48   1.0000      -1.851107       -50.3712 
  49   1.0000      -0.407547       -11.0899 
  50   1.0000      -0.381779       -10.3887 
  51   1.0000      -0.379222       -10.3192 
  52   1.0000      -0.370931       -10.0935 
  53   1.0000      -0.366923        -9.9845 
  54   1.0000      -0.361516        -9.8373 
  55   1.0000      -0.358054        -9.7431 
  56   1.0000      -0.344743        -9.3809 
  57   1.0000      -0.342412        -9.3175 
  58   1.0000      -0.338082        -9.1997 
  59   1.0000      -0.334858        -9.1119 
  60   1.0000      -0.333192        -9.0666 
  61   1.0000      -0.329294        -8.9605 
  62   1.0000      -0.326464        -8.8835 
  63   1.0000      -0.322093        -8.7646 
  64   1.0000      -0.320665        -8.7257 
  65   1.0000      -0.315685        -8.5902 
  66   1.0000      -0.313475        -8.5301 
  67   1.0000      -0.313208        -8.5228 
  68   1.0000      -0.309666        -8.4264 
  69   1.0000      -0.305071        -8.3014 
  70   1.0000      -0.303193        -8.2503 
  71   1.0000      -0.301008        -8.1908 
  72   1.0000      -0.299542        -8.1509 
  73   1.0000      -0.295123        -8.0307 
  74   1.0000      -0.289726        -7.8839 
  75   1.0000      -0.287186        -7.8147 
  76   1.0000      -0.286620        -7.7993 
  77   1.0000      -0.283453        -7.7132 
  78   1.0000      -0.282138        -7.6774 
  79   1.0000      -0.280668        -7.6374 
  80   1.0000      -0.279518        -7.6061 
  81   1.0000      -0.275744        -7.5034 
  82   1.0000      -0.274903        -7.4805 
  83   1.0000      -0.273892        -7.4530 
  84   1.0000      -0.272534        -7.4160 
  85   1.0000      -0.270361        -7.3569 
  86   1.0000      -0.268257        -7.2996 
  87   1.0000      -0.266041        -7.2394 
  88   1.0000      -0.264389        -7.1944 
  89   1.0000      -0.263188        -7.1617 
  90   1.0000      -0.260746        -7.0953 
  91   1.0000      -0.259464        -7.0604 
  92   1.0000      -0.255824        -6.9613 
  93   1.0000      -0.254956        -6.9377 
  94   1.0000      -0.252368        -6.8673 
  95   1.0000      -0.252133        -6.8609 
  96   1.0000      -0.248514        -6.7624 
  97   1.0000      -0.246963        -6.7202 
  98   1.0000      -0.244518        -6.6537 
  99   1.0000      -0.242457        -6.5976 
 100   1.0000      -0.240633        -6.5480 
 101   1.0000      -0.235983        -6.4214 
 102   1.0000      -0.228603        -6.2206 
 103   1.0000      -0.222568        -6.0564 
 104   1.0000      -0.210920        -5.7394 
 105   1.0000      -0.181878        -4.9492 
 106   0.0000      -0.150242        -4.0883 
 107   0.0000      -0.143930        -3.9165 
 108   0.0000      -0.136813        -3.7229 
 109   0.0000      -0.132183        -3.5969 
 110   0.0000      -0.127569        -3.4713 
 111   0.0000      -0.121677        -3.3110 
 112   0.0000      -0.115999        -3.1565 
 113   0.0000      -0.109552        -2.9811 
 114   0.0000      -0.093712        -2.5500 
 115   0.0000      -0.072101        -1.9620 
 116   0.0000      -0.060423        -1.6442 
 117   0.0000      -0.052179        -1.4199 
 118   0.0000      -0.047155        -1.2831 
 119   0.0000      -0.045697        -1.2435 
 120   0.0000      -0.032849        -0.8939 
 121   0.0000      -0.030508        -0.8302 
 122   0.0000      -0.012512        -0.3405 
 123   0.0000      -0.010527        -0.2865 
 124   0.0000       0.004306         0.1172 
 125   0.0000       0.014049         0.3823 
 126   0.0000       0.022039         0.5997 
 127   0.0000       0.029431         0.8009 
 128   0.0000       0.037736         1.0269 
 129   0.0000       0.046490         1.2651 
 130   0.0000       0.047827         1.3014 
 131   0.0000       0.056083         1.5261 
 132   0.0000       0.060760         1.6534 
 133   0.0000       0.062061         1.6888 
 134   0.0000       0.064857         1.7649 
 135   0.0000       0.067313         1.8317 
 136   0.0000       0.075177         2.0457 
 137   0.0000       0.080526         2.1912 
 138   0.0000       0.091570         2.4918 
 139   0.0000       0.092169         2.5081 
 140   0.0000       0.107679         2.9301 
 141   0.0000       0.112177         3.0525 
 142   0.0000       0.113842         3.0978 
 143   0.0000       0.133494         3.6326 
 144   0.0000       0.142333         3.8731 
 145   0.0000       0.144921         3.9435 
 146   0.0000       0.151714         4.1284 
 147   0.0000       0.153297         4.1714 
 148   0.0000       0.166043         4.5183 
 149   0.0000       0.173632         4.7248 
 150   0.0000       0.181370         4.9353 
 151   0.0000       0.190505         5.1839 
 152   0.0000       0.191028         5.1981 
 153   0.0000       0.203253         5.5308 
 154   0.0000       0.209488         5.7004 
 155   0.0000       0.211134         5.7453 
 156   0.0000       0.221971         6.0402 
 157   0.0000       0.225984         6.1493 
 158   0.0000       0.229671         6.2497 
 159   0.0000       0.231345         6.2952 
 160   0.0000       0.239254         6.5104 
 161   0.0000       0.247023         6.7219 
 162   0.0000       0.251185         6.8351 
 163   0.0000       0.257115         6.9965 
 164   0.0000       0.265174         7.2157 
 165   0.0000       0.268856         7.3159 
 166   0.0000       0.276861         7.5338 
 167   0.0000       0.278954         7.5907 
 168   0.0000       0.283727         7.7206 
 169   0.0000       0.288520         7.8510 
 170   0.0000       0.291545         7.9333 
 171   0.0000       0.300910         8.1882 
 172   0.0000       0.305039         8.3005 
 173   0.0000       0.311552         8.4778 
 174   0.0000       0.315278         8.5791 
 175   0.0000       0.316974         8.6253 
 176   0.0000       0.327159         8.9025 
 177   0.0000       0.329035         8.9535 
 178   0.0000       0.334553         9.1036 
 179   0.0000       0.336699         9.1620 
 180   0.0000       0.341723         9.2987 
 181   0.0000       0.347900         9.4668 
 182   0.0000       0.350462         9.5366 
 183   0.0000       0.356571         9.7028 
 184   0.0000       0.365527         9.9465 
 185   0.0000       0.370032        10.0691 
 186   0.0000       0.377147        10.2627 
 187   0.0000       0.384093        10.4517 
 188   0.0000       0.388433        10.5698 
 189   0.0000       0.392200        10.6723 
 190   0.0000       0.396091        10.7782 
 191   0.0000       0.398889        10.8543 
 192   0.0000       0.405093        11.0231 
 193   0.0000       0.409555        11.1446 
 194   0.0000       0.422109        11.4862 
 195   0.0000       0.424406        11.5487 
 196   0.0000       0.431992        11.7551 
 197   0.0000       0.437451        11.9036 
 198   0.0000       0.445501        12.1227 
 199   0.0000       0.448558        12.2059 
 200   0.0000       0.455783        12.4025 
 201   0.0000       0.460875        12.5410 
 202   0.0000       0.471714        12.8360 
 203   0.0000       0.484092        13.1728 
 204   0.0000       0.487778        13.2731 
 205   0.0000       0.491070        13.3627 
 206   0.0000       0.495015        13.4701 
 207   0.0000       0.502808        13.6821 
 208   0.0000       0.507070        13.7981 
 209   0.0000       0.517269        14.0756 
 210   0.0000       0.523854        14.2548 
 211   0.0000       0.535524        14.5723 
 212   0.0000       0.549198        14.9444 
 213   0.0000       0.551218        14.9994 
 214   0.0000       0.597690        16.2640 
 215   0.0000       0.609535        16.5863 
 216   0.0000       0.618734        16.8366 
 217   0.0000       0.637952        17.3596 
 218   0.0000       0.647881        17.6297 
 219   0.0000       0.660717        17.9790 
 220   0.0000       0.668609        18.1938 
 221   0.0000       0.675397        18.3785 
 222   0.0000       0.688620        18.7383 
 223   0.0000       0.707249        19.2452 
 224   0.0000       0.722536        19.6612 
 225   0.0000       0.730694        19.8832 
 226   0.0000       0.754429        20.5291 
 227   0.0000       0.769858        20.9489 
 228   0.0000       0.786100        21.3909 
 229   0.0000       0.798357        21.7244 
 230   0.0000       0.810388        22.0518 
 231   0.0000       0.824684        22.4408 
 232   0.0000       0.828884        22.5551 
 233   0.0000       0.840524        22.8718 
 234   0.0000       0.845781        23.0149 
 235   0.0000       0.867136        23.5960 
 236   0.0000       0.872297        23.7364 
 237   0.0000       0.877085        23.8667 
 238   0.0000       0.897751        24.4291 
 239   0.0000       0.914279        24.8788 
 240   0.0000       0.920619        25.0513 
 241   0.0000       0.938340        25.5335 
 242   0.0000       0.949889        25.8478 
 243   0.0000       0.976233        26.5646 
 244   0.0000       0.998952        27.1829 
 245   0.0000       1.007562        27.4171 
 246   0.0000       1.065345        28.9895 
 247   0.0000       1.073853        29.2210 
 248   0.0000       1.105915        30.0935 
 249   0.0000       1.201199        32.6863 
 250   0.0000       1.223291        33.2874 
 251   0.0000       1.235367        33.6160 
 252   0.0000       1.267043        34.4780 
 253   0.0000       1.274582        34.6831 
 254   0.0000       1.293712        35.2037 
 255   0.0000       1.297755        35.3137 
 256   0.0000       1.307331        35.5743 
 257   0.0000       1.310747        35.6672 
 258   0.0000       1.322619        35.9903 
 259   0.0000       1.334331        36.3090 
 260   0.0000       1.344581        36.5879 
 261   0.0000       1.350912        36.7602 
 262   0.0000       1.359836        37.0030 
 263   0.0000       1.365253        37.1504 
 264   0.0000       1.372528        37.3484 
 265   0.0000       1.381388        37.5895 
 266   0.0000       1.382402        37.6171 
 267   0.0000       1.390776        37.8449 
 268   0.0000       1.396050        37.9885 
 269   0.0000       1.404143        38.2087 
 270   0.0000       1.409322        38.3496 
 271   0.0000       1.414336        38.4860 
 272   0.0000       1.422938        38.7201 
 273   0.0000       1.423735        38.7418 
 274   0.0000       1.431436        38.9514 
[...]
  62( 2) :    -0.321032 a.u.    -8.736 eV
  63( 2) :    -0.319819 a.u.    -8.703 eV
  64( 2) :    -0.315801 a.u.    -8.593 eV
  65( 2) :    -0.313621 a.u.    -8.534 eV
  66( 2) :    -0.312555 a.u.    -8.505 eV
  67( 2) :    -0.310718 a.u.    -8.455 eV
  68( 2) :    -0.308029 a.u.    -8.382 eV
  69( 2) :    -0.305201 a.u.    -8.305 eV
  70( 2) :    -0.300589 a.u.    -8.179 eV
  71( 2) :    -0.297220 a.u.    -8.088 eV
  72( 2) :    -0.294961 a.u.    -8.026 eV
  73( 2) :    -0.291398 a.u.    -7.929 eV
  74( 2) :    -0.290343 a.u.    -7.901 eV
  75( 2) :    -0.285864 a.u.    -7.779 eV
  76( 2) :    -0.284945 a.u.    -7.754 eV
  77( 2) :    -0.283651 a.u.    -7.719 eV
  78( 2) :    -0.279015 a.u.    -7.592 eV
  79( 2) :    -0.275403 a.u.    -7.494 eV
  80( 2) :    -0.274219 a.u.    -7.462 eV
  81( 2) :    -0.273604 a.u.    -7.445 eV
  82( 2) :    -0.272324 a.u.    -7.410 eV
  83( 2) :    -0.271799 a.u.    -7.396 eV
  84( 2) :    -0.269819 a.u.    -7.342 eV
  85( 2) :    -0.268185 a.u.    -7.298 eV
  86( 2) :    -0.266578 a.u.    -7.254 eV
  87( 2) :    -0.264110 a.u.    -7.187 eV
  88( 2) :    -0.262439 a.u.    -7.141 eV
  89( 2) :    -0.262294 a.u.    -7.137 eV
  90( 2) :    -0.260178 a.u.    -7.080 eV
  91( 2) :    -0.259432 a.u.    -7.059 eV
  92( 2) :    -0.256869 a.u.    -6.990 eV
  93( 2) :    -0.253894 a.u.    -6.909 eV
  94( 2) :    -0.252710 a.u.    -6.877 eV
  95( 2) :    -0.250264 a.u.    -6.810 eV
  96( 2) :    -0.248296 a.u.    -6.756 eV
  97( 2) :    -0.247215 a.u.    -6.727 eV
  98( 2) :    -0.244432 a.u.    -6.651 eV
  99( 2) :    -0.240316 a.u.    -6.539 eV
 100( 2) :    -0.239311 a.u.    -6.512 eV
 101( 2) :    -0.235731 a.u.    -6.415 eV
 102( 2) :    -0.232414 a.u.    -6.324 eV
 103( 2) :    -0.217311 a.u.    -5.913 eV
 104( 2) :    -0.185980 a.u.    -5.061 eV
 105( 2) :    -0.169491 a.u.    -4.612 eV
 106( 1) :    -0.191706 a.u.    -5.217 eV alpha=   -7.033 beta=   -3.400
 107( 1) :    -0.188186 a.u.    -5.121 eV alpha=   -6.912 beta=   -3.329
 108( 1) :    -0.187098 a.u.    -5.091 eV alpha=   -6.865 beta=   -3.318
 109( 0) :    -0.202829 a.u.    -5.519 eV
 110( 0) :    -0.182685 a.u.    -4.971 eV
 111( 0) :    -0.134415 a.u.    -3.658 eV
 112( 0) :    -0.128035 a.u.    -3.484 eV
 113( 0) :    -0.123504 a.u.    -3.361 eV
 114( 0) :    -0.097370 a.u.    -2.650 eV
 115( 0) :    -0.077180 a.u.    -2.100 eV
 116( 0) :    -0.059265 a.u.    -1.613 eV
 117( 0) :    -0.053361 a.u.    -1.452 eV
 118( 0) :    -0.045882 a.u.    -1.248 eV
 119( 0) :    -0.044337 a.u.    -1.206 eV
 120( 0) :    -0.033862 a.u.    -0.921 eV
 121( 0) :    -0.028219 a.u.    -0.768 eV
 122( 0) :    -0.021204 a.u.    -0.577 eV
 123( 0) :    -0.014543 a.u.    -0.396 eV
 124( 0) :    -0.002733 a.u.    -0.074 eV
 125( 0) :     0.016023 a.u.     0.436 eV
 126( 0) :     0.026634 a.u.     0.725 eV
 127( 0) :     0.034226 a.u.     0.931 eV
 128( 0) :     0.039126 a.u.     1.065 eV
 129( 0) :     0.041229 a.u.     1.122 eV
 130( 0) :     0.050211 a.u.     1.366 eV
 131( 0) :     0.055979 a.u.     1.523 eV
 132( 0) :     0.057908 a.u.     1.576 eV
 133( 0) :     0.061207 a.u.     1.666 eV
 134( 0) :     0.064442 a.u.     1.754 eV
 135( 0) :     0.069809 a.u.     1.900 eV
 136( 0) :     0.080117 a.u.     2.180 eV
 137( 0) :     0.086180 a.u.     2.345 eV
 138( 0) :     0.093369 a.u.     2.541 eV
 139( 0) :     0.095734 a.u.     2.605 eV
 140( 0) :     0.102584 a.u.     2.791 eV
 141( 0) :     0.106926 a.u.     2.910 eV
 142( 0) :     0.116130 a.u.     3.160 eV
 143( 0) :     0.130886 a.u.     3.562 eV
 144( 0) :     0.140262 a.u.     3.817 eV
 145( 0) :     0.144562 a.u.     3.934 eV
 146( 0) :     0.149510 a.u.     4.068 eV
 147( 0) :     0.153182 a.u.     4.168 eV
 148( 0) :     0.156288 a.u.     4.253 eV
 149( 0) :     0.172352 a.u.     4.690 eV
 150( 0) :     0.179172 a.u.     4.876 eV
 151( 0) :     0.186707 a.u.     5.081 eV
 152( 0) :     0.192050 a.u.     5.226 eV
 153( 0) :     0.195568 a.u.     5.322 eV
 154( 0) :     0.203364 a.u.     5.534 eV
 155( 0) :     0.216025 a.u.     5.878 eV
 156( 0) :     0.216839 a.u.     5.900 eV
 157( 0) :     0.220877 a.u.     6.010 eV
 158( 0) :     0.228284 a.u.     6.212 eV
 159( 0) :     0.236159 a.u.     6.426 eV
 160( 0) :     0.243905 a.u.     6.637 eV
 161( 0) :     0.247838 a.u.     6.744 eV
 162( 0) :     0.251658 a.u.     6.848 eV
 163( 0) :     0.262031 a.u.     7.130 eV
 164( 0) :     0.267068 a.u.     7.267 eV
 165( 0) :     0.274357 a.u.     7.466 eV
 166( 0) :     0.281051 a.u.     7.648 eV
 167( 0) :     0.282738 a.u.     7.694 eV
 168( 0) :     0.289988 a.u.     7.891 eV
 169( 0) :     0.292296 a.u.     7.954 eV
 170( 0) :     0.299565 a.u.     8.152 eV
 171( 0) :     0.304586 a.u.     8.288 eV
 172( 0) :     0.311318 a.u.     8.471 eV
 173( 0) :     0.319208 a.u.     8.686 eV
 174( 0) :     0.320964 a.u.     8.734 eV
 175( 0) :     0.325732 a.u.     8.864 eV
 176( 0) :     0.326059 a.u.     8.873 eV
 177( 0) :     0.330480 a.u.     8.993 eV
 178( 0) :     0.332025 a.u.     9.035 eV
 179( 0) :     0.337859 a.u.     9.194 eV
 180( 0) :     0.345525 a.u.     9.402 eV
 181( 0) :     0.348815 a.u.     9.492 eV
 182( 0) :     0.356940 a.u.     9.713 eV
 183( 0) :     0.360578 a.u.     9.812 eV
 184( 0) :     0.366351 a.u.     9.969 eV
 185( 0) :     0.369408 a.u.    10.052 eV
 186( 0) :     0.378202 a.u.    10.291 eV
 187( 0) :     0.381774 a.u.    10.389 eV
 188( 0) :     0.387671 a.u.    10.549 eV
 189( 0) :     0.390878 a.u.    10.636 eV
 190( 0) :     0.399924 a.u.    10.882 eV
 191( 0) :     0.400577 a.u.    10.900 eV
 192( 0) :     0.409615 a.u.    11.146 eV
 193( 0) :     0.416508 a.u.    11.334 eV
 194( 0) :     0.419897 a.u.    11.426 eV
 195( 0) :     0.426010 a.u.    11.592 eV
 196( 0) :     0.439519 a.u.    11.960 eV
 197( 0) :     0.443119 a.u.    12.058 eV
 198( 0) :     0.448804 a.u.    12.213 eV
 199( 0) :     0.450561 a.u.    12.260 eV
 200( 0) :     0.458058 a.u.    12.464 eV
 201( 0) :     0.463479 a.u.    12.612 eV
 202( 0) :     0.470711 a.u.    12.809 eV
 203( 0) :     0.478144 a.u.    13.011 eV
 204( 0) :     0.479768 a.u.    13.055 eV
 205( 0) :     0.489550 a.u.    13.321 eV
 206( 0) :     0.492999 a.u.    13.415 eV
 207( 0) :     0.509636 a.u.    13.868 eV
 208( 0) :     0.511912 a.u.    13.930 eV
 209( 0) :     0.518934 a.u.    14.121 eV
 210( 0) :     0.526250 a.u.    14.320 eV
 211( 0) :     0.532786 a.u.    14.498 eV
 212( 0) :     0.538425 a.u.    14.651 eV
 213( 0) :     0.552786 a.u.    15.042 eV
 214( 0) :     0.581673 a.u.    15.828 eV
 215( 0) :     0.601496 a.u.    16.368 eV
 216( 0) :     0.610322 a.u.    16.608 eV
 217( 0) :     0.614606 a.u.    16.724 eV
 218( 0) :     0.630284 a.u.    17.151 eV
 219( 0) :     0.646298 a.u.    17.587 eV
 220( 0) :     0.673519 a.u.    18.327 eV
 221( 0) :     0.679666 a.u.    18.495 eV
 222( 0) :     0.688842 a.u.    18.744 eV
 223( 0) :     0.693677 a.u.    18.876 eV
 224( 0) :     0.704292 a.u.    19.165 eV
 225( 0) :     0.717619 a.u.    19.527 eV
 226( 0) :     0.725746 a.u.    19.749 eV
 227( 0) :     0.738649 a.u.    20.100 eV
 228( 0) :     0.752122 a.u.    20.466 eV
 229( 0) :     0.767027 a.u.    20.872 eV
 230( 0) :     0.799811 a.u.    21.764 eV
 231( 0) :     0.815594 a.u.    22.193 eV
 232( 0) :     0.826185 a.u.    22.482 eV
 233( 0) :     0.848979 a.u.    23.102 eV
 234( 0) :     0.860643 a.u.    23.419 eV
 235( 0) :     0.865848 a.u.    23.561 eV
 236( 0) :     0.877829 a.u.    23.887 eV
 237( 0) :     0.893712 a.u.    24.319 eV
 238( 0) :     0.900280 a.u.    24.498 eV
 239( 0) :     0.904265 a.u.    24.606 eV
 240( 0) :     0.915693 a.u.    24.917 eV
 241( 0) :     0.929004 a.u.    25.279 eV
 242( 0) :     0.934228 a.u.    25.422 eV
 243( 0) :     0.951928 a.u.    25.903 eV
 244( 0) :     0.966639 a.u.    26.304 eV
 245( 0) :     0.979300 a.u.    26.648 eV
 246( 0) :     1.007161 a.u.    27.406 eV
 247( 0) :     1.031878 a.u.    28.079 eV
 248( 0) :     1.098243 a.u.    29.885 eV
 249( 0) :     1.203404 a.u.    32.746 eV
 250( 0) :     1.221529 a.u.    33.239 eV
 251( 0) :     1.251263 a.u.    34.049 eV
 252( 0) :     1.267615 a.u.    34.494 eV
 253( 0) :     1.273847 a.u.    34.663 eV
 254( 0) :     1.283888 a.u.    34.936 eV
 255( 0) :     1.285726 a.u.    34.986 eV
 256( 0) :     1.297778 a.u.    35.314 eV
 257( 0) :     1.317965 a.u.    35.864 eV
 258( 0) :     1.327114 a.u.    36.113 eV
 259( 0) :     1.329251 a.u.    36.171 eV
 260( 0) :     1.351577 a.u.    36.778 eV
 261( 0) :     1.354872 a.u.    36.868 eV
 262( 0) :     1.364104 a.u.    37.119 eV
 263( 0) :     1.375715 a.u.    37.435 eV
 264( 0) :     1.377251 a.u.    37.477 eV
 265( 0) :     1.384587 a.u.    37.677 eV
 266( 0) :     1.390583 a.u.    37.840 eV
 267( 0) :     1.392892 a.u.    37.903 eV
 268( 0) :     1.399533 a.u.    38.083 eV
 269( 0) :     1.406617 a.u.    38.276 eV
 270( 0) :     1.408361 a.u.    38.323 eV
 271( 0) :     1.411809 a.u.    38.417 eV
 272( 0) :     1.416145 a.u.    38.535 eV
 273( 0) :     1.423853 a.u.    38.745 eV
 274( 0) :     1.433160 a.u.    38.998 eV
 275( 0) :     1.435159 a.u.    39.053 eV
 276( 0) :     1.445684 a.u.    39.339 eV
 277( 0) :     1.451225 a.u.    39.490 eV
 278( 0) :     1.454759 a.u.    39.586 eV
 279( 0) :     1.456608 a.u.    39.636 eV
 280( 0) :     1.458569 a.u.    39.690 eV
 281( 0) :     1.462043 a.u.    39.784 eV
 282( 0) :     1.464960 a.u.    39.864 eV
 283( 0) :     1.466831 a.u.    39.915 eV
 284( 0) :     1.473857 a.u.    40.106 eV
 285( 0) :     1.474705 a.u.    40.129 eV
 286( 0) :     1.477625 a.u.    40.208 eV
 287( 0) :     1.479899 a.u.    40.270 eV
 288( 0) :     1.482018 a.u.    40.328 eV
 289( 0) :     1.483882 a.u.    40.378 eV
 290( 0) :     1.484974 a.u.    40.408 eV
 291( 0) :     1.486685 a.u.    40.455 eV
 292( 0) :     1.487961 a.u.    40.489 eV
 293( 0) :     1.488745 a.u.    40.511 eV
 294( 0) :     1.490714 a.u.    40.564 eV
 295( 0) :     1.495822 a.u.    40.703 eV
 296( 0) :     1.496243 a.u.    40.715 eV
 297( 0) :     1.499103 a.u.    40.793 eV
 298( 0) :     1.500882 a.u.    40.841 eV
 299( 0) :     1.502406 a.u.    40.883 eV
 300( 0) :     1.504930 a.u.    40.951 eV
 301( 0) :     1.506388 a.u.    40.991 eV
 302( 0) :     1.507421 a.u.    41.019 eV
 303( 0) :     1.509883 a.u.    41.086 eV
 304( 0) :     1.513629 a.u.    41.188 eV
 305( 0) :     1.514713 a.u.    41.217 eV
 306( 0) :     1.517962 a.u.    41.306 eV
 307( 0) :     1.519826 a.u.    41.357 eV
 308( 0) :     1.521178 a.u.    41.393 eV
 309( 0) :     1.522750 a.u.    41.436 eV
 310( 0) :     1.524217 a.u.    41.476 eV
 311( 0) :     1.525179 a.u.    41.502 eV
 312( 0) :     1.527222 a.u.    41.558 eV
 313( 0) :     1.529749 a.u.    41.627 eV
 314( 0) :     1.532462 a.u.    41.700 eV
 315( 0) :     1.534732 a.u.    41.762 eV
 316( 0) :     1.536604 a.u.    41.813 eV
 317( 0) :     1.538032 a.u.    41.852 eV
 318( 0) :     1.540477 a.u.    41.919 eV
 319( 0) :     1.542029 a.u.    41.961 eV
 320( 0) :     1.543593 a.u.    42.003 eV
 321( 0) :     1.547193 a.u.    42.101 eV
 322( 0) :     1.548380 a.u.    42.134 eV
 323( 0) :     1.549506 a.u.    42.164 eV
 324( 0) :     1.551150 a.u.    42.209 eV
 325( 0) :     1.553457 a.u.    42.272 eV
 326( 0) :     1.554996 a.u.    42.314 eV
 327( 0) :     1.556667 a.u.    42.359 eV
 328( 0) :     1.562133 a.u.    42.508 eV
 329( 0) :     1.564647 a.u.    42.576 eV
 330( 0) :     1.565805 a.u.    42.608 eV
 331( 0) :     1.568024 a.u.    42.668 eV
 332( 0) :     1.572367 a.u.    42.786 eV
 333( 0) :     1.573427 a.u.    42.815 eV
 334( 0) :     1.577582 a.u.    42.928 eV
 335( 0) :     1.580666 a.u.    43.012 eV
 336( 0) :     1.584566 a.u.    43.118 eV
 337( 0) :     1.589644 a.u.    43.256 eV
 338( 0) :     1.593519 a.u.    43.362 eV
 339( 0) :     1.595956 a.u.    43.428 eV
 340( 0) :     1.600283 a.u.    43.546 eV
 341( 0) :     1.603621 a.u.    43.637 eV
 342( 0) :     1.606087 a.u.    43.704 eV
 343( 0) :     1.612655 a.u.    43.883 eV
 344( 0) :     1.614419 a.u.    43.931 eV
 345( 0) :     1.616549 a.u.    43.989 eV
 346( 0) :     1.623442 a.u.    44.176 eV
 347( 0) :     1.624756 a.u.    44.212 eV
 348( 0) :     1.630667 a.u.    44.373 eV
 349( 0) :     1.638669 a.u.    44.590 eV
 350( 0) :     1.649797 a.u.    44.893 eV
 351( 0) :     1.659708 a.u.    45.163 eV
 352( 0) :     1.669410 a.u.    45.427 eV
 353( 0) :     1.677081 a.u.    45.636 eV
 354( 0) :     1.691792 a.u.    46.036 eV
 355( 0) :     1.697145 a.u.    46.182 eV
 356( 0) :     1.716752 a.u.    46.715 eV
 357( 0) :     1.734312 a.u.    47.193 eV
 358( 0) :     1.753101 a.u.    47.704 eV
 359( 0) :     1.804495 a.u.    49.103 eV
 360( 0) :     1.815269 a.u.    49.396 eV
 361( 0) :     1.821200 a.u.    49.557 eV
 362( 0) :     1.846214 a.u.    50.238 eV
 363( 0) :     1.847752 a.u.    50.280 eV
 364( 0) :     1.858451 a.u.    50.571 eV
 365( 0) :     1.903095 a.u.    51.786 eV
 366( 0) :     1.918566 a.u.    52.207 eV
 367( 0) :     1.938010 a.u.    52.736 eV
 368( 0) :     1.962786 a.u.    53.410 eV
 369( 0) :     2.006599 a.u.    54.602 eV
 370( 0) :     2.038000 a.u.    55.457 eV
 371( 0) :     2.085451 a.u.    56.748 eV
 372( 0) :     2.183152 a.u.    59.407 eV
 373( 0) :     2.219439 a.u.    60.394 eV
 374( 0) :     2.273081 a.u.    61.854 eV
 375( 0) :     2.302418 a.u.    62.652 eV
 376( 0) :     2.350928 a.u.    63.972 eV
 377( 0) :     2.383208 a.u.    64.850 eV
 378( 0) :     2.445764 a.u.    66.553 eV
 379( 0) :     2.450352 a.u.    66.677 eV
 380( 0) :     2.492512 a.u.    67.825 eV
 381( 0) :     2.517628 a.u.    68.508 eV
 382( 0) :     2.812114 a.u.    76.522 eV
 383( 0) :     3.213426 a.u.    87.442 eV
 384( 0) :     3.225058 a.u.    87.758 eV
 385( 0) :     3.236501 a.u.    88.070 eV
 386( 0) :     3.243934 a.u.    88.272 eV
 387( 0) :     3.246230 a.u.    88.334 eV
 388( 0) :     3.252301 a.u.    88.500 eV
 389( 0) :     3.260593 a.u.    88.725 eV
 390( 0) :     3.282709 a.u.    89.327 eV
 391( 0) :     3.291028 a.u.    89.553 eV
 392( 0) :     3.352690 a.u.    91.231 eV
 393( 0) :     3.401258 a.u.    92.553 eV
 394( 0) :     3.448138 a.u.    93.829 eV
 395( 0) :    23.611320 a.u.   642.497 eV
 396( 0) :    23.631138 a.u.   643.036 eV
 397( 0) :    23.795722 a.u.   647.515 eV
 398( 0) :    24.008829 a.u.   653.313 eV
 399( 0) :    24.111859 a.u.   656.117 eV
 400( 0) :    24.218611 a.u.   659.022 eV
 401( 0) :    24.389130 a.u.   663.662 eV
 402( 0) :    24.529801 a.u.   667.490 eV
 403( 0) :    24.614025 a.u.   669.782 eV
 404( 0) :    24.742654 a.u.   673.282 eV
 405( 0) :    24.863055 a.u.   676.558 eV
 406( 0) :    25.205188 a.u.   685.868 eV
 407( 0) :    25.432873 a.u.   692.064 eV
 408( 0) :    25.462335 a.u.   692.865 eV
 409( 0) :    25.767873 a.u.   701.179 eV
 410( 0) :    26.025897 a.u.   708.201 eV
 411( 0) :    26.127614 a.u.   710.969 eV
 412( 0) :    26.335381 a.u.   716.622 eV
 413( 0) :    26.456280 a.u.   719.912 eV
 414( 0) :    26.853693 a.u.   730.726 eV
 415( 0) :    26.915177 a.u.   732.399 eV
 416( 0) :    26.991071 a.u.   734.464 eV
 417( 0) :    27.262290 a.u.   741.845 eV
 418( 0) :    27.481572 a.u.   747.812 eV
 419( 0) :    27.702733 a.u.   753.830 eV
 420( 0) :    27.786356 a.u.   756.105 eV
 421( 0) :    27.937048 a.u.   760.206 eV
 422( 0) :    28.150365 a.u.   766.010 eV
 423( 0) :    28.455332 a.u.   774.309 eV
 424( 0) :    28.701820 a.u.   781.016 eV
 425( 0) :    43.844474 a.u.  1193.069 eV
 426( 0) :    43.926097 a.u.  1195.290 eV
 427( 0) :    43.942604 a.u.  1195.739 eV
 428( 0) :    43.996961 a.u.  1197.218 eV
 429( 0) :    44.035944 a.u.  1198.279 eV
 430( 0) :    44.083999 a.u.  1199.587 eV
 431( 0) :    44.110263 a.u.  1200.301 eV
 432( 0) :    44.127359 a.u.  1200.766 eV
 433( 0) :    44.152883 a.u.  1201.461 eV
 434( 0) :    44.177072 a.u.  1202.119 eV
 435( 0) :   205.070299 a.u.  5580.247 eV
 436( 0) :   205.103292 a.u.  5581.144 eV
 437( 0) :   205.107455 a.u.  5581.258 eV
 438( 0) :   205.130398 a.u.  5581.882 eV
 439( 0) :   205.147740 a.u.  5582.354 eV
 440( 0) :   205.165120 a.u.  5582.827 eV
 441( 0) :   205.180385 a.u.  5583.242 eV
 442( 0) :   205.184732 a.u.  5583.360 eV
 443( 0) :   205.194460 a.u.  5583.625 eV
 444( 0) :   205.202649 a.u.  5583.848 eV
-------
TIMINGS
-------

Total SCF time: 0 days 0 hours 1 min 52 sec 

Total time                  ....     112.657 sec
Sum of individual times     ....     109.266 sec  ( 97.0%)

Fock matrix formation       ....     103.369 sec  ( 91.8%)
  Split-RI-J                ....      32.969 sec  ( 31.9% of F)
  XC integration            ....      68.569 sec  ( 66.3% of F)
    Basis function eval.    ....      14.161 sec  ( 20.7% of XC)
    Density eval.           ....      32.873 sec  ( 47.9% of XC)
    XC-Functional eval.     ....       2.357 sec  (  3.4% of XC)
    XC-Potential eval.      ....      15.507 sec  ( 22.6% of XC)
Diagonalization             ....       1.451 sec  (  1.3%)
Density matrix formation    ....       0.208 sec  (  0.2%)
Population analysis         ....       0.972 sec  (  0.9%)
Initial guess               ....       0.171 sec  (  0.2%)
Orbital Transformation      ....       0.000 sec  (  0.0%)
Orbital Orthonormalization  ....       0.145 sec  (  0.1%)
DIIS solution               ....       0.000 sec  (  0.0%)
Grid generation             ....       3.095 sec  (  2.7%)

Maximum memory used throughout the entire SCF-calculation: 333.0 MB

-------------------------   --------------------
FINAL SINGLE POINT ENERGY     -2509.028739604631
-------------------------   --------------------

                                *** OPTIMIZATION RUN DONE ***

                            ***************************************
                            *     ORCA property calculations      *
                            ***************************************

                                    ---------------------
                                    Active property flags
                                    ---------------------
   (+) Dipole Moment


------------------------------------------------------------------------------
                       ORCA ELECTRIC PROPERTIES CALCULATION
------------------------------------------------------------------------------

Dipole Moment Calculation                       ... on
Quadrupole Moment Calculation                   ... off
Polarizability Calculation                      ... off
GBWName                                         ... pbe.gbw
Electron density                                ... pbe.scfp
The origin for moment calculation is the CENTER OF MASS  = (16.230558, 11.669736 15.261552)

-------------
DIPOLE MOMENT
-------------
                                X             Y             Z
Electronic contribution:     13.63273      -2.58347      -3.81322
Nuclear contribution   :    -13.56961       2.61888       4.00560
                        -----------------------------------------
Total Dipole Moment    :      0.06311       0.03542       0.19238
                        -----------------------------------------
Magnitude (a.u.)       :      0.20554
Magnitude (Debye)      :      0.52245



--------------------
Rotational spectrum 
--------------------
 
Rotational constants in cm-1:     0.002112     0.001263     0.001095 
Rotational constants in MHz :    63.318924    37.860975    32.842216 

 Dipole components along the rotational axes: 
x,y,z [a.u.] :     0.119726    -0.108050     0.127432 
x,y,z [Debye]:     0.304319    -0.274641     0.323907 

 

Timings for individual modules:

Sum of individual times         ...    13637.891 sec (= 227.298 min)
GTO integral calculation        ...      266.219 sec (=   4.437 min)   2.0 %
SCF iterations                  ...    10549.352 sec (= 175.823 min)  77.4 %
SCF Gradient evaluation         ...     2820.760 sec (=  47.013 min)  20.7 %
Geometry relaxation             ...        1.559 sec (=   0.026 min)   0.0 %
                             ****ORCA TERMINATED NORMALLY****
TOTAL RUN TIME: 0 days 3 hours 47 minutes 23 seconds 67 msec
