
                                 *****************
                                 * O   R   C   A *
                                 *****************

                                            #,                                       
                                            ###                                      
                                            ####                                     
                                            #####                                    
                                            ######                                   
                                           ########,                                 
                                     ,,################,,,,,                         
                               ,,#################################,,                 
                          ,,##########################################,,             
                       ,#########################################, ''#####,          
                    ,#############################################,,   '####,        
                  ,##################################################,,,,####,       
                ,###########''''           ''''###############################       
              ,#####''   ,,,,##########,,,,          '''####'''          '####       
            ,##' ,,,,###########################,,,                        '##       
           ' ,,###''''                  '''############,,,                           
         ,,##''                                '''############,,,,        ,,,,,,###''
      ,#''                                            '''#######################'''  
     '                                                          ''''####''''         
             ,#######,   #######,   ,#######,      ##                                
            ,#'     '#,  ##    ##  ,#'     '#,    #''#        ######   ,####,        
            ##       ##  ##   ,#'  ##            #'  '#       #        #'  '#        
            ##       ##  #######   ##           ,######,      #####,   #    #        
            '#,     ,#'  ##    ##  '#,     ,#' ,#      #,         ##   #,  ,#        
             '#######'   ##     ##  '#######'  #'      '#     #####' # '####'        



                  #######################################################
                  #                        -***-                        #
                  #          Department of theory and spectroscopy      #
                  #    Directorship and core code : Frank Neese         #
                  #        Max Planck Institute fuer Kohlenforschung    #
                  #                Kaiser Wilhelm Platz 1               #
                  #                 D-45470 Muelheim/Ruhr               #
                  #                      Germany                        #
                  #                                                     #
                  #                  All rights reserved                #
                  #                        -***-                        #
                  #######################################################


                         Program Version 5.0.3 -  RELEASE  -


 With contributions from (in alphabetic order):
   Daniel Aravena         : Magnetic Suceptibility
   Michael Atanasov       : Ab Initio Ligand Field Theory (pilot matlab implementation)
   Alexander A. Auer      : GIAO ZORA, VPT2 properties, NMR spectrum
   Ute Becker             : Parallelization
   Giovanni Bistoni       : ED, misc. LED, open-shell LED, HFLD
   Martin Brehm           : Molecular dynamics
   Dmytro Bykov           : SCF Hessian
   Vijay G. Chilkuri      : MRCI spin determinant printing, contributions to CSF-ICE
   Dipayan Datta          : RHF DLPNO-CCSD density
   Achintya Kumar Dutta   : EOM-CC, STEOM-CC
   Dmitry Ganyushin       : Spin-Orbit,Spin-Spin,Magnetic field MRCI
   Miquel Garcia          : C-PCM and meta-GGA Hessian, CC/C-PCM, Gaussian charge scheme
   Yang Guo               : DLPNO-NEVPT2, F12-NEVPT2, CIM, IAO-localization
   Andreas Hansen         : Spin unrestricted coupled pair/coupled cluster methods
   Benjamin Helmich-Paris : MC-RPA, TRAH-SCF, COSX integrals
   Lee Huntington         : MR-EOM, pCC
   Robert Izsak           : Overlap fitted RIJCOSX, COSX-SCS-MP3, EOM
   Marcus Kettner         : VPT2
   Christian Kollmar      : KDIIS, OOCD, Brueckner-CCSD(T), CCSD density, CASPT2, CASPT2-K
   Simone Kossmann        : Meta GGA functionals, TD-DFT gradient, OOMP2, MP2 Hessian
   Martin Krupicka        : Initial AUTO-CI
   Lucas Lang             : DCDCAS
   Marvin Lechner         : AUTO-CI (C++ implementation), FIC-MRCC
   Dagmar Lenk            : GEPOL surface, SMD
   Dimitrios Liakos       : Extrapolation schemes; Compound Job, initial MDCI parallelization
   Dimitrios Manganas     : Further ROCIS development; embedding schemes
   Dimitrios Pantazis     : SARC Basis sets
   Anastasios Papadopoulos: AUTO-CI, single reference methods and gradients
   Taras Petrenko         : DFT Hessian,TD-DFT gradient, ASA, ECA, R-Raman, ABS, FL, XAS/XES, NRVS
   Peter Pinski           : DLPNO-MP2, DLPNO-MP2 Gradient
   Christoph Reimann      : Effective Core Potentials
   Marius Retegan         : Local ZFS, SOC
   Christoph Riplinger    : Optimizer, TS searches, QM/MM, DLPNO-CCSD(T), (RO)-DLPNO pert. Triples
   Tobias Risthaus        : Range-separated hybrids, TD-DFT gradient, RPA, STAB
   Michael Roemelt        : Original ROCIS implementation
   Masaaki Saitow         : Open-shell DLPNO-CCSD energy and density
   Barbara Sandhoefer     : DKH picture change effects
   Avijit Sen             : IP-ROCIS
   Kantharuban Sivalingam : CASSCF convergence, NEVPT2, FIC-MRCI
   Bernardo de Souza      : ESD, SOC TD-DFT
   Georgi Stoychev        : AutoAux, RI-MP2 NMR, DLPNO-MP2 response
   Willem Van den Heuvel  : Paramagnetic NMR
   Boris Wezisla          : Elementary symmetry handling
   Frank Wennmohs         : Technical directorship


 We gratefully acknowledge several colleagues who have allowed us to
 interface, adapt or use parts of their codes:
   Stefan Grimme, W. Hujo, H. Kruse, P. Pracht,  : VdW corrections, initial TS optimization,
                  C. Bannwarth, S. Ehlert          DFT functionals, gCP, sTDA/sTD-DF
   Ed Valeev, F. Pavosevic, A. Kumar             : LibInt (2-el integral package), F12 methods
   Garnet Chan, S. Sharma, J. Yang, R. Olivares  : DMRG
   Ulf Ekstrom                                   : XCFun DFT Library
   Mihaly Kallay                                 : mrcc  (arbitrary order and MRCC methods)
   Jiri Pittner, Ondrej Demel                    : Mk-CCSD
   Frank Weinhold                                : gennbo (NPA and NBO analysis)
   Christopher J. Cramer and Donald G. Truhlar   : smd solvation model
   Lars Goerigk                                  : TD-DFT with DH, B97 family of functionals
   V. Asgeirsson, H. Jonsson                     : NEB implementation
   FAccTs GmbH                                   : IRC, NEB, NEB-TS, DLPNO-Multilevel, CI-OPT
                                                   MM, QMMM, 2- and 3-layer-ONIOM, Crystal-QMMM,
                                                   LR-CPCM, SF, NACMEs, symmetry and pop. for TD-DFT,
                                                   nearIR, NL-DFT gradient (VV10), updates on ESD,
                                                   ML-optimized integration grids
   S Lehtola, MJT Oliveira, MAL Marques          : LibXC Library
   Liviu Ungur et al                             : ANISO software


 Your calculation uses the libint2 library for the computation of 2-el integrals
 For citations please refer to: http://libint.valeyev.net

 Your ORCA version has been built with support for libXC version: 5.1.0
 For citations please refer to: https://tddft.org/programs/libxc/

 This ORCA versions uses:
   CBLAS   interface :  Fast vector & matrix operations
   LAPACKE interface :  Fast linear algebra routines
   SCALAPACK package :  Parallel linear algebra routines
   Shared memory     :  Shared parallel matrices
   BLAS/LAPACK       :  OpenBLAS 0.3.15  USE64BITINT DYNAMIC_ARCH NO_AFFINITY Sandybridge SINGLE_THREADED
        Core in use  :  Sandybridge
   Copyright (c) 2011-2014, The OpenBLAS Project




***************************************
The coordinates will be read from file: pbe.xyz
***************************************


================================================================================

cite the ECPs for Au [Def2-ECP] as follows:
Ce-Yb(ecp-28): M. Dolg, H. Stoll, H.Preuss, J. Chem. Phys., 1989, 90, 1730-1734.
Y-Cd(ecp-28), Hf-Hg(ecp-46): D. Andrae,U. Haeussermann, M. Dolg, H. Stoll, H. Preuss, Theor. Chim. Acta, 1990, 77, 123-141.
In-Sb(ecp-28), Tl-Bi(ecp-46): B. Metz, H. Stoll, M. Dolg, J. Chem. Phys., 2000, 113, 2563-2569.
Te-Xe(ecp-28), Po-Rn(ecp-46): K. A. Peterson, D. Figgen, E. Goll, H. Stoll, M. Dolg, J. Chem. Phys., 2003, 119, 11113-11123.
Rb(ecp-28), Cs(ecp-46): T. Leininger, A. Nicklass, W. Kuechle, H. Stoll, M. Dolg, A. Bergner, Chem. Phys. Lett., 1996, 255, 274-280.
Sr(ecp-28), Ba(ecp-46): M. Kaupp, P. V. Schleyer, H. Stoll and H. Preuss, J. Chem. Phys., 1991, 94, 1360-1366.
La(ecp-46): M. Dolg, H. Stoll, A. Savin, H. Preuss, Theor. Chim. Acta, 1989, 75, 173-194.
Lu(ecp-28): X. Cao, M. Dolg, J. Chem. Phys., 2001, 115, 7348-7355.

ECP parameters for Au [Def2-ECP] have been obtained from:
TURBOMOLE (7.0.2)

----- Orbital basis set information -----
Your calculation utilizes the basis: def2-TZVP
   F. Weigend and R. Ahlrichs, Phys. Chem. Chem. Phys. 7, 3297 (2005).

----- AuxJ basis set information -----
Your calculation utilizes the auxiliary basis: def2/J
   F. Weigend, Phys. Chem. Chem. Phys. 8, 1057 (2006).

================================================================================
                                        WARNINGS
                       Please study these warnings very carefully!
================================================================================


WARNING: your system is open-shell and RHF/RKS was chosen
  ===> : WILL SWITCH to UHF/UKS


INFO   : the flag for use of the SHARK integral package has been found!



***************************************
The coordinates will be read from file: pbe.xyz
***************************************


================================================================================

cite the ECPs for Au [Def2-ECP] as follows:
Ce-Yb(ecp-28): M. Dolg, H. Stoll, H.Preuss, J. Chem. Phys., 1989, 90, 1730-1734.
Y-Cd(ecp-28), Hf-Hg(ecp-46): D. Andrae,U. Haeussermann, M. Dolg, H. Stoll, H. Preuss, Theor. Chim. Acta, 1990, 77, 123-141.
In-Sb(ecp-28), Tl-Bi(ecp-46): B. Metz, H. Stoll, M. Dolg, J. Chem. Phys., 2000, 113, 2563-2569.
Te-Xe(ecp-28), Po-Rn(ecp-46): K. A. Peterson, D. Figgen, E. Goll, H. Stoll, M. Dolg, J. Chem. Phys., 2003, 119, 11113-11123.
Rb(ecp-28), Cs(ecp-46): T. Leininger, A. Nicklass, W. Kuechle, H. Stoll, M. Dolg, A. Bergner, Chem. Phys. Lett., 1996, 255, 274-280.
Sr(ecp-28), Ba(ecp-46): M. Kaupp, P. V. Schleyer, H. Stoll and H. Preuss, J. Chem. Phys., 1991, 94, 1360-1366.
La(ecp-46): M. Dolg, H. Stoll, A. Savin, H. Preuss, Theor. Chim. Acta, 1989, 75, 173-194.
Lu(ecp-28): X. Cao, M. Dolg, J. Chem. Phys., 2001, 115, 7348-7355.

ECP parameters for Au [Def2-ECP] have been obtained from:
TURBOMOLE (7.0.2)

----- Orbital basis set information -----
Your calculation utilizes the basis: def2-TZVP
   F. Weigend and R. Ahlrichs, Phys. Chem. Chem. Phys. 7, 3297 (2005).

----- AuxJ basis set information -----
Your calculation utilizes the auxiliary basis: def2/J
   F. Weigend, Phys. Chem. Chem. Phys. 8, 1057 (2006).

================================================================================
                                        WARNINGS
                       Please study these warnings very carefully!
================================================================================


INFO   : the flag for use of the SHARK integral package has been found!

================================================================================
                                       INPUT FILE
================================================================================
NAME = pbeSP.inp
|  1> !PBE def2-TZVP VERYSLOWCONV
|  2> 
|  3> %pal nprocs 16 end 
|  4> 
|  5> *xyzfile 0 5 pbe.xyz
|  6> 
|  7> $new_job
|  8> 
|  9> !PBE def2-TZVP VERYSLOWCONV
| 10>  
| 11> 
| 12> %pal nprocs 16 end 
| 13> 
| 14> *xyzfile 0 3 pbe.xyz
| 15> 
| 16> 
| 17> 
| 18> 
| 19> 
| 20>                          ****END OF INPUT****
================================================================================


                 $$$$$$$$$$$$$$$$$$$$$$$$$$$$$$$$$$$$$$$$$$$$$$ 
                 $ THERE ARE  2 JOBS TO BE PROCESSED THIS RUN $
                 $$$$$$$$$$$$$$$$$$$$$$$$$$$$$$$$$$$$$$$$$$$$$$ 




                 $$$$$$$$$$$$$$$$  JOB NUMBER  1 $$$$$$$$$$$$$$


                       ****************************
                       * Single Point Calculation *
                       ****************************

---------------------------------
CARTESIAN COORDINATES (ANGSTROEM)
---------------------------------
  Au     7.698036   10.395998    8.651329
  Au     6.568950   10.026107    6.090403
  Au     6.899736    8.255673   10.308620
  Au     5.051799    9.502865    8.484804
  Au     9.243782    9.524036    6.510088
  Au     9.462658    8.345064    9.304271
  Au     4.842774    7.740630    6.251100
  Au     7.495042    5.599349    9.114151
  Au     5.044970    6.667613    8.801930
  Au    10.255145    5.653623    8.959514
  Au     8.754402    5.894695    6.673785
  Au     9.919812    7.440922    4.726272
  Au    11.157242    7.673831    7.234275
  Au     7.165044    7.350695    4.948235
  Fe     7.229094    7.906368    7.641625

----------------------------
CARTESIAN COORDINATES (A.U.)
----------------------------
  NO LB      ZA    FRAG     MASS         X           Y           Z
   0 Au   19.0000*   0   196.966   14.547179   19.645589   16.348643
   1 Au   19.0000*   0   196.966   12.413516   18.946596   11.509193
   2 Au   19.0000*   0   196.966   13.038611   15.600961   19.480469
   3 Au   19.0000*   0   196.966    9.546516   17.957812   16.033956
   4 Au   19.0000*   0   196.966   17.468216   17.997821   12.302283
   5 Au   19.0000*   0   196.966   17.881831   15.769885   17.582525
   6 Au   19.0000*   0   196.966    9.151516   14.627671   11.812866
   7 Au   19.0000*   0   196.966   14.163576   10.581237   17.223249
   8 Au   19.0000*   0   196.966    9.533612   12.599962   16.633236
   9 Au   19.0000*   0   196.966   19.379415   10.683799   16.931028
  10 Au   19.0000*   0   196.966   16.543423   11.139358   12.611627
  11 Au   19.0000*   0   196.966   18.745728   14.061305    8.931360
  12 Au   19.0000*   0   196.966   21.084132   14.501439   13.670798
  13 Au   19.0000*   0   196.966   13.539971   13.890801    9.350808
  14 Fe   26.0000    0    55.850   13.661008   14.940870   14.440579
* core charge reduced due to ECP

--------------------------------
INTERNAL COORDINATES (ANGSTROEM)
--------------------------------
 Au     0   0   0     0.000000000000     0.00000000     0.00000000
 Au     1   0   0     2.823118849231     0.00000000     0.00000000
 Au     1   2   0     2.822212771810   108.67493233     0.00000000
 Au     1   2   3     2.797854212809    61.70015019   318.68246166
 Au     2   1   3     2.753713715672    59.81125129   255.28491749
 Au     3   1   2     2.754138064823    59.86864065   104.58776614
 Au     4   1   2     2.852823157691   108.24547020    36.51437708
 Au     3   1   2     2.972743340214   112.64772961    53.11433413
 Au     8   3   1     2.691007343904    60.63133659   264.49259662
 Au     8   3   1     2.764964035450   101.81983844    63.08042144
 Au    10   8   3     2.744977115356    60.16739629   252.98073043
 Au    11  10   8     2.746234943346   114.07602100   148.77381690
 Au     6   3   1     2.758089342537   146.88122783   271.15452876
 Au     7   4   1     2.691179230644   113.91226604     1.26069686
 Fe    11  10   8     2.703721408500    94.34154322    52.13666596

---------------------------
INTERNAL COORDINATES (A.U.)
---------------------------
 Au     0   0   0     0.000000000000     0.00000000     0.00000000
 Au     1   0   0     5.334921468558     0.00000000     0.00000000
 Au     1   2   0     5.333209230376   108.67493233     0.00000000
 Au     1   2   3     5.287178224847    61.70015019   318.68246166
 Au     2   1   3     5.203764773842    59.81125129   255.28491749
 Au     3   1   2     5.204566677523    59.86864065   104.58776614
 Au     4   1   2     5.391054476544   108.24547020    36.51437708
 Au     3   1   2     5.617670779442   112.64772961    53.11433413
 Au     8   3   1     5.085266904349    60.63133659   264.49259662
 Au     8   3   1     5.225024797141   101.81983844    63.08042144
 Au    10   8   3     5.187254991904    60.16739629   252.98073043
 Au    11  10   8     5.189631942329   114.07602100   148.77381690
 Au     6   3   1     5.212033510282   146.88122783   271.15452876
 Au     7   4   1     5.085591723214   113.91226604     1.26069686
 Fe    11  10   8     5.109293004486    94.34154322    52.13666596

---------------------
BASIS SET INFORMATION
---------------------
There are 2 groups of distinct atoms

 Group   1 Type Au  : 8s7p6d1f contracted to 6s4p3d1f pattern {311111/4111/411/1}
 Group   2 Type Fe  : 17s11p7d1f contracted to 6s4p4d1f pattern {842111/6311/4111/1}

Atom   0Au   basis set group =>   1
Atom   1Au   basis set group =>   1
Atom   2Au   basis set group =>   1
Atom   3Au   basis set group =>   1
Atom   4Au   basis set group =>   1
Atom   5Au   basis set group =>   1
Atom   6Au   basis set group =>   1
Atom   7Au   basis set group =>   1
Atom   8Au   basis set group =>   1
Atom   9Au   basis set group =>   1
Atom  10Au   basis set group =>   1
Atom  11Au   basis set group =>   1
Atom  12Au   basis set group =>   1
Atom  13Au   basis set group =>   1
Atom  14Fe   basis set group =>   2
---------------------------------
AUXILIARY/J BASIS SET INFORMATION
---------------------------------
There are 2 groups of distinct atoms

 Group   1 Type Au  : 11s5p5d3f3g contracted to 8s5p5d2f3g pattern {41111111/11111/11111/21/111}
 Group   2 Type Fe  : 19s5p5d3f3g contracted to 8s5p5d2f3g pattern {121111111/11111/11111/21/111}

Atom   0Au   basis set group =>   1
Atom   1Au   basis set group =>   1
Atom   2Au   basis set group =>   1
Atom   3Au   basis set group =>   1
Atom   4Au   basis set group =>   1
Atom   5Au   basis set group =>   1
Atom   6Au   basis set group =>   1
Atom   7Au   basis set group =>   1
Atom   8Au   basis set group =>   1
Atom   9Au   basis set group =>   1
Atom  10Au   basis set group =>   1
Atom  11Au   basis set group =>   1
Atom  12Au   basis set group =>   1
Atom  13Au   basis set group =>   1
Atom  14Fe   basis set group =>   2
-------------------------
ECP PARAMETER INFORMATION
-------------------------

 Group 1, Type Au ECP Def2-ECP (replacing 60 core electrons, lmax=3)

Atom   0Au   ECP group =>   1
Atom   1Au   ECP group =>   1
Atom   2Au   ECP group =>   1
Atom   3Au   ECP group =>   1
Atom   4Au   ECP group =>   1
Atom   5Au   ECP group =>   1
Atom   6Au   ECP group =>   1
Atom   7Au   ECP group =>   1
Atom   8Au   ECP group =>   1
Atom   9Au   ECP group =>   1
Atom  10Au   ECP group =>   1
Atom  11Au   ECP group =>   1
Atom  12Au   ECP group =>   1
Atom  13Au   ECP group =>   1



           ************************************************************
           *        Program running with 16 parallel MPI-processes    *
           *              working on a common directory               *
           ************************************************************
------------------------------------------------------------------------------
                           ORCA GTO INTEGRAL CALCULATION
                           -- RI-GTO INTEGRALS CHOSEN --
------------------------------------------------------------------------------
------------------------------------------------------------------------------
                   ___                                                        
                  /   \      - P O W E R E D   B Y -                         
                 /     \                                                     
                 |  |  |   _    _      __       _____    __    __             
                 |  |  |  | |  | |    /  \     |  _  \  |  |  /  |          
                  \  \/   | |  | |   /    \    | | | |  |  | /  /          
                 / \  \   | |__| |  /  /\  \   | |_| |  |  |/  /          
                |  |  |   |  __  | /  /__\  \  |    /   |      \           
                |  |  |   | |  | | |   __   |  |    \   |  |\   \          
                \     /   | |  | | |  |  |  |  | |\  \  |  | \   \       
                 \___/    |_|  |_| |__|  |__|  |_| \__\ |__|  \__/        
                                                                              
                      - O R C A' S   B I G   F R I E N D -                    
                                      &                                       
                       - I N T E G R A L  F E E D E R -                       
                                                                              
 v1 FN, 2020, v2 2021                                                         
------------------------------------------------------------------------------


Reading SHARK input file pbeSP.SHARKINP.tmp ... ok
----------------------
SHARK INTEGRAL PACKAGE
----------------------

Number of atoms                             ...     15
Number of basis functions                   ...    605
Number of shells                            ...    211
Maximum angular momentum                    ...      3
Integral batch strategy                     ... SHARK/LIBINT Hybrid
RI-J (if used) integral strategy            ... SPLIT-RIJ (Revised 2003 algorithm where possible)
Printlevel                                  ...      1
Contraction scheme used                     ... SEGMENTED contraction
Coulomb Range Separation                    ... NOT USED
Exchange Range Separation                   ... NOT USED
Finite Nucleus Model                        ... NOT USED
Auxiliary Coulomb fitting basis             ... AVAILABLE
   # of basis functions in Aux-J            ...   1335
   # of shells in Aux-J                     ...    345
   Maximum angular momentum in Aux-J        ...      4
Auxiliary J/K fitting basis                 ... NOT available
Auxiliary Correlation fitting basis         ... NOT available
Auxiliary 'external' fitting basis          ... NOT available
Integral threshold                          ...     1.000000e-10
Primitive cut-off                           ...     1.000000e-11
Primitive pair pre-selection threshold      ...     1.000000e-11

Calculating pre-screening integrals         ... done (  0.1 sec) Dimension = 211
Organizing shell pair data                  ... done (  0.7 sec)
Shell pair information
Total number of shell pairs                 ...     22366
Shell pairs after pre-screening             ...     17825
Total number of primitive shell pairs       ...     59609
Primitive shell pairs kept                  ...     34411
          la=0 lb=0:   2806 shell pairs
          la=1 lb=0:   4075 shell pairs
          la=1 lb=1:   1528 shell pairs
          la=2 lb=0:   3538 shell pairs
          la=2 lb=1:   2490 shell pairs
          la=2 lb=2:   1027 shell pairs
          la=3 lb=0:    925 shell pairs
          la=3 lb=1:    716 shell pairs
          la=3 lb=2:    622 shell pairs
          la=3 lb=3:     98 shell pairs

Calculating one electron integrals          ... done (  0.0 sec)
Calculating ECP integrals                   ... done ( 11.8 sec)
Calculating RI/J V-Matrix + Cholesky decomp.... done (  0.1 sec)
Calculating Nuclear repulsion               ... done (  0.0 sec) ENN=   5713.369152055729 Eh

SHARK setup successfully completed in  13.2 seconds

Maximum memory used throughout the entire GTOINT-calculation: 34.6 MB


           ************************************************************
           *        Program running with 16 parallel MPI-processes    *
           *              working on a common directory               *
           ************************************************************
-------------------------------------------------------------------------------
                                 ORCA SCF
-------------------------------------------------------------------------------

------------
SCF SETTINGS
------------
Hamiltonian:
 Density Functional     Method          .... DFT(GTOs)
 Exchange Functional    Exchange        .... PBE
   PBE kappa parameter   XKappa         ....  0.804000
   PBE mue parameter    XMuePBE         ....  0.219520
 Correlation Functional Correlation     .... PBE
   PBE beta parameter  CBetaPBE         ....  0.066725
 LDA part of GGA corr.  LDAOpt          .... PW91-LDA
 Gradients option       PostSCFGGA      .... off
   Density functional embedding theory  .... OFF
   NL short-range parameter             ....  6.400000
 RI-approximation to the Coulomb term is turned on
   Number of AuxJ basis functions       .... 1335


General Settings:
 Integral files         IntName         .... pbeSP
 Hartree-Fock type      HFTyp           .... UHF
 Total Charge           Charge          ....    0
 Multiplicity           Mult            ....    5
 Number of Electrons    NEL             ....  292
 Basis Dimension        Dim             ....  605
 Nuclear Repulsion      ENuc            ....   5713.3691520557 Eh

Convergence Acceleration:
 DIIS                   CNVDIIS         .... on
   Start iteration      DIISMaxIt       ....     0
   Startup error        DIISStart       ....  0.200000
   # of expansion vecs  DIISMaxEq       ....     5
   Bias factor          DIISBfac        ....   1.050
   Max. coefficient     DIISMaxC        ....  10.000
 Trust-Rad. Augm. Hess. CNVTRAH         .... auto
   Auto Start mean grad. ratio tolernc. ....  1.125000
   Auto Start start iteration           ....    20
   Auto Start num. interpolation iter.  ....    10
   Max. Number of Micro iterations      ....    16
   Max. Number of Macro iterations      .... Maxiter - #DIIS iter
   Number of Davidson start vectors     ....     2
   Converg. threshold I  (grad. norm)   ....   5.000e-05
   Converg. threshold II (energy diff.) ....   1.000e-06
   Grad. Scal. Fac. for Micro threshold ....   0.100
   Minimum threshold for Micro iter.    ....   0.010
   NR start threshold (gradient norm)   ....   0.001
   Initial trust radius                 ....   0.400
   Minimum AH scaling param. (alpha)    ....   1.000
   Maximum AH scaling param. (alpha)    .... 1000.000
   Orbital update algorithm             .... Taylor
   White noise on init. David. guess    .... on
   Maximum white noise                  ....   0.010
   Quad. conv. algorithm                .... NR
 SOSCF                  CNVSOSCF        .... off
 Level Shifting         CNVShift        .... on
   Level shift para.    LevelShift      ....    0.2500
   Turn off err/grad.   ShiftErr        ....    0.0000
 Zerner damping         CNVZerner       .... off
 Static damping         CNVDamp         .... on
   Fraction old density DampFac         ....    0.9200
   Max. Damping (<1)    DampMax         ....    0.9800
   Min. Damping (>=0)   DampMin         ....    0.0000
   Turn off err/grad.   DampErr         ....    0.0030
 Fernandez-Rico         CNVRico         .... off

SCF Procedure:
 Maximum # iterations   MaxIter         ....   125
 SCF integral mode      SCFMode         .... Direct
   Integral package                     .... SHARK and LIBINT hybrid scheme
 Reset frequency        DirectResetFreq ....    20
 Integral Threshold     Thresh          ....  1.000e-10 Eh
 Primitive CutOff       TCut            ....  1.000e-11 Eh

Convergence Tolerance:
 Convergence Check Mode ConvCheckMode   .... Total+1el-Energy
 Convergence forced     ConvForced      .... 0
 Energy Change          TolE            ....  1.000e-06 Eh
 1-El. energy change                    ....  1.000e-03 Eh
 DIIS Error             TolErr          ....  1.000e-06


Diagonalization of the overlap matrix:
Smallest eigenvalue                        ... 3.617e-04
Time for diagonalization                   ...    0.107 sec
Threshold for overlap eigenvalues          ... 1.000e-08
Number of eigenvalues below threshold      ... 0
Time for construction of square roots      ...    0.065 sec
Total time needed                          ...    0.174 sec

Time for model grid setup =    0.451 sec

------------------------------
INITIAL GUESS: MODEL POTENTIAL
------------------------------
Loading Hartree-Fock densities                     ... done
  calling /home/ehlert/src/miniconda3/envs/orca500/Programs/ORCA501/orca pbeSP_atom79.inp > pbeSP_atom79.out in order to generate an atomic fitting density for atom 0 (Au with ECP) on-the-fly... 
    atom 0 (Au), assumed electronic state with S=2: 1s2 2s2 2p6 3s2 3p6 4s2 3d10 4p6 5s2 4d10 5p6 6s1 4f14 5d10           ... done
Calculating cut-offs                               ... done
Initializing the effective Hamiltonian             ... done
Setting up the integral package (SHARK)            ... done
Starting the Coulomb interaction                   ... done (   0.2 sec)
Reading the grid                                   ... done
Mapping shells                                     ... done
Starting the XC term evaluation                    ... done (   0.2 sec)
  promolecular density results
     # of electrons  =   1132.013862328
     EX              =  -5175.640296136
     EC              =    -68.985939108
     EX+EC           =  -5244.626235244
Transforming the Hamiltonian                       ... done (   0.1 sec)
Diagonalizing the Hamiltonian                      ... done (   0.1 sec)
Back transforming the eigenvectors                 ... done (   0.0 sec)
Now organizing SCF variables                       ... done
                      ------------------
                      INITIAL GUESS DONE (   1.9 sec)
                      ------------------
-------------------
DFT GRID GENERATION
-------------------

General Integration Accuracy     IntAcc      ... 4.388
Radial Grid Type                 RadialGrid  ... OptM3 with GC (2021)
Angular Grid (max. ang.)         AngularGrid ... 4 (Lebedev-302)
Angular grid pruning method      GridPruning ... 4 (adaptive)
Weight generation scheme         WeightScheme... Becke
Basis function cutoff            BFCut       ... 1.0000e-10
Integration weight cutoff        WCut        ... 1.0000e-14
Angular grids for H and He will be reduced by one unit
Partially contracted basis set               ... off
Rotationally invariant grid construction     ... off

Total number of grid points                  ...   165713
Total number of batches                      ...     2597
Average number of points per batch           ...       63
Average number of grid points per atom       ...    11048
Time for grid setup =    1.594 sec

--------------
SCF ITERATIONS
--------------
ITER       Energy         Delta-E        Max-DP      RMS-DP      [F,P]     Damp
               ***  Starting incremental Fock matrix formation  ***
  0  -3161.4264807825   0.000000000000 0.10971143  0.00075173  0.5664952 0.9200
  1  -3162.8329049213  -1.406424138768 0.08711550  0.00067229  0.3610933 0.9200
                               ***Turning on DIIS***
  2  -3163.5850644794  -0.752159558117 0.06483802  0.00053739  0.2421075 0.9200
  3  -3163.9065852799  -0.321520800527 0.04788854  0.00043533  0.2219109 0.9200
  4  -3164.0002336584  -0.093648378459 0.05590083  0.00039798  0.2035181 0.9200
  5  -3163.9986468154   0.001586842981 0.06402592  0.00032784  0.1867401 0.9200
  6  -3164.0517780953  -0.053131279882 0.02064252  0.00026206  0.1712831 0.9200
  7  -3164.1702927672  -0.118514671989 0.02073615  0.00022917  0.1571142 0.9200
  8  -3164.2501821807  -0.079889413495 0.01920551  0.00020445  0.1444336 0.9200
  9  -3164.3051544136  -0.054972232818 0.03706853  0.00021059  0.1327921 0.9200
 10  -3164.3608969431  -0.055742529535 0.03259285  0.00020545  0.1220195 0.9200
 11  -3164.3959708031  -0.035073860047 0.01141195  0.00016153  0.1122332 0.9200
 12  -3164.4345138743  -0.038543071193 0.01851120  0.00015672  0.1032164 0.9200
 13  -3164.4925740017  -0.058060127330 0.02670546  0.00015440  0.0947759 0.9200
 14  -3164.5381984480  -0.045624446292 0.01987265  0.00014164  0.0870585 0.9200
 15  -3164.5757780049  -0.037579556956 0.01774179  0.00013539  0.0800027 0.9200
 16  -3164.6127977384  -0.037019733478 0.01611666  0.00013232  0.0735032 0.9200
 17  -3164.6446943207  -0.031896582300 0.02081882  0.00012472  0.0676114 0.9200
 18  -3164.6743748637  -0.029680543039 0.02276109  0.00011940  0.0622092 0.9200
 19  -3164.7052469877  -0.030872123921 0.02381500  0.00011501  0.0571520 0.9200
               *** Restarting incremental Fock matrix formation ***
                                   *** Resetting DIIS ***

 WARNING: the maximum gradient error descreased on average only by a factor   1.1
          during the last 20 iterations

                      *** Initiating the TRAH-SCF procedure ***


TRAH GRID
---------

General Integration Accuracy     IntAcc      ... 3.467
Radial Grid Type                 RadialGrid  ... OptM3 with GC (2021)
Angular Grid (max. ang.)         AngularGrid ... 1 (Lebedev-50)
Angular grid pruning method      GridPruning ... 4 (adaptive)
Weight generation scheme         WeightScheme... Becke
Basis function cutoff            BFCut       ... 1.0000e-10
Integration weight cutoff        WCut        ... 1.0000e-14
Angular grids for H and He will be reduced by one unit
Partially contracted basis set               ... off
Rotationally invariant grid construction     ... off

Total number of grid points                  ...    71479
Total number of batches                      ...     1126
Average number of points per batch           ...       63
Average number of grid points per atom       ...     4765

 --------------------------------------------------------------------------------------------
   Iter.        energy            ||Error||_2        Shift      TRadius  Mac/Mic        Rej.
 --------------------------------------------------------------------------------------------
WARNING: 373 diagonal Hessian elements are negative!
    0      -3164.879240636024     8.761469e-01                     0.400 (TRAH MAcro)   No
WARNING : negative HOMO - LUMO gap : (op = alpha) -0.351114
WARNING : negative HOMO - LUMO gap : (op =  beta) -0.283222
    0     dE    -1.312849e-01     4.442095e-01    -1.2852e-01      0.147 (TRAH MIcro)
    0     dE    -1.805655e-01     7.266229e-02    -1.6936e-01      0.257 (TRAH MIcro)
    0     dE    -1.825038e-01     4.735827e-02    -1.7119e-01      0.257 (TRAH MIcro)
    0     dE    -1.874489e-01     7.618841e-02    -1.7491e-01      0.268 (TRAH MIcro)
    0     dE    -1.980295e-01     6.893746e-02    -1.7842e-01      0.331 (TRAH MIcro)
    0     dE    -2.100770e-01     4.107759e-02    -1.8373e-01      0.400 (TRAH MIcro)
    0     dE    -2.117288e-01     5.283791e-02    -2.0266e-01      0.400 (TRAH MIcro)
    0     dE    -2.042097e-01     3.117449e-02    -2.6743e-01      0.343 (TRAH MIcro)
    0     dE    -2.107089e-01     2.410482e-02    -2.6835e-01      0.373 (TRAH MIcro)
    0     dE    -2.161887e-01     2.535097e-02    -2.6892e-01      0.397 (TRAH MIcro)
    0     dE    -1.901973e-01     1.902453e-02    -3.6477e-01      0.264 (TRAH MIcro)
    0     dE    -1.899268e-01     4.735202e-03    -3.6507e-01      0.262 (TRAH MIcro)
    1      -3165.059909844344     6.677556e-02                     0.480 (TRAH MAcro)   No
WARNING : small    HOMO - LUMO gap : (op = alpha) 0.015248
WARNING : small    HOMO - LUMO gap : (op =  beta) 0.017845
    1     dE    -2.027618e-03     6.876393e-02    -2.0258e-03      0.030 (TRAH MIcro)
    1     dE    -1.693356e-02     8.340983e-02    -1.4144e-02      0.444 (TRAH MIcro)
    1     dE    -2.018264e-02     3.511578e-02    -2.0207e-02      0.480 (TRAH MIcro)
    1     dE    -2.099265e-02     2.236692e-02    -2.3714e-02      0.480 (TRAH MIcro)
    1     dE    -2.132190e-02     1.326270e-02    -2.5235e-02      0.480 (TRAH MIcro)
    1     dE    -2.140178e-02     7.688639e-03    -2.5512e-02      0.480 (TRAH MIcro)
    1     dE    -2.142770e-02     3.423977e-03    -2.5604e-02      0.480 (TRAH MIcro)
    2      -3165.073156585962     7.426772e-02                     0.480 (TRAH MAcro)   No
WARNING : small    HOMO - LUMO gap : (op =  beta) 0.000922
    2     dE    -1.062997e-03     4.661050e-02    -1.0628e-03      0.014 (TRAH MIcro)
    2     dE    -1.655260e-03     1.423253e-02    -1.6522e-03      0.043 (TRAH MIcro)
    2     dE    -3.476154e-03     3.267149e-02    -3.1074e-03      0.345 (TRAH MIcro)
    2     dE    -4.475474e-03     2.398072e-02    -3.6901e-03      0.461 (TRAH MIcro)
    2     dE    -4.944691e-03     1.424200e-02    -5.9517e-03      0.480 (TRAH MIcro)
    2     dE    -5.053350e-03     8.969375e-03    -6.8183e-03      0.480 (TRAH MIcro)
    2     dE    -4.984809e-03     4.818710e-03    -7.4625e-03      0.465 (TRAH MIcro)
 ---------------------------------
          TRAH Step control 
 ---------------------------------
  predicted energy change = -0.004985
  actual energy  change   = 0.001933
  energy change ratio     = -0.387869
  old trust radius        = 0.480000
  new trust radius        = 0.336000
  reject step?            =  1
    3      -3165.073156585962     6.677556e-02                     0.336 (TRAH MAcro)  Yes
    4      -3165.073156585965     7.426772e-02                     0.336 (TRAH MAcro)   No
WARNING : small    HOMO - LUMO gap : (op =  beta) 0.000922
    4     dE    -1.062998e-03     4.660869e-02    -1.0628e-03      0.014 (TRAH MIcro)
    4     dE    -1.655250e-03     1.419709e-02    -1.6522e-03      0.043 (TRAH MIcro)
    4     dE    -3.457228e-03     3.181338e-02    -3.4381e-03      0.336 (TRAH MIcro)
    4     dE    -3.952776e-03     1.727288e-02    -7.3126e-03      0.336 (TRAH MIcro)
    4     dE    -4.129442e-03     8.069930e-03    -8.0998e-03      0.336 (TRAH MIcro)
    4     dE    -4.160340e-03     4.950806e-03    -8.2224e-03      0.336 (TRAH MIcro)
    5      -3165.074666614280     4.995976e-02                     0.336 (TRAH MAcro)   No
WARNING : small    HOMO - LUMO gap : (op = alpha) 0.018312
    5     dE    -4.628022e-04     3.314673e-02    -4.6276e-04      0.009 (TRAH MIcro)
    5     dE    -8.058600e-04     1.151730e-02    -8.0501e-04      0.032 (TRAH MIcro)
    5     dE    -1.185974e-03     1.140872e-02    -1.1762e-03      0.091 (TRAH MIcro)
    5     dE    -1.247416e-03     5.608018e-03    -1.2341e-03      0.104 (TRAH MIcro)
    5     dE    -1.258951e-03     3.681869e-03    -1.2446e-03      0.107 (TRAH MIcro)
    6      -3165.076055624380     6.476600e-03                     0.403 (TRAH MAcro)   No
WARNING : small    HOMO - LUMO gap : (op = alpha) 0.019702
WARNING : small    HOMO - LUMO gap : (op =  beta) 0.019185
    6     dE    -7.421906e-06     8.784819e-03    -7.4219e-06      0.001 (TRAH MIcro)
    6     dE    -9.387775e-05     1.350974e-02    -9.3704e-05      0.043 (TRAH MIcro)
    6     dE    -1.697372e-04     6.768189e-03    -1.6853e-04      0.085 (TRAH MIcro)
    6     dE    -1.905430e-04     4.348072e-03    -1.8879e-04      0.096 (TRAH MIcro)
    6     dE    -1.978892e-04     3.036069e-03    -1.9593e-04      0.100 (TRAH MIcro)
    6     dE    -2.032819e-04     1.391443e-03    -2.0112e-04      0.104 (TRAH MIcro)
    6     dE    -2.044521e-04     7.393684e-04    -2.0221e-04      0.105 (TRAH MIcro)
    6     dE    -2.047518e-04     3.188910e-04    -2.0247e-04      0.106 (TRAH MIcro)
    7      -3165.076268573213     5.031761e-03                     0.484 (TRAH MAcro)   No
WARNING : small    HOMO - LUMO gap : (op = alpha) 0.019614
WARNING : small    HOMO - LUMO gap : (op =  beta) 0.019182
    7     dE    -4.534268e-06     5.322649e-03    -4.5343e-06      0.001 (TRAH MIcro)
    7     dE    -7.149542e-06     1.058878e-03    -7.1495e-06      0.003 (TRAH MIcro)
    7     dE    -8.596324e-06     9.651354e-04    -8.5960e-06      0.007 (TRAH MIcro)
    7     dE    -9.321911e-06     7.874502e-04    -9.3210e-06      0.010 (TRAH MIcro)
    7     dE    -9.561114e-06     5.490530e-04    -9.5599e-06      0.011 (TRAH MIcro)
    7     dE    -9.692384e-06     2.712479e-04    -9.6909e-06      0.012 (TRAH MIcro)
    8      -3165.076278456568     2.793493e-04                           (NR   MAcro)
WARNING : small    HOMO - LUMO gap : (op = alpha) 0.019683
WARNING : small    HOMO - LUMO gap : (op =  beta) 0.018244
    8     dE    -2.081025e-08     2.213322e-04                           (NR   MIcro)
    8     dE    -3.591880e-08     1.452185e-04                           (NR   MIcro)
    8     dE    -5.752687e-08     1.453917e-04                           (NR   MIcro)
    8     dE    -7.134595e-08     9.116572e-05                           (NR   MIcro)
    8     dE    -7.442620e-08     5.882119e-05                           (NR   MIcro)
    8     dE    -7.574421e-08     2.848485e-05                           (NR   MIcro)
    8     dE    -7.607553e-08     1.229466e-05                           (NR   MIcro)
    8     dE    -7.613834e-08     5.657534e-06                           (NR   MIcro)
    8     dE    -7.615197e-08     2.411954e-06                           (NR   MIcro)
    9      -3165.076278532937     2.621197e-06                           (NR   MAcro)
WARNING : small    HOMO - LUMO gap : (op = alpha) 0.019678
WARNING : small    HOMO - LUMO gap : (op =  beta) 0.018233

               *****************************************************
               *                     SUCCESS                       *
               *           SCF CONVERGED AFTER  89 CYCLES          *
               *****************************************************


----------------
TOTAL SCF ENERGY
----------------

Total Energy       :        -3165.07627853 Eh          -86126.10411 eV

Components:
Nuclear Repulsion  :         5713.36915206 Eh          155468.67850 eV
Electronic Energy  :        -8878.44543059 Eh         -241594.78261 eV
One Electron Energy:       -16501.65638348 Eh         -449032.89859 eV
Two Electron Energy:         7623.21095289 Eh          207438.11598 eV

Virial components:
Potential Energy   :        -5067.69128538 Eh         -137898.89052 eV
Kinetic Energy     :         1902.61500685 Eh           51772.78641 eV
Virial Ratio       :            2.66354006


DFT components:
N(Alpha)           :      147.999995686197 electrons
N(Beta)            :      144.000003015664 electrons
N(Total)           :      291.999998701861 electrons
E(X)               :     -223.023428271113 Eh       
E(C)               :      -12.771612255675 Eh       
E(XC)              :     -235.795040526788 Eh       
DFET-embed. en.    :        0.000000000000 Eh       

---------------
SCF CONVERGENCE
---------------

  Last Energy change         ...   -7.6369e-08  Tolerance :   1.0000e-06
  Last Orbital Gradient      ...    2.6212e-06  Tolerance :   5.0000e-05
  Last Orbital Rotation      ...    1.8084e-03

             **** THE GBW FILE WAS UPDATED (pbeSP.gbw) ****
             **** DENSITY pbeSP.scfp WAS UPDATED ****
             **** ENERGY FILE WAS UPDATED (pbeSP.en.tmp) ****
----------------------
UHF SPIN CONTAMINATION
----------------------

Warning: in a DFT calculation there is little theoretical justification to 
         calculate <S**2> as in Hartree-Fock theory. We will do it anyways
         but you should keep in mind that the values have only limited relevance

Expectation value of <S**2>     :     6.332540
Ideal value S*(S+1) for S=2.0   :     6.000000
Deviation                       :     0.332540

             **** THE GBW FILE WAS UPDATED (pbeSP.gbw) ****
             **** DENSITY pbeSP.scfp WAS UPDATED ****
----------------
ORBITAL ENERGIES
----------------
                 SPIN UP ORBITALS
  NO   OCC          E(Eh)            E(eV) 
   0   1.0000    -254.774382     -6932.7634 
   1   1.0000     -29.614770      -805.8589 
   2   1.0000     -25.557061      -695.4430 
   3   1.0000     -25.547097      -695.1719 
   4   1.0000     -25.544604      -695.1040 
   5   1.0000      -4.037577      -109.8681 
   6   1.0000      -4.034625      -109.7877 
   7   1.0000      -4.030273      -109.6693 
   8   1.0000      -4.030243      -109.6685 
   9   1.0000      -4.029055      -109.6362 
  10   1.0000      -4.029000      -109.6347 
  11   1.0000      -4.028586      -109.6234 
  12   1.0000      -4.028563      -109.6228 
  13   1.0000      -4.024268      -109.5059 
  14   1.0000      -4.024126      -109.5020 
  15   1.0000      -4.023679      -109.4899 
  16   1.0000      -4.021774      -109.4380 
  17   1.0000      -4.021730      -109.4368 
  18   1.0000      -4.020188      -109.3949 
  19   1.0000      -3.394401       -92.3663 
  20   1.0000      -2.254206       -61.3401 
  21   1.0000      -2.252526       -61.2944 
  22   1.0000      -2.249818       -61.2207 
  23   1.0000      -2.248821       -61.1935 
  24   1.0000      -2.248290       -61.1791 
  25   1.0000      -2.246415       -61.1280 
  26   1.0000      -2.246009       -61.1170 
  27   1.0000      -2.245837       -61.1123 
  28   1.0000      -2.245687       -61.1082 
  29   1.0000      -2.245543       -61.1043 
  30   1.0000      -2.244181       -61.0673 
  31   1.0000      -2.244071       -61.0643 
  32   1.0000      -2.242991       -61.0349 
  33   1.0000      -2.242855       -61.0312 
  34   1.0000      -2.242469       -61.0207 
  35   1.0000      -2.241994       -61.0078 
  36   1.0000      -2.241822       -61.0031 
  37   1.0000      -2.241536       -60.9953 
  38   1.0000      -2.240428       -60.9651 
  39   1.0000      -2.240017       -60.9540 
  40   1.0000      -2.240002       -60.9536 
  41   1.0000      -2.239692       -60.9451 
  42   1.0000      -2.239554       -60.9414 
  43   1.0000      -2.238734       -60.9190 
  44   1.0000      -2.238419       -60.9105 
  45   1.0000      -2.237376       -60.8821 
  46   1.0000      -2.237108       -60.8748 
  47   1.0000      -2.236934       -60.8701 
  48   1.0000      -2.236467       -60.8574 
  49   1.0000      -2.236375       -60.8549 
  50   1.0000      -2.236289       -60.8525 
  51   1.0000      -2.235667       -60.8356 
  52   1.0000      -2.235410       -60.8286 
  53   1.0000      -2.235178       -60.8223 
  54   1.0000      -2.234769       -60.8112 
  55   1.0000      -2.233716       -60.7825 
  56   1.0000      -2.233636       -60.7803 
  57   1.0000      -2.233526       -60.7773 
  58   1.0000      -2.232856       -60.7591 
  59   1.0000      -2.232570       -60.7513 
  60   1.0000      -2.232539       -60.7505 
  61   1.0000      -2.229440       -60.6662 
  62   1.0000      -2.222723       -60.4834 
  63   1.0000      -2.202148       -59.9235 
  64   1.0000      -2.197896       -59.8078 
  65   1.0000      -0.437354       -11.9010 
  66   1.0000      -0.395894       -10.7728 
  67   1.0000      -0.389148       -10.5892 
  68   1.0000      -0.387019       -10.5313 
  69   1.0000      -0.378516       -10.2999 
  70   1.0000      -0.376757       -10.2521 
  71   1.0000      -0.376025       -10.2321 
  72   1.0000      -0.374396       -10.1878 
  73   1.0000      -0.366797        -9.9811 
  74   1.0000      -0.365117        -9.9353 
  75   1.0000      -0.358617        -9.7585 
  76   1.0000      -0.352841        -9.6013 
  77   1.0000      -0.352554        -9.5935 
  78   1.0000      -0.352121        -9.5817 
  79   1.0000      -0.349695        -9.5157 
  80   1.0000      -0.347148        -9.4464 
  81   1.0000      -0.345610        -9.4045 
  82   1.0000      -0.343491        -9.3469 
  83   1.0000      -0.343159        -9.3378 
  84   1.0000      -0.340489        -9.2652 
  85   1.0000      -0.339457        -9.2371 
  86   1.0000      -0.338360        -9.2072 
  87   1.0000      -0.334994        -9.1156 
  88   1.0000      -0.330832        -9.0024 
  89   1.0000      -0.329342        -8.9619 
  90   1.0000      -0.328865        -8.9489 
  91   1.0000      -0.327816        -8.9203 
  92   1.0000      -0.321902        -8.7594 
  93   1.0000      -0.321623        -8.7518 
  94   1.0000      -0.319901        -8.7049 
  95   1.0000      -0.319312        -8.6889 
  96   1.0000      -0.317896        -8.6504 
  97   1.0000      -0.308327        -8.3900 
  98   1.0000      -0.308231        -8.3874 
  99   1.0000      -0.303621        -8.2620 
 100   1.0000      -0.301648        -8.2083 
 101   1.0000      -0.299533        -8.1507 
 102   1.0000      -0.297494        -8.0952 
 103   1.0000      -0.293004        -7.9730 
 104   1.0000      -0.291728        -7.9383 
 105   1.0000      -0.291133        -7.9221 
 106   1.0000      -0.285633        -7.7725 
 107   1.0000      -0.285046        -7.7565 
 108   1.0000      -0.282819        -7.6959 
 109   1.0000      -0.281181        -7.6513 
 110   1.0000      -0.280943        -7.6448 
 111   1.0000      -0.279101        -7.5947 
 112   1.0000      -0.279036        -7.5930 
 113   1.0000      -0.277118        -7.5408 
 114   1.0000      -0.273231        -7.4350 
 115   1.0000      -0.272795        -7.4231 
 116   1.0000      -0.270757        -7.3677 
 117   1.0000      -0.270073        -7.3491 
 118   1.0000      -0.268942        -7.3183 
 119   1.0000      -0.267863        -7.2889 
 120   1.0000      -0.267014        -7.2658 
 121   1.0000      -0.265861        -7.2344 
 122   1.0000      -0.265103        -7.2138 
 123   1.0000      -0.261440        -7.1142 
 124   1.0000      -0.261264        -7.1094 
 125   1.0000      -0.261133        -7.1058 
 126   1.0000      -0.260681        -7.0935 
 127   1.0000      -0.258994        -7.0476 
 128   1.0000      -0.258664        -7.0386 
 129   1.0000      -0.256168        -6.9707 
 130   1.0000      -0.255797        -6.9606 
 131   1.0000      -0.254145        -6.9157 
 132   1.0000      -0.253652        -6.9022 
 133   1.0000      -0.253242        -6.8911 
 134   1.0000      -0.252156        -6.8615 
 135   1.0000      -0.252115        -6.8604 
 136   1.0000      -0.249844        -6.7986 
 137   1.0000      -0.248078        -6.7506 
 138   1.0000      -0.246395        -6.7048 
 139   1.0000      -0.243800        -6.6341 
 140   1.0000      -0.243652        -6.6301 
 141   1.0000      -0.240970        -6.5571 
 142   1.0000      -0.238328        -6.4852 
 143   1.0000      -0.229734        -6.2514 
 144   1.0000      -0.218415        -5.9434 
 145   1.0000      -0.212806        -5.7907 
 146   1.0000      -0.197436        -5.3725 
 147   1.0000      -0.192988        -5.2515 
 148   0.0000      -0.173310        -4.7160 
 149   0.0000      -0.142888        -3.8882 
 150   0.0000      -0.134623        -3.6633 
 151   0.0000      -0.132701        -3.6110 
 152   0.0000      -0.123712        -3.3664 
 153   0.0000      -0.121699        -3.3116 
 154   0.0000      -0.112740        -3.0678 
 155   0.0000      -0.073524        -2.0007 
 156   0.0000      -0.068490        -1.8637 
 157   0.0000      -0.067480        -1.8362 
 158   0.0000      -0.060639        -1.6501 
 159   0.0000      -0.042466        -1.1556 
 160   0.0000      -0.033941        -0.9236 
 161   0.0000      -0.032617        -0.8876 
 162   0.0000      -0.029843        -0.8121 
 163   0.0000      -0.027398        -0.7455 
 164   0.0000      -0.024265        -0.6603 
 165   0.0000      -0.014033        -0.3819 
 166   0.0000      -0.006677        -0.1817 
 167   0.0000       0.021621         0.5883 
 168   0.0000       0.026448         0.7197 
 169   0.0000       0.027588         0.7507 
 170   0.0000       0.030584         0.8322 
 171   0.0000       0.035805         0.9743 
 172   0.0000       0.045714         1.2440 
 173   0.0000       0.049177         1.3382 
 174   0.0000       0.050424         1.3721 
 175   0.0000       0.055901         1.5211 
 176   0.0000       0.057621         1.5679 
 177   0.0000       0.063322         1.7231 
 178   0.0000       0.063898         1.7388 
 179   0.0000       0.066168         1.8005 
 180   0.0000       0.068079         1.8525 
 181   0.0000       0.073429         1.9981 
 182   0.0000       0.080785         2.1983 
 183   0.0000       0.084393         2.2965 
 184   0.0000       0.085983         2.3397 
 185   0.0000       0.088618         2.4114 
 186   0.0000       0.096505         2.6260 
 187   0.0000       0.101506         2.7621 
 188   0.0000       0.103902         2.8273 
 189   0.0000       0.120743         3.2856 
 190   0.0000       0.122891         3.3440 
 191   0.0000       0.133649         3.6368 
 192   0.0000       0.135526         3.6878 
 193   0.0000       0.144514         3.9324 
 194   0.0000       0.144732         3.9384 
 195   0.0000       0.145408         3.9568 
 196   0.0000       0.152561         4.1514 
 197   0.0000       0.157515         4.2862 
 198   0.0000       0.158473         4.3123 
 199   0.0000       0.162695         4.4272 
 200   0.0000       0.165389         4.5005 
 201   0.0000       0.171634         4.6704 
 202   0.0000       0.174938         4.7603 
 203   0.0000       0.179932         4.8962 
 204   0.0000       0.185751         5.0545 
 205   0.0000       0.190464         5.1828 
 206   0.0000       0.201331         5.4785 
 207   0.0000       0.202351         5.5062 
 208   0.0000       0.209817         5.7094 
 209   0.0000       0.212402         5.7797 
 210   0.0000       0.215182         5.8554 
 211   0.0000       0.215851         5.8736 
 212   0.0000       0.224096         6.0980 
 213   0.0000       0.225193         6.1278 
 214   0.0000       0.228446         6.2163 
 215   0.0000       0.235809         6.4167 
 216   0.0000       0.238957         6.5024 
 217   0.0000       0.240447         6.5429 
 218   0.0000       0.246528         6.7084 
 219   0.0000       0.249647         6.7932 
 220   0.0000       0.250337         6.8120 
 221   0.0000       0.262077         7.1315 
 222   0.0000       0.268154         7.2968 
 223   0.0000       0.273841         7.4516 
 224   0.0000       0.276511         7.5242 
 225   0.0000       0.278525         7.5790 
 226   0.0000       0.281811         7.6685 
 227   0.0000       0.297253         8.0887 
 228   0.0000       0.298120         8.1123 
 229   0.0000       0.299833         8.1589 
 230   0.0000       0.307584         8.3698 
 231   0.0000       0.313247         8.5239 
 232   0.0000       0.315897         8.5960 
 233   0.0000       0.315989         8.5985 
 234   0.0000       0.324575         8.8321 
 235   0.0000       0.330070         8.9817 
 236   0.0000       0.334305         9.0969 
 237   0.0000       0.335121         9.1191 
 238   0.0000       0.342198         9.3117 
 239   0.0000       0.344977         9.3873 
 240   0.0000       0.346348         9.4246 
 241   0.0000       0.350571         9.5395 
 242   0.0000       0.357747         9.7348 
 243   0.0000       0.358292         9.7496 
 244   0.0000       0.373733        10.1698 
 245   0.0000       0.375139        10.2081 
 246   0.0000       0.381660        10.3855 
 247   0.0000       0.386516        10.5176 
 248   0.0000       0.387053        10.5322 
 249   0.0000       0.398455        10.8425 
 250   0.0000       0.401887        10.9359 
 251   0.0000       0.406105        11.0507 
 252   0.0000       0.407237        11.0815 
 253   0.0000       0.411400        11.1948 
 254   0.0000       0.415301        11.3009 
 255   0.0000       0.423702        11.5295 
 256   0.0000       0.424965        11.5639 
 257   0.0000       0.425038        11.5659 
 258   0.0000       0.433487        11.7958 
 259   0.0000       0.434165        11.8142 
 260   0.0000       0.441044        12.0014 
 261   0.0000       0.447462        12.1761 
 262   0.0000       0.459031        12.4909 
 263   0.0000       0.459939        12.5156 
 264   0.0000       0.466577        12.6962 
 265   0.0000       0.472223        12.8498 
 266   0.0000       0.473416        12.8823 
 267   0.0000       0.476866        12.9762 
 268   0.0000       0.478478        13.0201 
 269   0.0000       0.480559        13.0767 
 270   0.0000       0.483960        13.1692 
 271   0.0000       0.488701        13.2982 
 272   0.0000       0.492390        13.3986 
 273   0.0000       0.492615        13.4047 
 274   0.0000       0.498211        13.5570 
 275   0.0000       0.502209        13.6658 
 276   0.0000       0.503545        13.7022 
 277   0.0000       0.507154        13.8004 
 278   0.0000       0.518164        14.1000 
 279   0.0000       0.520927        14.1751 
 280   0.0000       0.524542        14.2735 
 281   0.0000       0.529082        14.3970 
 282   0.0000       0.530555        14.4371 
 283   0.0000       0.534149        14.5349 
 284   0.0000       0.537628        14.6296 
 285   0.0000       0.547699        14.9036 
 286   0.0000       0.548079        14.9140 
 287   0.0000       0.550958        14.9923 
 288   0.0000       0.553277        15.0554 
 289   0.0000       0.592426        16.1207 
 290   0.0000       0.609746        16.5920 
 291   0.0000       0.637974        17.3602 
 292   0.0000       0.650216        17.6933 
 293   0.0000       0.669693        18.2233 
 294   0.0000       0.679561        18.4918 
 295   0.0000       0.682076        18.5602 
 296   0.0000       0.689001        18.7487 
 297   0.0000       0.697403        18.9773 
 298   0.0000       0.704711        19.1762 
 299   0.0000       0.710337        19.3293 
 300   0.0000       0.718594        19.5539 
 301   0.0000       0.724805        19.7230 
 302   0.0000       0.730305        19.8726 
 303   0.0000       0.753449        20.5024 
 304   0.0000       0.756625        20.5888 
 305   0.0000       0.758035        20.6272 
 306   0.0000       0.771536        20.9946 
 307   0.0000       0.775597        21.1051 
 308   0.0000       0.777607        21.1598 
 309   0.0000       0.798027        21.7154 
 310   0.0000       0.807599        21.9759 
 311   0.0000       0.809524        22.0283 
 312   0.0000       0.819407        22.2972 
 313   0.0000       0.840610        22.8742 
 314   0.0000       0.844508        22.9802 
 315   0.0000       0.849603        23.1189 
 316   0.0000       0.868833        23.6422 
 317   0.0000       0.876511        23.8511 
 318   0.0000       0.884179        24.0597 
 319   0.0000       0.901103        24.5202 
 320   0.0000       0.906466        24.6662 
 321   0.0000       0.908541        24.7227 
 322   0.0000       0.911552        24.8046 
 323   0.0000       0.924003        25.1434 
 324   0.0000       0.932285        25.3688 
 325   0.0000       0.943833        25.6830 
 326   0.0000       0.953503        25.9461 
 327   0.0000       0.967032        26.3143 
 328   0.0000       0.973038        26.4777 
 329   0.0000       1.015094        27.6221 
 330   0.0000       1.048633        28.5347 
 331   0.0000       1.061425        28.8828 
 332   0.0000       1.117611        30.4117 
 333   0.0000       1.141072        31.0501 
 334   0.0000       1.161789        31.6139 
 335   0.0000       1.183801        32.2129 
 336   0.0000       1.189636        32.3716 
 337   0.0000       1.194483        32.5035 
 338   0.0000       1.199470        32.6393 
 339   0.0000       1.200659        32.6716 
 340   0.0000       1.235765        33.6269 
 341   0.0000       1.244263        33.8581 
 342   0.0000       1.258686        34.2506 
 343   0.0000       1.264741        34.4154 
 344   0.0000       1.278016        34.7766 
 345   0.0000       1.287039        35.0221 
 346   0.0000       1.296114        35.2691 
 347   0.0000       1.302771        35.4502 
 348   0.0000       1.305601        35.5272 
 349   0.0000       1.314622        35.7727 
 350   0.0000       1.328326        36.1456 
 351   0.0000       1.329798        36.1856 
 352   0.0000       1.336126        36.3578 
 353   0.0000       1.336335        36.3635 
 354   0.0000       1.346678        36.6450 
 355   0.0000       1.353323        36.8258 
 356   0.0000       1.355263        36.8786 
 357   0.0000       1.379643        37.5420 
 358   0.0000       1.384859        37.6839 
 359   0.0000       1.393995        37.9325 
 360   0.0000       1.397981        38.0410 
 361   0.0000       1.401688        38.1419 
 362   0.0000       1.405520        38.2461 
 363   0.0000       1.409998        38.3680 
 364   0.0000       1.411291        38.4032 
 365   0.0000       1.418824        38.6082 
 366   0.0000       1.422137        38.6983 
 367   0.0000       1.424112        38.7521 
 368   0.0000       1.427626        38.8477 
 369   0.0000       1.428009        38.8581 
 370   0.0000       1.432959        38.9928 
 371   0.0000       1.436858        39.0989 
 372   0.0000       1.438293        39.1379 
 373   0.0000       1.442177        39.2436 
 374   0.0000       1.453308        39.5465 
 375   0.0000       1.454009        39.5656 
 376   0.0000       1.454235        39.5718 
 377   0.0000       1.459340        39.7107 
 378   0.0000       1.463914        39.8351 
 379   0.0000       1.464670        39.8557 
 380   0.0000       1.465961        39.8908 
 381   0.0000       1.469732        39.9934 
 382   0.0000       1.471670        40.0462 
 383   0.0000       1.472781        40.0764 
 384   0.0000       1.474871        40.1333 
 385   0.0000       1.475436        40.1486 
 386   0.0000       1.477582        40.2070 
 387   0.0000       1.482544        40.3421 
 388   0.0000       1.485473        40.4218 
 389   0.0000       1.486661        40.4541 
 390   0.0000       1.487356        40.4730 
 391   0.0000       1.489108        40.5207 
 392   0.0000       1.489795        40.5394 
 393   0.0000       1.492140        40.6032 
 394   0.0000       1.494657        40.6717 
 395   0.0000       1.494760        40.6745 
 396   0.0000       1.495763        40.7018 
 397   0.0000       1.498236        40.7691 
 398   0.0000       1.498603        40.7791 
 399   0.0000       1.500120        40.8204 
 400   0.0000       1.502333        40.8806 
 401   0.0000       1.505358        40.9629 
 402   0.0000       1.506117        40.9835 
 403   0.0000       1.507152        41.0117 
 404   0.0000       1.508110        41.0378 
 405   0.0000       1.508995        41.0619 
 406   0.0000       1.510180        41.0941 
 407   0.0000       1.510513        41.1031 
 408   0.0000       1.511111        41.1194 
 409   0.0000       1.513319        41.1795 
 410   0.0000       1.515302        41.2335 
 411   0.0000       1.516826        41.2749 
 412   0.0000       1.516902        41.2770 
 413   0.0000       1.519287        41.3419 
 414   0.0000       1.521105        41.3914 
 415   0.0000       1.521248        41.3953 
 416   0.0000       1.523178        41.4478 
 417   0.0000       1.524280        41.4778 
 418   0.0000       1.527070        41.5537 
 419   0.0000       1.528432        41.5907 
 420   0.0000       1.529331        41.6152 
 421   0.0000       1.531057        41.6622 
 422   0.0000       1.531277        41.6682 
 423   0.0000       1.533419        41.7265 
 424   0.0000       1.534605        41.7587 
 425   0.0000       1.538652        41.8689 
 426   0.0000       1.540322        41.9143 
 427   0.0000       1.542580        41.9757 
 428   0.0000       1.546178        42.0737 
 429   0.0000       1.547138        42.0998 
 430   0.0000       1.550709        42.1969 
 431   0.0000       1.551918        42.2298 
 432   0.0000       1.554601        42.3029 
 433   0.0000       1.554758        42.3071 
 434   0.0000       1.558064        42.3971 
 435   0.0000       1.558348        42.4048 
 436   0.0000       1.561575        42.4926 
 437   0.0000       1.566642        42.6305 
 438   0.0000       1.567450        42.6525 
 439   0.0000       1.568896        42.6918 
 440   0.0000       1.572593        42.7924 
 441   0.0000       1.572971        42.8027 
 442   0.0000       1.576904        42.9097 
 443   0.0000       1.580904        43.0186 
 444   0.0000       1.582215        43.0543 
 445   0.0000       1.585111        43.1331 
 446   0.0000       1.588304        43.2199 
 447   0.0000       1.590286        43.2739 
 448   0.0000       1.592163        43.3250 
 449   0.0000       1.596491        43.4427 
 450   0.0000       1.599841        43.5339 
 451   0.0000       1.601302        43.5736 
 452   0.0000       1.603706        43.6391 
 453   0.0000       1.606690        43.7202 
 454   0.0000       1.610555        43.8254 
 455   0.0000       1.616361        43.9834 
 456   0.0000       1.616477        43.9866 
 457   0.0000       1.617778        44.0220 
 458   0.0000       1.622456        44.1493 
 459   0.0000       1.627760        44.2936 
 460   0.0000       1.631300        44.3899 
 461   0.0000       1.632773        44.4300 
 462   0.0000       1.640080        44.6288 
 463   0.0000       1.642013        44.6814 
 464   0.0000       1.644032        44.7364 
 465   0.0000       1.646264        44.7971 
 466   0.0000       1.652376        44.9634 
 467   0.0000       1.654224        45.0137 
 468   0.0000       1.656940        45.0876 
 469   0.0000       1.661516        45.2121 
 470   0.0000       1.670995        45.4701 
 471   0.0000       1.692799        46.0634 
 472   0.0000       1.703404        46.3520 
 473   0.0000       1.707076        46.4519 
 474   0.0000       1.721107        46.8337 
 475   0.0000       1.721482        46.8439 
 476   0.0000       1.726961        46.9930 
 477   0.0000       1.731465        47.1155 
 478   0.0000       1.752297        47.6824 
 479   0.0000       1.756148        47.7872 
 480   0.0000       1.757064        47.8121 
 481   0.0000       1.763376        47.9839 
 482   0.0000       1.764183        48.0059 
 483   0.0000       1.775905        48.3248 
 484   0.0000       1.778133        48.3854 
 485   0.0000       1.783203        48.5234 
 486   0.0000       1.792842        48.7857 
 487   0.0000       1.798196        48.9314 
 488   0.0000       1.801091        49.0102 
 489   0.0000       1.813954        49.3602 
 490   0.0000       1.816082        49.4181 
 491   0.0000       1.831037        49.8250 
 492   0.0000       1.834023        49.9063 
 493   0.0000       1.843240        50.1571 
 494   0.0000       1.845742        50.2252 
 495   0.0000       1.878602        51.1194 
 496   0.0000       1.888043        51.3763 
 497   0.0000       1.900256        51.7086 
 498   0.0000       1.902762        51.7768 
 499   0.0000       1.928070        52.4654 
 500   0.0000       1.934553        52.6419 
 501   0.0000       1.964979        53.4698 
 502   0.0000       1.989040        54.1245 
 503   0.0000       2.006530        54.6005 
 504   0.0000       2.019682        54.9583 
 505   0.0000       2.169927        59.0467 
 506   0.0000       2.254148        61.3385 
 507   0.0000       2.284454        62.1632 
 508   0.0000       2.302131        62.6442 
 509   0.0000       2.385608        64.9157 
 510   0.0000       2.409208        65.5579 
 511   0.0000       2.431638        66.1682 
 512   0.0000       2.446900        66.5835 
 513   0.0000       2.453457        66.7620 
 514   0.0000       2.484854        67.6163 
 515   0.0000       2.492945        67.8365 
 516   0.0000       2.501225        68.0618 
 517   0.0000       2.506811        68.2138 
 518   0.0000       2.512787        68.3764 
 519   0.0000       2.514693        68.4283 
 520   0.0000       2.580834        70.2281 
 521   0.0000       2.583020        70.2876 
 522   0.0000       3.305890        89.9578 
 523   0.0000       3.525212        95.9259 
 524   0.0000       3.627916        98.7206 
 525   0.0000       3.645757        99.2061 
 526   0.0000       3.682654       100.2101 
 527   0.0000       3.689731       100.4027 
 528   0.0000       3.883932       105.6872 
 529   0.0000       3.884350       105.6985 
 530   0.0000       3.889273       105.8325 
 531   0.0000       3.892490       105.9200 
 532   0.0000       3.897243       106.0494 
 533   0.0000       3.906894       106.3120 
 534   0.0000       3.907959       106.3410 
 535   0.0000      23.824880       648.3079 
 536   0.0000      23.861741       649.3110 
 537   0.0000      23.965966       652.1471 
 538   0.0000      24.162596       657.4977 
 539   0.0000      24.170519       657.7133 
 540   0.0000      24.428762       664.7404 
 541   0.0000      24.628948       670.1877 
 542   0.0000      24.632962       670.2970 
 543   0.0000      24.915109       677.9746 
 544   0.0000      25.105676       683.1602 
 545   0.0000      25.359019       690.0540 
 546   0.0000      25.403122       691.2541 
 547   0.0000      25.512716       694.2363 
 548   0.0000      25.715639       699.7581 
 549   0.0000      25.745318       700.5657 
 550   0.0000      25.818674       702.5618 
 551   0.0000      25.910561       705.0622 
 552   0.0000      25.998755       707.4621 
 553   0.0000      26.101200       710.2498 
 554   0.0000      26.221270       713.5170 
 555   0.0000      26.225509       713.6324 
 556   0.0000      26.287462       715.3182 
 557   0.0000      26.434805       719.3276 
 558   0.0000      26.550450       722.4745 
 559   0.0000      26.570762       723.0272 
 560   0.0000      26.716388       726.9899 
 561   0.0000      26.755929       728.0658 
 562   0.0000      26.924361       732.6491 
 563   0.0000      27.022823       735.3284 
 564   0.0000      27.166726       739.2442 
 565   0.0000      27.232961       741.0465 
 566   0.0000      27.310824       743.1653 
 567   0.0000      27.529229       749.1084 
 568   0.0000      27.692009       753.5379 
 569   0.0000      27.759460       755.3733 
 570   0.0000      27.960642       760.8477 
 571   0.0000      28.009704       762.1828 
 572   0.0000      28.616638       778.6983 
 573   0.0000      28.807399       783.8892 
 574   0.0000      29.399355       799.9971 
 575   0.0000      29.771735       810.1301 
 576   0.0000      30.438244       828.2667 
 577   0.0000      43.896346      1194.4803 
 578   0.0000      44.008035      1197.5195 
 579   0.0000      44.034862      1198.2495 
 580   0.0000      44.057528      1198.8663 
 581   0.0000      44.116511      1200.4713 
 582   0.0000      44.119968      1200.5654 
 583   0.0000      44.133413      1200.9312 
 584   0.0000      44.146571      1201.2893 
 585   0.0000      44.162175      1201.7139 
 586   0.0000      44.166522      1201.8322 
 587   0.0000      44.172064      1201.9830 
 588   0.0000      44.196755      1202.6549 
 589   0.0000      44.230690      1203.5783 
 590   0.0000      44.280523      1204.9343 
 591   0.0000     205.086910      5580.6985 
 592   0.0000     205.133387      5581.9632 
 593   0.0000     205.144057      5582.2536 
 594   0.0000     205.150561      5582.4306 
 595   0.0000     205.178288      5583.1851 
 596   0.0000     205.182192      5583.2913 
 597   0.0000     205.189393      5583.4872 
 598   0.0000     205.195143      5583.6437 
 599   0.0000     205.196818      5583.6893 
 600   0.0000     205.201079      5583.8052 
 601   0.0000     205.201228      5583.8093 
 602   0.0000     205.210806      5584.0699 
 603   0.0000     205.226671      5584.5016 
 604   0.0000     205.239495      5584.8506 

                 SPIN DOWN ORBITALS
  NO   OCC          E(Eh)            E(eV) 
   0   1.0000    -254.773656     -6932.7436 
   1   1.0000     -29.552887      -804.1749 
   2   1.0000     -25.506814      -694.0757 
   3   1.0000     -25.501569      -693.9330 
   4   1.0000     -25.500168      -693.8949 
   5   1.0000      -4.036400      -109.8360 
   6   1.0000      -4.034357      -109.7804 
   7   1.0000      -4.029325      -109.6435 
   8   1.0000      -4.029293      -109.6426 
   9   1.0000      -4.028469      -109.6202 
  10   1.0000      -4.028416      -109.6188 
  11   1.0000      -4.028050      -109.6088 
  12   1.0000      -4.028024      -109.6081 
  13   1.0000      -4.023648      -109.4890 
  14   1.0000      -4.023505      -109.4851 
  15   1.0000      -4.023161      -109.4758 
  16   1.0000      -4.021842      -109.4399 
  17   1.0000      -4.021798      -109.4387 
  18   1.0000      -4.020182      -109.3947 
  19   1.0000      -3.255080       -88.5752 
  20   1.0000      -2.253198       -61.3126 
  21   1.0000      -2.250820       -61.2479 
  22   1.0000      -2.249178       -61.2032 
  23   1.0000      -2.248266       -61.1784 
  24   1.0000      -2.247754       -61.1645 
  25   1.0000      -2.245690       -61.1083 
  26   1.0000      -2.245367       -61.0995 
  27   1.0000      -2.244997       -61.0895 
  28   1.0000      -2.244798       -61.0841 
  29   1.0000      -2.244418       -61.0737 
  30   1.0000      -2.243226       -61.0413 
  31   1.0000      -2.243100       -61.0379 
  32   1.0000      -2.242260       -61.0150 
  33   1.0000      -2.242139       -61.0117 
  34   1.0000      -2.241516       -60.9947 
  35   1.0000      -2.241300       -60.9889 
  36   1.0000      -2.240847       -60.9765 
  37   1.0000      -2.240214       -60.9593 
  38   1.0000      -2.239893       -60.9506 
  39   1.0000      -2.239635       -60.9436 
  40   1.0000      -2.239149       -60.9303 
  41   1.0000      -2.239070       -60.9282 
  42   1.0000      -2.239013       -60.9266 
  43   1.0000      -2.237881       -60.8958 
  44   1.0000      -2.237604       -60.8883 
  45   1.0000      -2.237012       -60.8722 
  46   1.0000      -2.236484       -60.8578 
  47   1.0000      -2.236383       -60.8551 
  48   1.0000      -2.236302       -60.8529 
  49   1.0000      -2.236163       -60.8491 
  50   1.0000      -2.236018       -60.8451 
  51   1.0000      -2.235566       -60.8329 
  52   1.0000      -2.235276       -60.8250 
  53   1.0000      -2.235006       -60.8176 
  54   1.0000      -2.234495       -60.8037 
  55   1.0000      -2.233702       -60.7821 
  56   1.0000      -2.233444       -60.7751 
  57   1.0000      -2.233266       -60.7703 
  58   1.0000      -2.232664       -60.7539 
  59   1.0000      -2.232636       -60.7531 
  60   1.0000      -2.232583       -60.7517 
  61   1.0000      -2.229320       -60.6629 
  62   1.0000      -2.075839       -56.4865 
  63   1.0000      -2.069336       -56.3095 
  64   1.0000      -2.068730       -56.2930 
  65   1.0000      -0.432846       -11.7783 
  66   1.0000      -0.394933       -10.7467 
  67   1.0000      -0.385961       -10.5025 
  68   1.0000      -0.385112       -10.4794 
  69   1.0000      -0.370400       -10.0791 
  70   1.0000      -0.367840       -10.0094 
  71   1.0000      -0.367513       -10.0005 
  72   1.0000      -0.366843        -9.9823 
  73   1.0000      -0.363913        -9.9026 
  74   1.0000      -0.358353        -9.7513 
  75   1.0000      -0.355696        -9.6790 
  76   1.0000      -0.352050        -9.5798 
  77   1.0000      -0.350423        -9.5355 
  78   1.0000      -0.349862        -9.5202 
  79   1.0000      -0.347941        -9.4679 
  80   1.0000      -0.343714        -9.3529 
  81   1.0000      -0.342351        -9.3158 
  82   1.0000      -0.341595        -9.2953 
  83   1.0000      -0.341284        -9.2868 
  84   1.0000      -0.337986        -9.1971 
  85   1.0000      -0.337858        -9.1936 
  86   1.0000      -0.337104        -9.1731 
  87   1.0000      -0.333838        -9.0842 
  88   1.0000      -0.329622        -8.9695 
  89   1.0000      -0.328784        -8.9467 
  90   1.0000      -0.325234        -8.8501 
  91   1.0000      -0.321697        -8.7538 
  92   1.0000      -0.320155        -8.7119 
  93   1.0000      -0.318287        -8.6610 
  94   1.0000      -0.314949        -8.5702 
  95   1.0000      -0.309076        -8.4104 
  96   1.0000      -0.308863        -8.4046 
  97   1.0000      -0.305618        -8.3163 
  98   1.0000      -0.303967        -8.2714 
  99   1.0000      -0.300295        -8.1714 
 100   1.0000      -0.295352        -8.0369 
 101   1.0000      -0.290306        -7.8996 
 102   1.0000      -0.288622        -7.8538 
 103   1.0000      -0.285734        -7.7752 
 104   1.0000      -0.284683        -7.7466 
 105   1.0000      -0.283749        -7.7212 
 106   1.0000      -0.283306        -7.7092 
 107   1.0000      -0.281130        -7.6499 
 108   1.0000      -0.281065        -7.6482 
 109   1.0000      -0.279027        -7.5927 
 110   1.0000      -0.278186        -7.5698 
 111   1.0000      -0.276233        -7.5167 
 112   1.0000      -0.275113        -7.4862 
 113   1.0000      -0.275016        -7.4836 
 114   1.0000      -0.271882        -7.3983 
 115   1.0000      -0.270907        -7.3717 
 116   1.0000      -0.269208        -7.3255 
 117   1.0000      -0.268796        -7.3143 
 118   1.0000      -0.267403        -7.2764 
 119   1.0000      -0.265242        -7.2176 
 120   1.0000      -0.262852        -7.1526 
 121   1.0000      -0.262045        -7.1306 
 122   1.0000      -0.260546        -7.0898 
 123   1.0000      -0.259974        -7.0743 
 124   1.0000      -0.259667        -7.0659 
 125   1.0000      -0.259580        -7.0635 
 126   1.0000      -0.257150        -6.9974 
 127   1.0000      -0.254710        -6.9310 
 128   1.0000      -0.254370        -6.9218 
 129   1.0000      -0.251516        -6.8441 
 130   1.0000      -0.251346        -6.8395 
 131   1.0000      -0.249266        -6.7829 
 132   1.0000      -0.248814        -6.7706 
 133   1.0000      -0.245729        -6.6866 
 134   1.0000      -0.244518        -6.6537 
 135   1.0000      -0.243680        -6.6309 
 136   1.0000      -0.240716        -6.5502 
 137   1.0000      -0.238863        -6.4998 
 138   1.0000      -0.230510        -6.2725 
 139   1.0000      -0.221018        -6.0142 
 140   1.0000      -0.216486        -5.8909 
 141   1.0000      -0.207091        -5.6352 
 142   1.0000      -0.205267        -5.5856 
 143   1.0000      -0.192969        -5.2510 
 144   0.0000      -0.174737        -4.7548 
 145   0.0000      -0.169765        -4.6195 
 146   0.0000      -0.169617        -4.6155 
 147   0.0000      -0.160927        -4.3790 
 148   0.0000      -0.154982        -4.2173 
 149   0.0000      -0.137463        -3.7406 
 150   0.0000      -0.130605        -3.5539 
 151   0.0000      -0.129681        -3.5288 
 152   0.0000      -0.120526        -3.2797 
 153   0.0000      -0.118865        -3.2345 
 154   0.0000      -0.107776        -2.9327 
 155   0.0000      -0.070230        -1.9110 
 156   0.0000      -0.064931        -1.7669 
 157   0.0000      -0.064088        -1.7439 
 158   0.0000      -0.060153        -1.6368 
 159   0.0000      -0.040147        -1.0924 
 160   0.0000      -0.031296        -0.8516 
 161   0.0000      -0.030738        -0.8364 
 162   0.0000      -0.025262        -0.6874 
 163   0.0000      -0.025004        -0.6804 
 164   0.0000      -0.020857        -0.5675 
 165   0.0000      -0.010384        -0.2826 
 166   0.0000      -0.002749        -0.0748 
 167   0.0000       0.024264         0.6602 
 168   0.0000       0.029688         0.8079 
 169   0.0000       0.031481         0.8567 
 170   0.0000       0.032426         0.8824 
 171   0.0000       0.038866         1.0576 
 172   0.0000       0.048526         1.3204 
 173   0.0000       0.051194         1.3931 
 174   0.0000       0.051267         1.3950 
 175   0.0000       0.059228         1.6117 
 176   0.0000       0.060348         1.6422 
 177   0.0000       0.065188         1.7739 
 178   0.0000       0.065779         1.7899 
 179   0.0000       0.067941         1.8488 
 180   0.0000       0.070464         1.9174 
 181   0.0000       0.075286         2.0486 
 182   0.0000       0.083587         2.2745 
 183   0.0000       0.085961         2.3391 
 184   0.0000       0.088467         2.4073 
 185   0.0000       0.090338         2.4582 
 186   0.0000       0.098442         2.6788 
[...]
      f-1     :     0.000808
      f+2     :     0.000930
      f-2     :     0.001009
      f+3     :     0.001068
      f-3     :     0.001015
  5 Aus       :     2.517949  s :     2.517949
      pz      :     2.146746  p :     6.574627
      px      :     2.216488
      py      :     2.211393
      dz2     :     1.997837  d :     9.899832
      dxz     :     1.950506
      dyz     :     1.991358
      dx2y2   :     1.974527
      dxy     :     1.985604
      f0      :     0.000772  f :     0.006652
      f+1     :     0.001069
      f-1     :     0.000757
      f+2     :     0.001017
      f-2     :     0.000791
      f+3     :     0.001272
      f-3     :     0.000975
  6 Aus       :     2.601771  s :     2.601771
      pz      :     2.188222  p :     6.460311
      px      :     2.122080
      py      :     2.150009
      dz2     :     1.987582  d :     9.861245
      dxz     :     1.944806
      dyz     :     1.979559
      dx2y2   :     1.967938
      dxy     :     1.981360
      f0      :     0.000787  f :     0.005570
      f+1     :     0.000856
      f-1     :     0.001006
      f+2     :     0.000861
      f-2     :     0.000638
      f+3     :     0.000818
      f-3     :     0.000604
  7 Aus       :     2.564586  s :     2.564586
      pz      :     2.117325  p :     6.506580
      px      :     2.276808
      py      :     2.112448
      dz2     :     1.977072  d :     9.858988
      dxz     :     1.975863
      dyz     :     1.960367
      dx2y2   :     1.955748
      dxy     :     1.989937
      f0      :     0.000783  f :     0.006261
      f+1     :     0.001197
      f-1     :     0.000553
      f+2     :     0.000788
      f-2     :     0.000546
      f+3     :     0.001211
      f-3     :     0.001182
  8 Aus       :     2.604089  s :     2.604089
      pz      :     2.152981  p :     6.460505
      px      :     2.140008
      py      :     2.167516
      dz2     :     1.974480  d :     9.860025
      dxz     :     1.964914
      dyz     :     1.982999
      dx2y2   :     1.989082
      dxy     :     1.948550
      f0      :     0.000783  f :     0.005560
      f+1     :     0.000672
      f-1     :     0.000876
      f+2     :     0.000587
      f-2     :     0.000742
      f+3     :     0.000818
      f-3     :     0.001082
  9 Aus       :     2.664968  s :     2.664968
      pz      :     2.095972  p :     6.373543
      px      :     2.150700
      py      :     2.126872
      dz2     :     1.979979  d :     9.887235
      dxz     :     1.967558
      dyz     :     1.984052
      dx2y2   :     1.975413
      dxy     :     1.980232
      f0      :     0.000585  f :     0.005087
      f+1     :     0.000938
      f-1     :     0.000623
      f+2     :     0.000783
      f-2     :     0.000536
      f+3     :     0.000919
      f-3     :     0.000703
 10 Aus       :     2.530780  s :     2.530780
      pz      :     2.272958  p :     6.611396
      px      :     2.208375
      py      :     2.130063
      dz2     :     1.979101  d :     9.880205
      dxz     :     1.956451
      dyz     :     1.978322
      dx2y2   :     1.989354
      dxy     :     1.976976
      f0      :     0.001000  f :     0.007520
      f+1     :     0.001797
      f-1     :     0.001010
      f+2     :     0.000979
      f-2     :     0.001421
      f+3     :     0.000624
      f-3     :     0.000688
 11 Aus       :     2.662151  s :     2.662151
      pz      :     2.111438  p :     6.374605
      px      :     2.155218
      py      :     2.107948
      dz2     :     1.992946  d :     9.889150
      dxz     :     1.977483
      dyz     :     1.973130
      dx2y2   :     1.967001
      dxy     :     1.978590
      f0      :     0.000690  f :     0.005086
      f+1     :     0.000930
      f-1     :     0.000774
      f+2     :     0.000793
      f-2     :     0.000732
      f+3     :     0.000694
      f-3     :     0.000473
 12 Aus       :     2.625669  s :     2.625669
      pz      :     2.200485  p :     6.478956
      px      :     2.110534
      py      :     2.167937
      dz2     :     1.964944  d :     9.914337
      dxz     :     1.998617
      dyz     :     1.966196
      dx2y2   :     1.984111
      dxy     :     2.000469
      f0      :     0.000769  f :     0.005432
      f+1     :     0.001086
      f-1     :     0.000637
      f+2     :     0.000747
      f-2     :     0.000928
      f+3     :     0.000564
      f-3     :     0.000702
 13 Aus       :     2.564640  s :     2.564640
      pz      :     2.091260  p :     6.506339
      px      :     2.274286
      py      :     2.140793
      dz2     :     1.942351  d :     9.858966
      dxz     :     1.971249
      dyz     :     1.985288
      dx2y2   :     1.976870
      dxy     :     1.983207
      f0      :     0.000832  f :     0.006266
      f+1     :     0.001091
      f-1     :     0.000499
      f+2     :     0.001153
      f-2     :     0.000777
      f+3     :     0.001132
      f-3     :     0.000781
 14 Fes       :     6.270026  s :     6.270026
      pz      :     4.199747  p :    12.571894
      px      :     4.174005
      py      :     4.198142
      dz2     :     1.533031  d :     7.766392
      dxz     :     1.386649
      dyz     :     1.497648
      dx2y2   :     1.792312
      dxy     :     1.556752
      f0      :     0.000109  f :     0.000522
      f+1     :     0.000053
      f-1     :     0.000060
      f+2     :     0.000087
      f-2     :     0.000071
      f+3     :     0.000066
      f-3     :     0.000076

SPIN
  0 Aus       :    -0.028348  s :    -0.028348
      pz      :    -0.038786  p :    -0.048510
      px      :    -0.003562
      py      :    -0.006162
      dz2     :    -0.007842  d :    -0.011361
      dxz     :    -0.000878
      dyz     :    -0.005727
      dx2y2   :     0.002467
      dxy     :     0.000619
      f0      :    -0.000031  f :    -0.000029
      f+1     :    -0.000011
      f-1     :    -0.000000
      f+2     :    -0.000019
      f-2     :     0.000008
      f+3     :     0.000030
      f-3     :    -0.000006
  1 Aus       :    -0.052378  s :    -0.052378
      pz      :    -0.016371  p :    -0.045786
      px      :    -0.014360
      py      :    -0.015055
      dz2     :    -0.000232  d :     0.007741
      dxz     :    -0.000828
      dyz     :     0.012942
      dx2y2   :    -0.005734
      dxy     :     0.001593
      f0      :     0.000006  f :     0.000120
      f+1     :    -0.000026
      f-1     :     0.000038
      f+2     :     0.000060
      f-2     :     0.000015
      f+3     :     0.000014
      f-3     :     0.000011
  2 Aus       :    -0.049938  s :    -0.049938
      pz      :    -0.004953  p :    -0.044722
      px      :    -0.015373
      py      :    -0.024396
      dz2     :     0.020723  d :     0.007860
      dxz     :     0.001219
      dyz     :    -0.002591
      dx2y2   :    -0.009458
      dxy     :    -0.002032
      f0      :     0.000146  f :     0.000116
      f+1     :     0.000009
      f-1     :     0.000018
      f+2     :    -0.000023
      f-2     :    -0.000015
      f+3     :    -0.000008
      f-3     :    -0.000011
  3 Aus       :     0.012291  s :     0.012291
      pz      :     0.000210  p :     0.005513
      px      :     0.002475
      py      :     0.002828
      dz2     :    -0.008607  d :    -0.027145
      dxz     :    -0.008067
      dyz     :    -0.010299
      dx2y2   :    -0.000440
      dxy     :     0.000268
      f0      :    -0.000017  f :    -0.000087
      f+1     :    -0.000022
      f-1     :    -0.000003
      f+2     :    -0.000022
      f-2     :    -0.000016
      f+3     :    -0.000021
      f-3     :     0.000013
  4 Aus       :    -0.040005  s :    -0.040005
      pz      :    -0.025301  p :    -0.028546
      px      :     0.006848
      py      :    -0.010092
      dz2     :    -0.005732  d :    -0.003285
      dxz     :    -0.000828
      dyz     :     0.002119
      dx2y2   :    -0.004968
      dxy     :     0.006123
      f0      :     0.000004  f :     0.000024
      f+1     :    -0.000036
      f-1     :     0.000004
      f+2     :    -0.000016
      f-2     :     0.000063
      f+3     :    -0.000024
      f-3     :     0.000028
  5 Aus       :    -0.046129  s :    -0.046129
      pz      :    -0.021812  p :    -0.029273
      px      :     0.006671
      py      :    -0.014132
      dz2     :    -0.000997  d :    -0.004604
      dxz     :     0.002741
      dyz     :    -0.002179
      dx2y2   :    -0.003090
      dxy     :    -0.001079
      f0      :     0.000004  f :     0.000016
      f+1     :     0.000023
      f-1     :    -0.000021
      f+2     :     0.000044
      f-2     :    -0.000014
      f+3     :    -0.000026
      f-3     :     0.000007
  6 Aus       :    -0.026594  s :    -0.026594
      pz      :    -0.018910  p :    -0.034264
      px      :     0.002407
      py      :    -0.017761
      dz2     :     0.000543  d :     0.000109
      dxz     :     0.006176
      dyz     :    -0.002229
      dx2y2   :     0.002080
      dxy     :    -0.006461
      f0      :     0.000038  f :     0.000095
      f+1     :    -0.000008
      f-1     :    -0.000014
      f+2     :     0.000103
      f-2     :    -0.000018
      f+3     :     0.000010
      f-3     :    -0.000016
  7 Aus       :    -0.044148  s :    -0.044148
      pz      :    -0.032956  p :    -0.045481
      px      :    -0.004504
      py      :    -0.008022
      dz2     :    -0.008997  d :    -0.001299
      dxz     :    -0.000906
      dyz     :     0.004855
      dx2y2   :     0.004320
      dxy     :    -0.000571
      f0      :     0.000009  f :     0.000093
      f+1     :    -0.000042
      f-1     :     0.000017
      f+2     :     0.000080
      f-2     :    -0.000011
      f+3     :     0.000018
      f-3     :     0.000022
  8 Aus       :    -0.022055  s :    -0.022055
      pz      :    -0.021464  p :    -0.032501
      px      :     0.000455
      py      :    -0.011492
      dz2     :    -0.004100  d :     0.001729
      dxz     :     0.001409
      dyz     :    -0.000030
      dx2y2   :     0.001088
      dxy     :     0.003362
      f0      :     0.000010  f :     0.000101
      f+1     :     0.000003
      f-1     :     0.000000
      f+2     :     0.000002
      f-2     :     0.000027
      f+3     :    -0.000009
      f-3     :     0.000068
  9 Aus       :    -0.005864  s :    -0.005864
      pz      :    -0.010688  p :    -0.024534
      px      :    -0.010759
      py      :    -0.003087
      dz2     :    -0.002292  d :    -0.034972
      dxz     :    -0.015965
      dyz     :    -0.002200
      dx2y2   :    -0.011401
      dxy     :    -0.003114
      f0      :    -0.000006  f :    -0.000094
      f+1     :    -0.000039
      f-1     :    -0.000003
      f+2     :    -0.000010
      f-2     :    -0.000009
      f+3     :    -0.000025
      f-3     :    -0.000003
 10 Aus       :    -0.035216  s :    -0.035216
      pz      :    -0.006011  p :    -0.012115
      px      :    -0.004968
      py      :    -0.001136
      dz2     :     0.003000  d :    -0.007932
      dxz     :    -0.011960
      dyz     :    -0.000225
      dx2y2   :    -0.004951
      dxy     :     0.006204
      f0      :    -0.000011  f :     0.000030
      f+1     :    -0.000001
      f-1     :     0.000034
      f+2     :    -0.000064
      f-2     :     0.000045
      f+3     :     0.000041
      f-3     :    -0.000014
 11 Aus       :    -0.002267  s :    -0.002267
      pz      :    -0.000904  p :    -0.020177
      px      :    -0.007156
      py      :    -0.012118
      dz2     :    -0.000820  d :    -0.032564
      dxz     :    -0.003190
      dyz     :    -0.011487
      dx2y2   :    -0.004092
      dxy     :    -0.012975
      f0      :    -0.000003  f :    -0.000090
      f+1     :    -0.000003
      f-1     :    -0.000003
      f+2     :    -0.000008
      f-2     :    -0.000063
      f+3     :    -0.000008
      f-3     :    -0.000002
 12 Aus       :    -0.004909  s :    -0.004909
      pz      :     0.000370  p :    -0.001736
      px      :    -0.008858
      py      :     0.006752
      dz2     :    -0.008473  d :    -0.017089
      dxz     :    -0.001279
      dyz     :    -0.006527
      dx2y2   :    -0.000783
      dxy     :    -0.000027
      f0      :    -0.000000  f :    -0.000038
      f+1     :    -0.000011
      f-1     :    -0.000001
      f+2     :     0.000002
      f-2     :    -0.000017
      f+3     :    -0.000010
      f-3     :    -0.000001
 13 Aus       :    -0.044354  s :    -0.044354
      pz      :    -0.004899  p :    -0.046536
      px      :    -0.007536
      py      :    -0.034101
      dz2     :     0.012692  d :    -0.000451
      dxz     :     0.000086
      dyz     :    -0.004562
      dx2y2   :    -0.006896
      dxy     :    -0.001772
      f0      :     0.000103  f :     0.000087
      f+1     :     0.000015
      f-1     :     0.000043
      f+2     :    -0.000019
      f-2     :    -0.000018
      f+3     :    -0.000034
      f-3     :    -0.000004
 14 Fes       :     0.009217  s :     0.009217
      pz      :     0.007285  p :     0.014228
      px      :     0.002859
      py      :     0.004084
      dz2     :     0.578632  d :     2.898031
      dxz     :     0.756113
      dyz     :     0.584857
      dx2y2   :     0.350041
      dxy     :     0.628387
      f0      :     0.000006  f :     0.000026
      f+1     :     0.000009
      f-1     :     0.000002
      f+2     :     0.000003
      f-2     :     0.000003
      f+3     :     0.000002
      f-3     :     0.000002


                      *****************************
                      * MAYER POPULATION ANALYSIS *
                      *****************************

  NA   - Mulliken gross atomic population
  ZA   - Total nuclear charge
  QA   - Mulliken gross atomic charge
  VA   - Mayer's total valence
  BVA  - Mayer's bonded valence
  FA   - Mayer's free valence

  ATOM       NA         ZA         QA         VA         BVA        FA
  0 Au    18.6365    19.0000     0.3635     1.6203     1.6150     0.0053
  1 Au    18.6872    19.0000     0.3128     1.5985     1.5863     0.0122
  2 Au    18.6878    19.0000     0.3122     1.5999     1.5887     0.0112
  3 Au    18.7994    19.0000     0.2006     1.6677     1.6651     0.0026
  4 Au    19.1711    19.0000    -0.1711     2.0569     2.0454     0.0115
  5 Au    19.1635    19.0000    -0.1635     2.0570     2.0428     0.0143
  6 Au    18.6984    19.0000     0.3016     1.5748     1.5705     0.0043
  7 Au    18.8693    19.0000     0.1307     1.8049     1.7944     0.0105
  8 Au    18.7006    19.0000     0.2994     1.5759     1.5724     0.0034
  9 Au    18.6757    19.0000     0.3243     1.5378     1.5344     0.0034
 10 Au    19.1325    19.0000    -0.1325     2.0374     2.0232     0.0141
 11 Au    18.6743    19.0000     0.3257     1.5334     1.5301     0.0033
 12 Au    18.8385    19.0000     0.1615     1.6702     1.6690     0.0012
 13 Au    18.8690    19.0000     0.1310     1.8050     1.7941     0.0109
 14 Fe    28.3962    26.0000    -2.3962     7.5107     5.1869     2.3238

  Mayer bond orders larger than 0.100000
B(  0-Au,  1-Au) :   0.1621 B(  0-Au,  2-Au) :   0.1643 B(  0-Au,  3-Au) :   0.2492 
B(  0-Au,  4-Au) :   0.2278 B(  0-Au,  5-Au) :   0.2278 B(  0-Au, 14-Fe) :   0.3609 
B(  1-Au,  3-Au) :   0.1974 B(  1-Au,  4-Au) :   0.2142 B(  1-Au,  6-Au) :   0.1543 
B(  1-Au, 13-Au) :   0.1305 B(  1-Au, 14-Fe) :   0.5041 B(  2-Au,  3-Au) :   0.2004 
B(  2-Au,  5-Au) :   0.2157 B(  2-Au,  7-Au) :   0.1278 B(  2-Au,  8-Au) :   0.1514 
B(  2-Au, 14-Fe) :   0.5045 B(  3-Au,  6-Au) :   0.1651 B(  3-Au,  8-Au) :   0.1641 
B(  3-Au, 14-Fe) :   0.3842 B(  4-Au,  5-Au) :   0.2414 B(  4-Au, 11-Au) :   0.2371 
B(  4-Au, 12-Au) :   0.3308 B(  4-Au, 13-Au) :   0.1003 B(  4-Au, 14-Fe) :   0.4962 
B(  5-Au,  7-Au) :   0.1033 B(  5-Au,  9-Au) :   0.2389 B(  5-Au, 12-Au) :   0.3295 
B(  5-Au, 14-Fe) :   0.4918 B(  6-Au,  8-Au) :   0.2611 B(  6-Au, 13-Au) :   0.2887 
B(  6-Au, 14-Fe) :   0.4121 B(  7-Au,  8-Au) :   0.2905 B(  7-Au,  9-Au) :   0.2923 
B(  7-Au, 10-Au) :   0.2408 B(  7-Au, 14-Fe) :   0.4800 B(  8-Au, 14-Fe) :   0.4167 
B(  9-Au, 10-Au) :   0.3691 B(  9-Au, 12-Au) :   0.2645 B( 10-Au, 11-Au) :   0.3691 
B( 10-Au, 12-Au) :   0.1660 B( 10-Au, 13-Au) :   0.2446 B( 10-Au, 14-Fe) :   0.4096 
B( 11-Au, 12-Au) :   0.2609 B( 11-Au, 13-Au) :   0.2947 B( 13-Au, 14-Fe) :   0.4782 


-------
TIMINGS
-------

Total SCF time: 0 days 0 hours 2 min 13 sec 

Total time                  ....     133.662 sec
Sum of individual times     ....     129.531 sec  ( 96.9%)

Fock matrix formation       ....     107.213 sec  ( 80.2%)
  Split-RI-J                ....      43.301 sec  ( 40.4% of F)
  XC integration            ....      62.609 sec  ( 58.4% of F)
    Basis function eval.    ....       5.935 sec  (  9.5% of XC)
    Density eval.           ....      25.631 sec  ( 40.9% of XC)
    XC-Functional eval.     ....       0.382 sec  (  0.6% of XC)
    XC-Potential eval.      ....      25.164 sec  ( 40.2% of XC)
Diagonalization             ....       7.784 sec  (  5.8%)
Density matrix formation    ....       1.254 sec  (  0.9%)
Population analysis         ....       0.322 sec  (  0.2%)
Initial guess               ....       0.445 sec  (  0.3%)
Orbital Transformation      ....       7.904 sec  (  5.9%)
Orbital Orthonormalization  ....       0.395 sec  (  0.3%)
DIIS solution               ....       2.988 sec  (  2.2%)
Grid generation             ....       1.598 sec  (  1.2%)

Maximum memory used throughout the entire SCF-calculation: 102.9 MB

-------------------------   --------------------
FINAL SINGLE POINT ENERGY     -3165.056971091469
-------------------------   --------------------


                            ***************************************
                            *     ORCA property calculations      *
                            ***************************************

                                    ---------------------
                                    Active property flags
                                    ---------------------
   (+) Dipole Moment


------------------------------------------------------------------------------
                       ORCA ELECTRIC PROPERTIES CALCULATION
------------------------------------------------------------------------------

Dipole Moment Calculation                       ... on
Quadrupole Moment Calculation                   ... off
Polarizability Calculation                      ... off
GBWName                                         ... pbeSP_job2.gbw
Electron density                                ... pbeSP_job2.scfp
The origin for moment calculation is the CENTER OF MASS  = (14.765995, 14.859102 14.318336)

-------------
DIPOLE MOMENT
-------------
                                X             Y             Z
Electronic contribution:     22.70563      -1.57761      -2.47815
Nuclear contribution   :    -22.77657       1.68546       2.51974
                        -----------------------------------------
Total Dipole Moment    :     -0.07094       0.10784       0.04160
                        -----------------------------------------
Magnitude (a.u.)       :      0.13562
Magnitude (Debye)      :      0.34473



--------------------
Rotational spectrum 
--------------------
 
Rotational constants in cm-1:     0.001256     0.000989     0.000872 
Rotational constants in MHz :    37.657135    29.662957    26.154449 

 Dipole components along the rotational axes: 
x,y,z [a.u.] :     0.106998    -0.008640     0.082890 
x,y,z [Debye]:     0.271967    -0.021960     0.210689 

 

Timings for individual modules:

Sum of individual times         ...      147.217 sec (=   2.454 min)
GTO integral calculation        ...       13.339 sec (=   0.222 min)   9.1 %
SCF iterations                  ...      133.878 sec (=   2.231 min)  90.9 %



                             ****ORCA TERMINATED NORMALLY****
TOTAL RUN TIME: 0 days 0 hours 5 minutes 26 seconds 675 msec
