
                                 *****************
                                 * O   R   C   A *
                                 *****************

                                            #,                                       
                                            ###                                      
                                            ####                                     
                                            #####                                    
                                            ######                                   
                                           ########,                                 
                                     ,,################,,,,,                         
                               ,,#################################,,                 
                          ,,##########################################,,             
                       ,#########################################, ''#####,          
                    ,#############################################,,   '####,        
                  ,##################################################,,,,####,       
                ,###########''''           ''''###############################       
              ,#####''   ,,,,##########,,,,          '''####'''          '####       
            ,##' ,,,,###########################,,,                        '##       
           ' ,,###''''                  '''############,,,                           
         ,,##''                                '''############,,,,        ,,,,,,###''
      ,#''                                            '''#######################'''  
     '                                                          ''''####''''         
             ,#######,   #######,   ,#######,      ##                                
            ,#'     '#,  ##    ##  ,#'     '#,    #''#        ######   ,####,        
            ##       ##  ##   ,#'  ##            #'  '#       #        #'  '#        
            ##       ##  #######   ##           ,######,      #####,   #    #        
            '#,     ,#'  ##    ##  '#,     ,#' ,#      #,         ##   #,  ,#        
             '#######'   ##     ##  '#######'  #'      '#     #####' # '####'        



                  #######################################################
                  #                        -***-                        #
                  #          Department of theory and spectroscopy      #
                  #    Directorship and core code : Frank Neese         #
                  #        Max Planck Institute fuer Kohlenforschung    #
                  #                Kaiser Wilhelm Platz 1               #
                  #                 D-45470 Muelheim/Ruhr               #
                  #                      Germany                        #
                  #                                                     #
                  #                  All rights reserved                #
                  #                        -***-                        #
                  #######################################################


                         Program Version 5.0.3 -  RELEASE  -


 With contributions from (in alphabetic order):
   Daniel Aravena         : Magnetic Suceptibility
   Michael Atanasov       : Ab Initio Ligand Field Theory (pilot matlab implementation)
   Alexander A. Auer      : GIAO ZORA, VPT2 properties, NMR spectrum
   Ute Becker             : Parallelization
   Giovanni Bistoni       : ED, misc. LED, open-shell LED, HFLD
   Martin Brehm           : Molecular dynamics
   Dmytro Bykov           : SCF Hessian
   Vijay G. Chilkuri      : MRCI spin determinant printing, contributions to CSF-ICE
   Dipayan Datta          : RHF DLPNO-CCSD density
   Achintya Kumar Dutta   : EOM-CC, STEOM-CC
   Dmitry Ganyushin       : Spin-Orbit,Spin-Spin,Magnetic field MRCI
   Miquel Garcia          : C-PCM and meta-GGA Hessian, CC/C-PCM, Gaussian charge scheme
   Yang Guo               : DLPNO-NEVPT2, F12-NEVPT2, CIM, IAO-localization
   Andreas Hansen         : Spin unrestricted coupled pair/coupled cluster methods
   Benjamin Helmich-Paris : MC-RPA, TRAH-SCF, COSX integrals
   Lee Huntington         : MR-EOM, pCC
   Robert Izsak           : Overlap fitted RIJCOSX, COSX-SCS-MP3, EOM
   Marcus Kettner         : VPT2
   Christian Kollmar      : KDIIS, OOCD, Brueckner-CCSD(T), CCSD density, CASPT2, CASPT2-K
   Simone Kossmann        : Meta GGA functionals, TD-DFT gradient, OOMP2, MP2 Hessian
   Martin Krupicka        : Initial AUTO-CI
   Lucas Lang             : DCDCAS
   Marvin Lechner         : AUTO-CI (C++ implementation), FIC-MRCC
   Dagmar Lenk            : GEPOL surface, SMD
   Dimitrios Liakos       : Extrapolation schemes; Compound Job, initial MDCI parallelization
   Dimitrios Manganas     : Further ROCIS development; embedding schemes
   Dimitrios Pantazis     : SARC Basis sets
   Anastasios Papadopoulos: AUTO-CI, single reference methods and gradients
   Taras Petrenko         : DFT Hessian,TD-DFT gradient, ASA, ECA, R-Raman, ABS, FL, XAS/XES, NRVS
   Peter Pinski           : DLPNO-MP2, DLPNO-MP2 Gradient
   Christoph Reimann      : Effective Core Potentials
   Marius Retegan         : Local ZFS, SOC
   Christoph Riplinger    : Optimizer, TS searches, QM/MM, DLPNO-CCSD(T), (RO)-DLPNO pert. Triples
   Tobias Risthaus        : Range-separated hybrids, TD-DFT gradient, RPA, STAB
   Michael Roemelt        : Original ROCIS implementation
   Masaaki Saitow         : Open-shell DLPNO-CCSD energy and density
   Barbara Sandhoefer     : DKH picture change effects
   Avijit Sen             : IP-ROCIS
   Kantharuban Sivalingam : CASSCF convergence, NEVPT2, FIC-MRCI
   Bernardo de Souza      : ESD, SOC TD-DFT
   Georgi Stoychev        : AutoAux, RI-MP2 NMR, DLPNO-MP2 response
   Willem Van den Heuvel  : Paramagnetic NMR
   Boris Wezisla          : Elementary symmetry handling
   Frank Wennmohs         : Technical directorship


 We gratefully acknowledge several colleagues who have allowed us to
 interface, adapt or use parts of their codes:
   Stefan Grimme, W. Hujo, H. Kruse, P. Pracht,  : VdW corrections, initial TS optimization,
                  C. Bannwarth, S. Ehlert          DFT functionals, gCP, sTDA/sTD-DF
   Ed Valeev, F. Pavosevic, A. Kumar             : LibInt (2-el integral package), F12 methods
   Garnet Chan, S. Sharma, J. Yang, R. Olivares  : DMRG
   Ulf Ekstrom                                   : XCFun DFT Library
   Mihaly Kallay                                 : mrcc  (arbitrary order and MRCC methods)
   Jiri Pittner, Ondrej Demel                    : Mk-CCSD
   Frank Weinhold                                : gennbo (NPA and NBO analysis)
   Christopher J. Cramer and Donald G. Truhlar   : smd solvation model
   Lars Goerigk                                  : TD-DFT with DH, B97 family of functionals
   V. Asgeirsson, H. Jonsson                     : NEB implementation
   FAccTs GmbH                                   : IRC, NEB, NEB-TS, DLPNO-Multilevel, CI-OPT
                                                   MM, QMMM, 2- and 3-layer-ONIOM, Crystal-QMMM,
                                                   LR-CPCM, SF, NACMEs, symmetry and pop. for TD-DFT,
                                                   nearIR, NL-DFT gradient (VV10), updates on ESD,
                                                   ML-optimized integration grids
   S Lehtola, MJT Oliveira, MAL Marques          : LibXC Library
   Liviu Ungur et al                             : ANISO software


 Your calculation uses the libint2 library for the computation of 2-el integrals
 For citations please refer to: http://libint.valeyev.net

 Your ORCA version has been built with support for libXC version: 5.1.0
 For citations please refer to: https://tddft.org/programs/libxc/

 This ORCA versions uses:
   CBLAS   interface :  Fast vector & matrix operations
   LAPACKE interface :  Fast linear algebra routines
   SCALAPACK package :  Parallel linear algebra routines
   Shared memory     :  Shared parallel matrices
   BLAS/LAPACK       :  OpenBLAS 0.3.15  USE64BITINT DYNAMIC_ARCH NO_AFFINITY Haswell SINGLE_THREADED
        Core in use  :  Haswell
   Copyright (c) 2011-2014, The OpenBLAS Project




***************************************
The coordinates will be read from file: pbe.xyz
***************************************


================================================================================

cite the ECPs for Au [Def2-ECP] as follows:
Ce-Yb(ecp-28): M. Dolg, H. Stoll, H.Preuss, J. Chem. Phys., 1989, 90, 1730-1734.
Y-Cd(ecp-28), Hf-Hg(ecp-46): D. Andrae,U. Haeussermann, M. Dolg, H. Stoll, H. Preuss, Theor. Chim. Acta, 1990, 77, 123-141.
In-Sb(ecp-28), Tl-Bi(ecp-46): B. Metz, H. Stoll, M. Dolg, J. Chem. Phys., 2000, 113, 2563-2569.
Te-Xe(ecp-28), Po-Rn(ecp-46): K. A. Peterson, D. Figgen, E. Goll, H. Stoll, M. Dolg, J. Chem. Phys., 2003, 119, 11113-11123.
Rb(ecp-28), Cs(ecp-46): T. Leininger, A. Nicklass, W. Kuechle, H. Stoll, M. Dolg, A. Bergner, Chem. Phys. Lett., 1996, 255, 274-280.
Sr(ecp-28), Ba(ecp-46): M. Kaupp, P. V. Schleyer, H. Stoll and H. Preuss, J. Chem. Phys., 1991, 94, 1360-1366.
La(ecp-46): M. Dolg, H. Stoll, A. Savin, H. Preuss, Theor. Chim. Acta, 1989, 75, 173-194.
Lu(ecp-28): X. Cao, M. Dolg, J. Chem. Phys., 2001, 115, 7348-7355.

ECP parameters for Au [Def2-ECP] have been obtained from:
TURBOMOLE (7.0.2)

----- Orbital basis set information -----
Your calculation utilizes the basis: def2-TZVP
   F. Weigend and R. Ahlrichs, Phys. Chem. Chem. Phys. 7, 3297 (2005).

----- AuxJ basis set information -----
Your calculation utilizes the auxiliary basis: def2/J
   F. Weigend, Phys. Chem. Chem. Phys. 8, 1057 (2006).

----- AuxC basis set information -----
Your calculation utilizes the auxiliary basis: def2-TZVP/C
  H-La, Hf-Rn : A. Hellweg, C. Hattig, S. Hofener and W. Klopper, Theor. Chem. Acc. 117, 587 (2007).
        Ce-Lu : J. Chmela and M. E. Harding, Mol. Phys. (2018).

================================================================================
                                        WARNINGS
                       Please study these warnings very carefully!
================================================================================


INFO   : the flag for use of the SHARK integral package has been found!

================================================================================
                                       INPUT FILE
================================================================================
NAME = casscf.inp
|  1> !CASSCF def2-TZVP def2-TZVP/C
|  2> !MOREAD RIJCOSX
|  3> %maxcore 6000
|  4> %moinp "pbe.qro"
|  5> %pal nprocs 2 end 
|  6> 
|  7> %casscf
|  8>  mult 5,3
|  9>  bweight 1,1
| 10>  nroots 5,45
| 11>  nel 6
| 12>  norb 5
| 13> end
| 14> 
| 15> 
| 16> *xyzfile 0 5 pbe.xyz
| 17> 
| 18> 
| 19>                          ****END OF INPUT****
================================================================================

                       ****************************
                       * Single Point Calculation *
                       ****************************

---------------------------------
CARTESIAN COORDINATES (ANGSTROEM)
---------------------------------
  Au     7.448548    5.574150    8.595407
  Au     9.826853    5.712805    9.811632
  Au    12.516847    6.067207   10.191755
  Au    11.319125    7.851372    8.484877
  Au    11.802269    4.819412    7.852981
  Au     7.650861    4.673505    5.908175
  Au    10.401541    4.308573    5.667404
  Au     9.126365    6.676665    4.652745
  Au     9.699912    8.721900    6.581487
  Au     7.205384    7.478852    6.498726
  Fe     9.579195    6.209157    7.240683

----------------------------
CARTESIAN COORDINATES (A.U.)
----------------------------
  NO LB      ZA    FRAG     MASS         X           Y           Z
   0 Au   19.0000*   0   196.966   14.075716   10.533616   16.242965
   1 Au   19.0000*   0   196.966   18.570060   10.795638   18.541297
   2 Au   19.0000*   0   196.966   23.653413   11.465360   19.259626
   3 Au   19.0000*   0   196.966   21.390047   14.836943   16.034093
   4 Au   19.0000*   0   196.966   22.303057    9.107368   14.839984
   5 Au   19.0000*   0   196.966   14.458033    8.831645   11.164834
   6 Au   19.0000*   0   196.966   19.656065    8.142022   10.709842
   7 Au   19.0000*   0   196.966   17.246330   12.617068    8.792413
   8 Au   19.0000*   0   196.966   18.330176   16.482003   12.437207
   9 Au   19.0000*   0   196.966   13.616203   14.132982   12.280812
  10 Fe   26.0000    0    55.850   18.102055   11.733606   13.682908
* core charge reduced due to ECP

--------------------------------
INTERNAL COORDINATES (ANGSTROEM)
--------------------------------
 Au     0   0   0     0.000000000000     0.00000000     0.00000000
 Au     1   0   0     2.674838401748     0.00000000     0.00000000
 Au     2   1   0     2.739738053273   160.52503673     0.00000000
 Au     3   2   1     2.744306105980    64.48731103    39.82249121
 Au     3   2   1     2.745446906271    64.37137281   321.28144262
 Au     1   2   3     2.841355918685   112.52885514    32.77869280
 Au     5   3   2     2.645702526632   158.32221802    39.36928622
 Au     6   1   2     2.786730083475   103.64568628   296.00724679
 Au     4   3   2     2.646236124348   158.17131144   320.30140844
 Au     8   6   1     2.782322416196    62.79284827   319.80517976
 Fe     9   4   3     2.600575580238    61.85018738     2.14093279

---------------------------
INTERNAL COORDINATES (A.U.)
---------------------------
 Au     0   0   0     0.000000000000     0.00000000     0.00000000
 Au     1   0   0     5.054712031800     0.00000000     0.00000000
 Au     2   1   0     5.177354599368   160.52503673     0.00000000
 Au     3   2   1     5.185986967950    64.48731103    39.82249121
 Au     3   2   1     5.188142768074    64.37137281   321.28144262
 Au     1   2   3     5.369384535310   112.52885514    32.77869280
 Au     5   3   2     4.999653207159   158.32221802    39.36928622
 Au     6   1   2     5.266156666927   103.64568628   296.00724679
 Au     4   3   2     5.000661560707   158.17131144   320.30140844
 Au     8   6   1     5.257827382881    62.79284827   319.80517976
 Fe     9   4   3     4.914375637213    61.85018738     2.14093279

---------------------
BASIS SET INFORMATION
---------------------
There are 2 groups of distinct atoms

 Group   1 Type Au  : 8s7p6d1f contracted to 6s4p3d1f pattern {311111/4111/411/1}
 Group   2 Type Fe  : 17s11p7d1f contracted to 6s4p4d1f pattern {842111/6311/4111/1}

Atom   0Au   basis set group =>   1
Atom   1Au   basis set group =>   1
Atom   2Au   basis set group =>   1
Atom   3Au   basis set group =>   1
Atom   4Au   basis set group =>   1
Atom   5Au   basis set group =>   1
Atom   6Au   basis set group =>   1
Atom   7Au   basis set group =>   1
Atom   8Au   basis set group =>   1
Atom   9Au   basis set group =>   1
Atom  10Fe   basis set group =>   2
---------------------------------
AUXILIARY/J BASIS SET INFORMATION
---------------------------------
There are 2 groups of distinct atoms

 Group   1 Type Au  : 11s5p5d3f3g contracted to 8s5p5d2f3g pattern {41111111/11111/11111/21/111}
 Group   2 Type Fe  : 19s5p5d3f3g contracted to 8s5p5d2f3g pattern {121111111/11111/11111/21/111}

Atom   0Au   basis set group =>   1
Atom   1Au   basis set group =>   1
Atom   2Au   basis set group =>   1
Atom   3Au   basis set group =>   1
Atom   4Au   basis set group =>   1
Atom   5Au   basis set group =>   1
Atom   6Au   basis set group =>   1
Atom   7Au   basis set group =>   1
Atom   8Au   basis set group =>   1
Atom   9Au   basis set group =>   1
Atom  10Fe   basis set group =>   2
---------------------------------
AUXILIARY/C BASIS SET INFORMATION
---------------------------------
There are 2 groups of distinct atoms

 Group   1 Type Au  : 8s8p7d5f3g2h contracted to 8s8p7d5f3g2h pattern {11111111/11111111/1111111/11111/111/11}
 Group   2 Type Fe  : 11s9p8d6f5g2h contracted to 9s8p8d6f5g2h pattern {311111111/21111111/11111111/111111/11111/11}

Atom   0Au   basis set group =>   1
Atom   1Au   basis set group =>   1
Atom   2Au   basis set group =>   1
Atom   3Au   basis set group =>   1
Atom   4Au   basis set group =>   1
Atom   5Au   basis set group =>   1
Atom   6Au   basis set group =>   1
Atom   7Au   basis set group =>   1
Atom   8Au   basis set group =>   1
Atom   9Au   basis set group =>   1
Atom  10Fe   basis set group =>   2
-------------------------
ECP PARAMETER INFORMATION
-------------------------

 Group 1, Type Au ECP Def2-ECP (replacing 60 core electrons, lmax=3)

Atom   0Au   ECP group =>   1
Atom   1Au   ECP group =>   1
Atom   2Au   ECP group =>   1
Atom   3Au   ECP group =>   1
Atom   4Au   ECP group =>   1
Atom   5Au   ECP group =>   1
Atom   6Au   ECP group =>   1
Atom   7Au   ECP group =>   1
Atom   8Au   ECP group =>   1
Atom   9Au   ECP group =>   1



           ************************************************************
           *        Program running with 2 parallel MPI-processes     *
           *              working on a common directory               *
           ************************************************************
------------------------------------------------------------------------------
                           ORCA GTO INTEGRAL CALCULATION
                           -- RI-GTO INTEGRALS CHOSEN --
------------------------------------------------------------------------------
------------------------------------------------------------------------------
                   ___                                                        
                  /   \      - P O W E R E D   B Y -                         
                 /     \                                                     
                 |  |  |   _    _      __       _____    __    __             
                 |  |  |  | |  | |    /  \     |  _  \  |  |  /  |          
                  \  \/   | |  | |   /    \    | | | |  |  | /  /          
                 / \  \   | |__| |  /  /\  \   | |_| |  |  |/  /          
                |  |  |   |  __  | /  /__\  \  |    /   |      \           
                |  |  |   | |  | | |   __   |  |    \   |  |\   \          
                \     /   | |  | | |  |  |  |  | |\  \  |  | \   \       
                 \___/    |_|  |_| |__|  |__|  |_| \__\ |__|  \__/        
                                                                              
                      - O R C A' S   B I G   F R I E N D -                    
                                      &                                       
                       - I N T E G R A L  F E E D E R -                       
                                                                              
 v1 FN, 2020, v2 2021                                                         
------------------------------------------------------------------------------


Reading SHARK input file casscf.SHARKINP.tmp ... ok
----------------------
SHARK INTEGRAL PACKAGE
----------------------

Number of atoms                             ...     11
Number of basis functions                   ...    445
Number of shells                            ...    155
Maximum angular momentum                    ...      3
Integral batch strategy                     ... SHARK/LIBINT Hybrid
RI-J (if used) integral strategy            ... SPLIT-RIJ (Revised 2003 algorithm where possible)
Printlevel                                  ...      1
Contraction scheme used                     ... SEGMENTED contraction
Coulomb Range Separation                    ... NOT USED
Exchange Range Separation                   ... NOT USED
Finite Nucleus Model                        ... NOT USED
Auxiliary Coulomb fitting basis             ... AVAILABLE
   # of basis functions in Aux-J            ...    979
   # of shells in Aux-J                     ...    253
   Maximum angular momentum in Aux-J        ...      4
Auxiliary J/K fitting basis                 ... NOT available
Auxiliary Correlation fitting basis         ... AVAILABLE
   # of basis functions in Aux-C            ...   1692
   # of shells in Aux-C                     ...    368
   Maximum angular momentum in Aux-C        ...      5
Auxiliary 'external' fitting basis          ... NOT available
Integral threshold                          ...     1.000000e-10
Primitive cut-off                           ...     1.000000e-11
Primitive pair pre-selection threshold      ...     1.000000e-11

Calculating pre-screening integrals         ... done (  0.4 sec) Dimension = 155
Organizing shell pair data                  ... done (  0.5 sec)
Shell pair information
Total number of shell pairs                 ...     12090
Shell pairs after pre-screening             ...     10006
Total number of primitive shell pairs       ...     33105
Primitive shell pairs kept                  ...     20190
          la=0 lb=0:   1566 shell pairs
          la=1 lb=0:   2296 shell pairs
          la=1 lb=1:    852 shell pairs
          la=2 lb=0:   1984 shell pairs
          la=2 lb=1:   1395 shell pairs
          la=2 lb=2:    579 shell pairs
          la=3 lb=0:    526 shell pairs
          la=3 lb=1:    403 shell pairs
          la=3 lb=2:    348 shell pairs
          la=3 lb=3:     57 shell pairs

Calculating one electron integrals          ... done (  0.2 sec)
Calculating ECP integrals                   ... done (  9.9 sec)
Calculating RI/J V-Matrix + Cholesky decomp.... done (  0.4 sec)
Calculating RI/C V-Matrix + Cholesky decomp.... done (  0.8 sec)
Calculating Nuclear repulsion               ... done (  0.0 sec) ENN=   3228.060786716674 Eh

SHARK setup successfully completed in  13.2 seconds

Maximum memory used throughout the entire GTOINT-calculation: 52.1 MB


           ************************************************************
           *        Program running with 2 parallel MPI-processes     *
           *              working on a common directory               *
           ************************************************************
-------------------------------------------------------------------------------
                                 ORCA SCF
-------------------------------------------------------------------------------

------------
SCF SETTINGS
------------
Hamiltonian:
 Ab initio Hamiltonian  Method          .... Hartree-Fock(GTOs)
 RI-approximation to the Coulomb term is turned on
   Number of AuxJ basis functions       .... 979
   RIJ-COSX (HFX calculated with COS-X)).... on


General Settings:
 Integral files         IntName         .... casscf
 Hartree-Fock type      HFTyp           .... CASSCF
 Total Charge           Charge          ....    0
 Multiplicity           Mult            ....    5
 Number of Electrons    NEL             ....  216
 Basis Dimension        Dim             ....  445
 Nuclear Repulsion      ENuc            ....   3228.0607867167 Eh


Diagonalization of the overlap matrix:
Smallest eigenvalue                        ... 5.736e-04
Time for diagonalization                   ...    0.058 sec
Threshold for overlap eigenvalues          ... 1.000e-08
Number of eigenvalues below threshold      ... 0
Time for construction of square roots      ...    0.029 sec
Total time needed                          ...    0.088 sec

---------------------
INITIAL GUESS: MOREAD
---------------------
Guess MOs are being read from file: pbe.qro
Input Geometry matches current geometry (good)
Input basis set matches current basis set (good)
MOs were renormalized
Gram-Schmidt orthogonalization of all MOs with pivot on actives
                      ------------------
                      INITIAL GUESS DONE (   1.4 sec)
                      ------------------
--------------------
COSX GRID GENERATION
--------------------

GRIDX 1
-------
General Integration Accuracy     IntAcc      ... 3.816
Radial Grid Type                 RadialGrid  ... OptM3 with GC (2021)
Angular Grid (max. ang.)         AngularGrid ... 1 (Lebedev-50)
Angular grid pruning method      GridPruning ... 4 (adaptive)
Weight generation scheme         WeightScheme... Becke
Basis function cutoff            BFCut       ... 1.0000e-10
Integration weight cutoff        WCut        ... 1.0000e-14
Angular grids for H and He will be reduced by one unit
Partially contracted basis set               ... on
Rotationally invariant grid construction     ... off

Total number of grid points                  ...    13022
Total number of batches                      ...      209
Average number of points per batch           ...       62
Average number of grid points per atom       ...     1184
UseSFitting                                  ... on

GRIDX 2
-------
General Integration Accuracy     IntAcc      ... 4.020
Radial Grid Type                 RadialGrid  ... OptM3 with GC (2021)
Angular Grid (max. ang.)         AngularGrid ... 2 (Lebedev-110)
Angular grid pruning method      GridPruning ... 4 (adaptive)
Weight generation scheme         WeightScheme... Becke
Basis function cutoff            BFCut       ... 1.0000e-10
Integration weight cutoff        WCut        ... 1.0000e-14
Angular grids for H and He will be reduced by one unit
Partially contracted basis set               ... on
Rotationally invariant grid construction     ... off

Total number of grid points                  ...    39337
Total number of batches                      ...      619
Average number of points per batch           ...       63
Average number of grid points per atom       ...     3576
UseSFitting                                  ... on

GRIDX 3
-------
General Integration Accuracy     IntAcc      ... 4.338
Radial Grid Type                 RadialGrid  ... OptM3 with GC (2021)
Angular Grid (max. ang.)         AngularGrid ... 3 (Lebedev-194)
Angular grid pruning method      GridPruning ... 4 (adaptive)
Weight generation scheme         WeightScheme... Becke
Basis function cutoff            BFCut       ... 1.0000e-10
Integration weight cutoff        WCut        ... 1.0000e-14
Angular grids for H and He will be reduced by one unit
Partially contracted basis set               ... on
Rotationally invariant grid construction     ... off

Total number of grid points                  ...    72534
Total number of batches                      ...     1139
Average number of points per batch           ...       63
Average number of grid points per atom       ...     6594
UseSFitting                                  ... on

Time for X-Grid setup             =    3.728 sec



 ... the calculation is a CASSCF calculation -I'm leaving here GOOD LUCK!!!



           ************************************************************
           *        Program running with 2 parallel MPI-processes     *
           *              working on a common directory               *
           ************************************************************
-------------------------------------------------------------------------------
                              ORCA-CASSCF
-------------------------------------------------------------------------------

Setting up the integral package       ... done
Setting up the integral package (RI)  ... done
Building the CAS space                ... done (5 configurations for Mult=5)
Building the CAS space                ... done (35 configurations for Mult=3)

SYSTEM-SPECIFIC SETTINGS:
Number of active electrons          ...    6
Number of active orbitals           ...    5
Total number of electrons           ...  216
Total number of orbitals            ...  445
Total number aux. functions         ... 1692

Determined orbital ranges:
   Internal       0 -  104 ( 105 orbitals)
   Active       105 -  109 (   5 orbitals)
   External     110 -  444 ( 335 orbitals)
Number of rotation parameters      ...  37375

CI-STEP:
CI strategy                         ... General CI
Number of multiplicity blocks       ...    2
BLOCK  1 WEIGHT=   0.5000
  Multiplicity                      ...    5
  #(Configurations)                 ...    5
  #(CSFs)                           ...    5
  #(Roots)                          ...    5
    ROOT=0 WEIGHT=    0.100000
    ROOT=1 WEIGHT=    0.100000
    ROOT=2 WEIGHT=    0.100000
    ROOT=3 WEIGHT=    0.100000
    ROOT=4 WEIGHT=    0.100000

BLOCK  2 WEIGHT=   0.5000
  Multiplicity                      ...    3
  #(Configurations)                 ...   35
  #(CSFs)                           ...   45
  #(Roots)                          ...   45
    ROOT=0 WEIGHT=    0.011111
    ROOT=1 WEIGHT=    0.011111
    ROOT=2 WEIGHT=    0.011111
    ROOT=3 WEIGHT=    0.011111
    ROOT=4 WEIGHT=    0.011111
    ROOT=5 WEIGHT=    0.011111
    ROOT=6 WEIGHT=    0.011111
    ROOT=7 WEIGHT=    0.011111
    ROOT=8 WEIGHT=    0.011111
    ROOT=9 WEIGHT=    0.011111
    ROOT=10 WEIGHT=    0.011111
    ROOT=11 WEIGHT=    0.011111
    ROOT=12 WEIGHT=    0.011111
    ROOT=13 WEIGHT=    0.011111
    ROOT=14 WEIGHT=    0.011111
    ROOT=15 WEIGHT=    0.011111
    ROOT=16 WEIGHT=    0.011111
    ROOT=17 WEIGHT=    0.011111
    ROOT=18 WEIGHT=    0.011111
    ROOT=19 WEIGHT=    0.011111
    ROOT=20 WEIGHT=    0.011111
    ROOT=21 WEIGHT=    0.011111
    ROOT=22 WEIGHT=    0.011111
    ROOT=23 WEIGHT=    0.011111
    ROOT=24 WEIGHT=    0.011111
    ROOT=25 WEIGHT=    0.011111
    ROOT=26 WEIGHT=    0.011111
    ROOT=27 WEIGHT=    0.011111
    ROOT=28 WEIGHT=    0.011111
    ROOT=29 WEIGHT=    0.011111
    ROOT=30 WEIGHT=    0.011111
    ROOT=31 WEIGHT=    0.011111
    ROOT=32 WEIGHT=    0.011111
    ROOT=33 WEIGHT=    0.011111
    ROOT=34 WEIGHT=    0.011111
    ROOT=35 WEIGHT=    0.011111
    ROOT=36 WEIGHT=    0.011111
    ROOT=37 WEIGHT=    0.011111
    ROOT=38 WEIGHT=    0.011111
    ROOT=39 WEIGHT=    0.011111
    ROOT=40 WEIGHT=    0.011111
    ROOT=41 WEIGHT=    0.011111
    ROOT=42 WEIGHT=    0.011111
    ROOT=43 WEIGHT=    0.011111
    ROOT=44 WEIGHT=    0.011111

  PrintLevel                        ...    1
  N(GuessMat)                       ...       512
  MaxDim(CI)                        ...        10
  MaxIter(CI)                       ...        64
  Energy Tolerance CI               ...  1.00e-08
  Residual Tolerance CI             ...  1.00e-08
  Shift(CI)                         ...  1.00e-04

INTEGRAL-TRANSFORMATION-STEP:
  Algorithm                         ... RI-MO

ORBITAL-IMPROVEMENT-STEP:
  Algorithm                         ... SuperCI(PT)
  Default Parametrization           ... CAYLEY
  Act-Act rotations                 ... depends on algorithm used

  Note: SuperCI(PT) will ignore FreezeIE, FreezeAct and FreezeGrad. In general Default settings are encouraged.
        In conjunction with ShiftUp, ShiftDn or GradScaling the performance of SuperCI(PT) is less optimal.  

  MaxRot                            ... 2.00e-01 
  Max. no of vectors (DIIS)         ... 15
  DThresh (cut-off) metric          ... 1.00e-06
  Switch step at gradient           ...  3.00e-02 
  Switch step at iteration          ...        50   
  Switch step to                    ... SuperCI(PT)    

SCF-SETTINGS:
  Incremental                       ... off
  RIJCOSX approximation             ... on
  UseFinalGrid                      ... on
  RI-JK approximation               ... off
  AO integral handling              ... DIRECT
  Integral Neglect Thresh           ...  1.00e-10
  Primitive cutoff TCut             ...  1.00e-11
  Energy convergence tolerance      ...  1.00e-07
  Orbital gradient convergence      ...  1.00e-03
  Max. number of iterations         ...        75  


FINAL ORBITALS:
  Active   Orbitals                 ... natural 
  Internal Orbitals                 ... canonical 
  External Orbitals                 ... canonical 

------------------
CAS-SCF ITERATIONS
------------------


MACRO-ITERATION   1: 
   --- Inactive Energy E0 = -2600.21087549 Eh
CI-ITERATION   0: 
 -2610.069035934   0.000000000000 (    0.00)
 -2610.052951931   0.000000000000
 -2610.015172721   0.000000000000
 -2610.000441146   0.000000000000
 -2609.992916118   0.000000000000
   CI-PROBLEM SOLVED
   DENSITIES MADE
CI-ITERATION   0: 
 -2610.020978088   0.000000000000 (    0.24)
 -2609.997636655   0.000000000000
 -2609.991600186   0.000000000000
 -2609.990897938   0.000000000000
 -2609.986582415   0.000000000000
 -2609.984299168   0.000000000000
 -2609.982532029   0.000000000000
 -2609.982123479   0.000000000000
 -2609.980367933   0.000000000000
 -2609.979075641   0.000000000000
 -2609.973758572   0.000000000000
 -2609.972267483   0.000000000000
 -2609.967880580   0.000000000000
 -2609.966955278   0.000000000000
 -2609.965797717   0.000000000000
 -2609.963275704   0.000000000000
 -2609.961178496   0.000000000000
 -2609.957112068   0.000000000000
 -2609.956560258   0.000000000000
 -2609.954344459   0.000000000000
 -2609.948456185   0.000000000000
 -2609.945643949   0.000000000000
 -2609.943764980   0.000000000000
 -2609.943193892   0.000000000000
 -2609.943013671   0.000000000000
 -2609.941749486   0.000000000000
 -2609.940334935   0.000000000000
 -2609.930109386   0.000000000000
 -2609.924410050   0.000000000000
 -2609.916625758   0.000000000000
 -2609.913948144   0.000000000000
 -2609.911943236   0.000000000000
 -2609.905719987   0.000000000000
 -2609.901489719   0.000000000000
 -2609.899118089   0.000000000000
 -2609.886489629   0.000000000000
 -2609.879620088   0.000000000000
 -2609.879282899   0.000000000000
 -2609.851308828   0.000000000000
 -2609.841665643   0.000000000000
 -2609.833043797   0.000000000000
 -2609.830246134   0.000000000000
 -2609.826203462   0.000000000000
 -2609.801077117   0.000000000000
 -2609.786317119   0.000000000000
   CI-PROBLEM SOLVED
   DENSITIES MADE

                 <<<<<<<<<<<<<<<<<<INITIAL CI STATE CHECK>>>>>>>>>>>>>>>>>>

BLOCK  1 MULT= 5 NROOTS= 5 
ROOT   0:  E=   -2610.0690359341 Eh
      0.99765 [     4]: 21111
ROOT   1:  E=   -2610.0529519312 Eh  0.438 eV   3530.0 cm**-1
      0.95166 [     0]: 11112
      0.04828 [     3]: 12111
ROOT   2:  E=   -2610.0151727209 Eh  1.466 eV  11821.6 cm**-1
      0.78923 [     1]: 11121
      0.20895 [     2]: 11211
ROOT   3:  E=   -2610.0004411465 Eh  1.867 eV  15054.8 cm**-1
      0.95004 [     3]: 12111
      0.04824 [     0]: 11112
ROOT   4:  E=   -2609.9929161175 Eh  2.071 eV  16706.4 cm**-1
      0.78915 [     2]: 11211
      0.20865 [     1]: 11121

BLOCK  2 MULT= 3 NROOTS=45 
ROOT   0:  E=   -2610.0209780878 Eh
      0.92744 [    28]: 21111
      0.04003 [    34]: 22110
      0.00832 [    26]: 21021
      0.00633 [    30]: 21201
      0.00592 [    11]: 11121
      0.00348 [    17]: 12102
      0.00319 [     6]: 10122
      0.00294 [    15]: 12012
ROOT   1:  E=   -2609.9976366550 Eh  0.635 eV   5122.9 cm**-1
      0.74779 [    10]: 11112
      0.05748 [    18]: 12111
      0.04819 [    23]: 20121
      0.04539 [    33]: 22101
      0.03628 [    24]: 20211
      0.02094 [    12]: 11202
      0.01689 [    32]: 22011
      0.00665 [     8]: 10221
      0.00419 [     9]: 11022
      0.00417 [     0]: 01122
      0.00401 [    29]: 21120
ROOT   2:  E=   -2609.9916001865 Eh  0.799 eV   6447.7 cm**-1
      0.39952 [    32]: 22011
      0.22011 [    24]: 20211
      0.09963 [    10]: 11112
      0.07483 [    33]: 22101
      0.03855 [    23]: 20121
      0.03261 [    28]: 21111
      0.03166 [    25]: 21012
      0.02765 [    12]: 11202
      0.02062 [     9]: 11022
      0.01512 [     1]: 01212
      0.01378 [    18]: 12111
      0.00871 [    29]: 21120
      0.00363 [     0]: 01122
      0.00275 [    15]: 12012
ROOT   3:  E=   -2609.9908979378 Eh  0.819 eV   6601.8 cm**-1
      0.72206 [    28]: 21111
      0.11518 [    15]: 12012
      0.04238 [    17]: 12102
      0.02640 [    11]: 11121
      0.01959 [    32]: 22011
      0.01595 [     6]: 10122
      0.01585 [    22]: 20112
      0.01213 [    24]: 20211
      0.00807 [    26]: 21021
      0.00388 [     7]: 10212
      0.00382 [     3]: 02112
      0.00345 [    13]: 11211
ROOT   4:  E=   -2609.9865824151 Eh  0.936 eV   7549.0 cm**-1
      0.63784 [    28]: 21111
      0.18895 [    17]: 12102
      0.07907 [    15]: 12012
      0.02263 [    34]: 22110
      0.02166 [    11]: 11121
      0.01920 [     7]: 10212
      0.01489 [    13]: 11211
      0.00786 [    30]: 21201
      0.00359 [     3]: 02112
ROOT   5:  E=   -2609.9842991676 Eh  0.998 eV   8050.1 cm**-1
      0.34557 [    10]: 11112
      0.26485 [    27]: 21102
      0.09224 [     0]: 01122
      0.07343 [    25]: 21012
      0.06121 [    33]: 22101
      0.03889 [     9]: 11022
      0.03376 [    12]: 11202
      0.03313 [    23]: 20121
      0.01277 [    18]: 12111
      0.00899 [     1]: 01212
      0.00845 [    16]: 12021
      0.00709 [    32]: 22011
      0.00620 [     8]: 10221
      0.00478 [     4]: 02121
      0.00311 [    28]: 21111
ROOT   6:  E=   -2609.9825320288 Eh  1.046 eV   8437.9 cm**-1
      0.49766 [    30]: 21201
      0.39570 [    26]: 21021
      0.03095 [    28]: 21111
      0.01540 [    11]: 11121
      0.01352 [    13]: 11211
      0.01006 [    15]: 12012
      0.00965 [    17]: 12102
      0.00652 [    33]: 22101
      0.00453 [    23]: 20121
      0.00315 [    10]: 11112
      0.00285 [     7]: 10212
ROOT   7:  E=   -2609.9821234795 Eh  1.057 eV   8527.6 cm**-1
      0.26137 [    10]: 11112
      0.19525 [    33]: 22101
      0.12992 [    24]: 20211
      0.09662 [    23]: 20121
      0.08267 [    32]: 22011
      0.06104 [    27]: 21102
      0.05887 [     9]: 11022
      0.02808 [    16]: 12021
      0.02175 [     8]: 10221
      0.02045 [    18]: 12111
      0.01232 [     1]: 01212
      0.01112 [    30]: 21201
      0.00821 [    26]: 21021
ROOT   8:  E=   -2609.9803679331 Eh  1.105 eV   8912.9 cm**-1
      0.22952 [    23]: 20121
      0.22373 [    10]: 11112
      0.16707 [    29]: 21120
      0.14342 [    27]: 21102
      0.07589 [    12]: 11202
      0.05589 [    18]: 12111
      0.02926 [    33]: 22101
      0.01554 [    25]: 21012
      0.01431 [     8]: 10221
      0.01273 [     1]: 01212
      0.00698 [     9]: 11022
      0.00577 [    28]: 21111
      0.00534 [    17]: 12102
      0.00504 [    11]: 11121
ROOT   9:  E=   -2609.9790756408 Eh  1.140 eV   9196.5 cm**-1
      0.24041 [    11]: 11121
      0.23989 [    28]: 21111
      0.16965 [    17]: 12102
      0.14960 [    15]: 12012
      0.05913 [    13]: 11211
      0.03096 [     6]: 10122
      0.02867 [    34]: 22110
      0.01719 [     7]: 10212
      0.01246 [    19]: 12120
      0.01127 [    30]: 21201
      0.01092 [    26]: 21021
      0.00731 [    10]: 11112
      0.00554 [    22]: 20112
      0.00407 [    23]: 20121
      0.00281 [    12]: 11202
      0.00255 [    18]: 12111
ROOT  10:  E=   -2609.9737585715 Eh  1.285 eV  10363.5 cm**-1
      0.35102 [    11]: 11121
      0.19189 [    13]: 11211
      0.17097 [    28]: 21111
      0.12707 [    15]: 12012
      0.11530 [     3]: 02112
      0.01392 [    17]: 12102
      0.00935 [    19]: 12120
      0.00771 [     7]: 10212
      0.00301 [    10]: 11112
      0.00297 [    26]: 21021
      0.00279 [    21]: 12210
ROOT  11:  E=   -2609.9722674829 Eh  1.325 eV  10690.7 cm**-1
      0.28458 [    10]: 11112
      0.18615 [    27]: 21102
      0.13289 [    32]: 22011
      0.11493 [    24]: 20211
      0.07973 [    33]: 22101
      0.06117 [     9]: 11022
      0.04361 [    18]: 12111
      0.03875 [    12]: 11202
      0.03711 [    25]: 21012
      0.00765 [    20]: 12201
      0.00398 [     8]: 10221
      0.00320 [     1]: 01212
ROOT  12:  E=   -2609.9678805804 Eh  1.445 eV  11653.6 cm**-1
      0.30182 [    12]: 11202
      0.21617 [    10]: 11112
      0.12732 [     9]: 11022
      0.09643 [    18]: 12111
      0.08579 [    16]: 12021
      0.06348 [    27]: 21102
      0.03161 [    25]: 21012
      0.02785 [     0]: 01122
      0.01561 [    24]: 20211
      0.01042 [    33]: 22101
      0.00681 [    23]: 20121
      0.00671 [    32]: 22011
      0.00546 [     1]: 01212
ROOT  13:  E=   -2609.9669552783 Eh  1.470 eV  11856.6 cm**-1
      0.40431 [    18]: 12111
      0.19571 [     1]: 01212
      0.17316 [     0]: 01122
      0.08740 [    10]: 11112
      0.04163 [    25]: 21012
      0.01259 [    33]: 22101
      0.01126 [    32]: 22011
      0.00998 [     4]: 02121
      0.00911 [    12]: 11202
      0.00834 [    29]: 21120
      0.00809 [    16]: 12021
      0.00788 [    27]: 21102
      0.00383 [    31]: 21210
      0.00357 [    15]: 12012
      0.00351 [     5]: 02211
      0.00331 [     7]: 10212
      0.00299 [     9]: 11022
      0.00284 [    11]: 11121
ROOT  14:  E=   -2609.9657977165 Eh  1.502 eV  12110.7 cm**-1
      0.28431 [     7]: 10212
      0.17287 [    17]: 12102
      0.13356 [     6]: 10122
      0.13242 [    11]: 11121
      0.10506 [    15]: 12012
      0.05546 [    22]: 20112
      0.05409 [    13]: 11211
      0.01346 [     3]: 02112
      0.01330 [    28]: 21111
      0.00779 [    30]: 21201
      0.00572 [    26]: 21021
      0.00448 [    10]: 11112
      0.00337 [    25]: 21012
ROOT  15:  E=   -2609.9632757042 Eh  1.570 eV  12664.2 cm**-1
      0.18999 [    24]: 20211
      0.17815 [    25]: 21012
      0.15806 [    27]: 21102
      0.13552 [    16]: 12021
      0.10422 [    18]: 12111
      0.07274 [     9]: 11022
      0.04994 [    32]: 22011
      0.04222 [     8]: 10221
      0.01743 [     1]: 01212
      0.01471 [    12]: 11202
      0.01036 [    10]: 11112
      0.00609 [    31]: 21210
      0.00414 [    11]: 11121
      0.00257 [    20]: 12201
ROOT  16:  E=   -2609.9611784963 Eh  1.627 eV  13124.5 cm**-1
      0.51503 [    11]: 11121
      0.12734 [    13]: 11211
      0.09521 [     3]: 02112
      0.06555 [     7]: 10212
      0.04943 [    22]: 20112
      0.04851 [    17]: 12102
      0.02786 [     6]: 10122
      0.01797 [    19]: 12120
      0.01673 [    28]: 21111
      0.01376 [    26]: 21021
      0.00810 [     2]: 01221
      0.00746 [    30]: 21201
      0.00287 [    21]: 12210
ROOT  17:  E=   -2609.9571120683 Eh  1.738 eV  14017.0 cm**-1
      0.52200 [    29]: 21120
      0.12039 [     0]: 01122
      0.11087 [    10]: 11112
      0.06416 [    33]: 22101
      0.03971 [    12]: 11202
      0.03107 [    24]: 20211
      0.02659 [    31]: 21210
      0.02207 [    16]: 12021
      0.01883 [    18]: 12111
      0.01275 [    23]: 20121
      0.00861 [    25]: 21012
      0.00769 [    20]: 12201
      0.00580 [     1]: 01212
ROOT  18:  E=   -2609.9565602583 Eh  1.753 eV  14138.1 cm**-1
      0.35448 [    11]: 11121
      0.19615 [    22]: 20112
      0.09893 [    26]: 21021
      0.09874 [    13]: 11211
      0.07403 [    30]: 21201
      0.05549 [    15]: 12012
      0.03881 [     6]: 10122
      0.03093 [     3]: 02112
      0.02765 [    28]: 21111
      0.01374 [     7]: 10212
      0.00418 [    19]: 12120
ROOT  19:  E=   -2609.9543444585 Eh  1.813 eV  14624.4 cm**-1
      0.58399 [    18]: 12111
      0.07944 [    23]: 20121
      0.07341 [    33]: 22101
      0.05916 [    10]: 11112
      0.04755 [    31]: 21210
      0.03122 [    25]: 21012
      0.02695 [    24]: 20211
      0.02094 [    29]: 21120
      0.01935 [     1]: 01212
      0.01237 [    20]: 12201
      0.01218 [    32]: 22011
      0.01090 [    27]: 21102
      0.00592 [     9]: 11022
      0.00350 [     0]: 01122
      0.00331 [     4]: 02121
ROOT  20:  E=   -2609.9484561847 Eh  1.973 eV  15916.7 cm**-1
      0.38620 [    22]: 20112
      0.14963 [    11]: 11121
      0.14899 [    13]: 11211
      0.08095 [    34]: 22110
      0.04603 [    30]: 21201
      0.04495 [    17]: 12102
      0.04350 [     3]: 02112
      0.03076 [    15]: 12012
      0.01810 [    28]: 21111
      0.01300 [     6]: 10122
      0.01198 [    26]: 21021
      0.00799 [     2]: 01221
      0.00730 [     7]: 10212
      0.00434 [    19]: 12120
ROOT  21:  E=   -2609.9456439494 Eh  2.050 eV  16533.9 cm**-1
      0.49085 [    31]: 21210
      0.13665 [     1]: 01212
      0.08940 [    18]: 12111
      0.04832 [    25]: 21012
      0.04281 [    10]: 11112
      0.03638 [     8]: 10221
      0.03222 [    33]: 22101
      0.03107 [     0]: 01122
      0.02509 [    24]: 20211
      0.01168 [    20]: 12201
      0.01072 [    14]: 11220
      0.00834 [    27]: 21102
      0.00789 [    23]: 20121
      0.00678 [    29]: 21120
      0.00444 [     9]: 11022
      0.00282 [    11]: 11121
      0.00276 [    32]: 22011
ROOT  22:  E=   -2609.9437649803 Eh  2.101 eV  16946.3 cm**-1
      0.32413 [    13]: 11211
      0.28369 [    11]: 11121
      0.16926 [     3]: 02112
      0.07694 [     7]: 10212
      0.03082 [    28]: 21111
      0.02920 [    34]: 22110
      0.01557 [    26]: 21021
      0.01203 [     8]: 10221
      0.01119 [    17]: 12102
      0.00595 [    22]: 20112
      0.00475 [    33]: 22101
      0.00470 [     1]: 01212
      0.00455 [    19]: 12120
      0.00423 [    25]: 21012
      0.00352 [    10]: 11112
      0.00335 [     6]: 10122
      0.00284 [     2]: 01221
ROOT  23:  E=   -2609.9431938921 Eh  2.117 eV  17071.7 cm**-1
      0.30430 [    16]: 12021
      0.17388 [    25]: 21012
      0.12707 [    18]: 12111
      0.09620 [     8]: 10221
      0.06746 [    10]: 11112
      0.05067 [    31]: 21210
      0.04846 [    12]: 11202
      0.03566 [    32]: 22011
      0.03241 [     1]: 01212
      0.01862 [    20]: 12201
      0.00834 [    27]: 21102
      0.00821 [    24]: 20211
      0.00533 [     3]: 02112
      0.00445 [     5]: 02211
      0.00380 [    13]: 11211
      0.00380 [     9]: 11022
      0.00286 [    11]: 11121
ROOT  24:  E=   -2609.9430136707 Eh  2.122 eV  17111.2 cm**-1
      0.60301 [    13]: 11211
      0.25722 [    11]: 11121
      0.06306 [     7]: 10212
      0.02020 [    15]: 12012
      0.01141 [    17]: 12102
      0.01046 [     3]: 02112
      0.00593 [    19]: 12120
      0.00553 [     6]: 10122
      0.00542 [    28]: 21111
      0.00359 [    30]: 21201
      0.00349 [    21]: 12210
ROOT  25:  E=   -2609.9417494855 Eh  2.156 eV  17388.7 cm**-1
      0.20191 [     8]: 10221
      0.15536 [    18]: 12111
      0.10601 [    33]: 22101
      0.10399 [    20]: 12201
      0.10184 [    23]: 20121
      0.07741 [    10]: 11112
      0.07077 [    12]: 11202
      0.05203 [    25]: 21012
      0.03906 [     0]: 01122
      0.02255 [     4]: 02121
      0.02247 [    29]: 21120
      0.01344 [    13]: 11211
      0.00953 [    16]: 12021
      0.00497 [    11]: 11121
      0.00332 [    32]: 22011
      0.00289 [    27]: 21102
      0.00283 [    14]: 11220
      0.00263 [     7]: 10212
ROOT  26:  E=   -2609.9403349347 Eh  2.194 eV  17699.1 cm**-1
      0.32361 [     3]: 02112
      0.29836 [    13]: 11211
      0.24531 [    34]: 22110
      0.04334 [    11]: 11121
      0.02417 [    22]: 20112
      0.01211 [    28]: 21111
      0.01131 [     6]: 10122
      0.00784 [    19]: 12120
      0.00689 [     7]: 10212
      0.00677 [     2]: 01221
      0.00630 [    26]: 21021
      0.00342 [    17]: 12102
ROOT  27:  E=   -2609.9301093863 Eh  2.473 eV  19943.4 cm**-1
      0.55170 [    18]: 12111
      0.07703 [     9]: 11022
      0.07136 [    10]: 11112
      0.05973 [    24]: 20211
      0.05765 [    12]: 11202
      0.03739 [    32]: 22011
      0.03111 [    16]: 12021
      0.02946 [     8]: 10221
      0.02231 [    20]: 12201
      0.02186 [    25]: 21012
      0.01228 [     1]: 01212
      0.01049 [    23]: 20121
      0.00856 [     5]: 02211
      0.00342 [    29]: 21120
ROOT  28:  E=   -2609.9244100501 Eh  2.628 eV  21194.2 cm**-1
      0.33622 [    26]: 21021
      0.25230 [    30]: 21201
      0.16619 [    11]: 11121
      0.11561 [     2]: 01221
      0.06307 [     7]: 10212
      0.03297 [    13]: 11211
      0.01362 [     6]: 10122
      0.00415 [    28]: 21111
      0.00412 [    15]: 12012
      0.00340 [    22]: 20112
      0.00301 [    17]: 12102
ROOT  29:  E=   -2609.9166257579 Eh  2.840 eV  22902.7 cm**-1
      0.30137 [    18]: 12111
      0.11256 [    16]: 12021
      0.09532 [    32]: 22011
      0.08585 [    20]: 12201
      0.06585 [    12]: 11202
      0.05406 [    23]: 20121
      0.05217 [    33]: 22101
      0.04712 [    24]: 20211
      0.04671 [    10]: 11112
      0.03531 [     1]: 01212
      0.02480 [     5]: 02211
      0.01656 [     4]: 02121
      0.01649 [     9]: 11022
      0.01630 [    25]: 21012
      0.00896 [     0]: 01122
      0.00895 [     8]: 10221
      0.00419 [    27]: 21102
      0.00366 [    29]: 21120
ROOT  30:  E=   -2609.9139481437 Eh  2.912 eV  23490.4 cm**-1
      0.21231 [    15]: 12012
      0.16109 [     7]: 10212
      0.14731 [    17]: 12102
      0.12943 [    34]: 22110
      0.11429 [    13]: 11211
      0.10648 [    11]: 11121
      0.03197 [    21]: 12210
      0.02274 [    28]: 21111
      0.02017 [    30]: 21201
      0.01970 [     6]: 10122
      0.01139 [    26]: 21021
      0.01086 [    19]: 12120
      0.01006 [     3]: 02112
ROOT  31:  E=   -2609.9119432357 Eh  2.967 eV  23930.4 cm**-1
      0.71008 [    13]: 11211
      0.12690 [    11]: 11121
      0.07792 [    34]: 22110
      0.03478 [     6]: 10122
      0.01258 [     3]: 02112
      0.01049 [     2]: 01221
      0.00632 [    28]: 21111
      0.00623 [    30]: 21201
      0.00620 [    22]: 20112
      0.00297 [    15]: 12012
ROOT  32:  E=   -2609.9057199871 Eh  3.136 eV  25296.2 cm**-1
      0.22384 [    31]: 21210
      0.18397 [    29]: 21120
      0.11396 [    18]: 12111
      0.08871 [     0]: 01122
      0.08023 [    23]: 20121
      0.07559 [    25]: 21012
      0.06429 [    14]: 11220
      0.04368 [    27]: 21102
      0.03931 [    10]: 11112
      0.02682 [     1]: 01212
      0.01998 [    33]: 22101
      0.01823 [    16]: 12021
      0.00679 [     9]: 11022
      0.00282 [    20]: 12201
ROOT  33:  E=   -2609.9014897192 Eh  3.251 eV  26224.7 cm**-1
      0.26210 [     4]: 02121
      0.20788 [     8]: 10221
      0.14229 [     1]: 01212
      0.09558 [    18]: 12111
      0.07124 [     0]: 01122
      0.04135 [    23]: 20121
      0.04128 [     5]: 02211
      0.03599 [    20]: 12201
      0.02664 [    10]: 11112
      0.02085 [    33]: 22101
      0.01993 [    24]: 20211
      0.01259 [    27]: 21102
      0.00686 [    32]: 22011
      0.00546 [    31]: 21210
      0.00544 [    29]: 21120
ROOT  34:  E=   -2609.8991180893 Eh  3.316 eV  26745.2 cm**-1
      0.30808 [     6]: 10122
      0.22748 [    34]: 22110
      0.12234 [    19]: 12120
      0.08583 [    22]: 20112
      0.06431 [     3]: 02112
      0.05716 [    17]: 12102
      0.04578 [    28]: 21111
      0.03222 [    11]: 11121
      0.02134 [    13]: 11211
      0.01674 [    15]: 12012
      0.00476 [     2]: 01221
      0.00375 [    26]: 21021
      0.00311 [    21]: 12210
ROOT  35:  E=   -2609.8864896293 Eh  3.660 eV  29516.8 cm**-1
      0.20936 [     0]: 01122
      0.20224 [     1]: 01212
      0.07932 [     9]: 11022
      0.06851 [    25]: 21012
      0.06670 [    23]: 20121
      0.06563 [     8]: 10221
      0.04157 [    18]: 12111
      0.04000 [    33]: 22101
      0.03777 [    31]: 21210
      0.03240 [    20]: 12201
      0.03078 [    14]: 11220
      0.02521 [    10]: 11112
      0.02222 [    29]: 21120
      0.02165 [    24]: 20211
      0.02131 [    12]: 11202
      0.01389 [    32]: 22011
      0.01081 [    27]: 21102
      0.00523 [    16]: 12021
      0.00267 [     4]: 02121
ROOT  36:  E=   -2609.8796200885 Eh  3.847 eV  31024.5 cm**-1
      0.27578 [     9]: 11022
      0.11292 [    12]: 11202
      0.07742 [    14]: 11220
      0.07682 [    10]: 11112
      0.06768 [    25]: 21012
      0.05901 [    20]: 12201
      0.05822 [     1]: 01212
      0.05675 [    31]: 21210
      0.03458 [    16]: 12021
      0.02824 [    32]: 22011
      0.02107 [    22]: 20112
      0.01878 [     7]: 10212
      0.01832 [     6]: 10122
      0.01568 [    18]: 12111
      0.01310 [    13]: 11211
      0.01170 [    34]: 22110
      0.01147 [     3]: 02112
      0.00925 [    23]: 20121
      0.00581 [    15]: 12012
      0.00532 [     5]: 02211
      0.00370 [    24]: 20211
      0.00305 [    29]: 21120
ROOT  37:  E=   -2609.8792828992 Eh  3.856 eV  31098.5 cm**-1
      0.21474 [     6]: 10122
      0.15762 [     7]: 10212
      0.13409 [    22]: 20112
      0.09526 [    13]: 11211
      0.07048 [     3]: 02112
      0.06966 [    34]: 22110
      0.03464 [    15]: 12012
      0.03173 [    19]: 12120
      0.02867 [    17]: 12102
      0.02864 [     9]: 11022
      0.02682 [    11]: 11121
      0.01277 [    12]: 11202
      0.01169 [    26]: 21021
      0.01066 [    25]: 21012
      0.01002 [    10]: 11112
      0.00905 [    14]: 11220
      0.00898 [     1]: 01212
      0.00878 [    31]: 21210
      0.00746 [    30]: 21201
      0.00742 [    28]: 21111
      0.00676 [    20]: 12201
      0.00397 [    32]: 22011
      0.00383 [    16]: 12021
      0.00283 [    18]: 12111
ROOT  38:  E=   -2609.8513088276 Eh  4.617 eV  37238.1 cm**-1
      0.54453 [     4]: 02121
      0.11349 [     0]: 01122
      0.09062 [     5]: 02211
      0.05898 [    23]: 20121
      0.05257 [     8]: 10221
      0.03881 [    33]: 22101
      0.03396 [     1]: 01212
      0.01621 [    10]: 11112
      0.01132 [    24]: 20211
      0.00929 [    20]: 12201
      0.00895 [    14]: 11220
      0.00739 [    18]: 12111
      0.00421 [    16]: 12021
      0.00274 [    27]: 21102
ROOT  39:  E=   -2609.8416656425 Eh  4.879 eV  39354.5 cm**-1
      0.70484 [     2]: 01221
      0.11063 [    19]: 12120
      0.04054 [    13]: 11211
      0.03387 [    26]: 21021
      0.03227 [    11]: 11121
      0.03198 [    30]: 21201
      0.00861 [     3]: 02112
      0.00702 [    28]: 21111
      0.00674 [    21]: 12210
      0.00662 [     6]: 10122
      0.00565 [    17]: 12102
      0.00543 [    34]: 22110
ROOT  40:  E=   -2609.8330437967 Eh  5.114 eV  41246.8 cm**-1
      0.70631 [    14]: 11220
      0.06084 [     9]: 11022
      0.05804 [     5]: 02211
      0.04134 [    20]: 12201
      0.03136 [    12]: 11202
      0.02625 [     8]: 10221
      0.02273 [    31]: 21210
      0.01776 [    10]: 11112
      0.01174 [    18]: 12111
      0.00895 [    29]: 21120
      0.00293 [    32]: 22011
      0.00276 [    16]: 12021
ROOT  41:  E=   -2609.8302461338 Eh  5.190 eV  41860.8 cm**-1
      0.52630 [    20]: 12201
      0.16775 [    16]: 12021
      0.15259 [     8]: 10221
      0.04094 [     9]: 11022
      0.03854 [    18]: 12111
      0.02851 [    14]: 11220
      0.01965 [    33]: 22101
      0.00518 [    10]: 11112
      0.00450 [    24]: 20211
      0.00433 [    32]: 22011
      0.00317 [     4]: 02121
ROOT  42:  E=   -2609.8262034618 Eh  5.300 eV  42748.1 cm**-1
      0.64311 [    19]: 12120
      0.11313 [     2]: 01221
      0.09362 [     6]: 10122
      0.08128 [    11]: 11121
      0.02370 [    17]: 12102
      0.01601 [    21]: 12210
      0.01075 [    26]: 21021
      0.00428 [    13]: 11211
      0.00385 [    15]: 12012
      0.00375 [    28]: 21111
ROOT  43:  E=   -2609.8010771171 Eh  5.984 eV  48262.7 cm**-1
      0.74697 [     5]: 02211
      0.11986 [     4]: 02121
      0.04908 [    14]: 11220
      0.02431 [    18]: 12111
      0.01903 [    32]: 22011
      0.01134 [    24]: 20211
      0.00575 [    20]: 12201
      0.00349 [    12]: 11202
      0.00347 [    16]: 12021
      0.00300 [    33]: 22101
      0.00285 [    10]: 11112
      0.00261 [     0]: 01122
ROOT  44:  E=   -2609.7863171190 Eh  6.385 eV  51502.1 cm**-1
      0.92629 [    21]: 12210
      0.01627 [     7]: 10212
      0.01564 [     2]: 01221
      0.01489 [    34]: 22110
      0.00920 [    15]: 12012
      0.00633 [    19]: 12120
      0.00306 [    13]: 11211

                 <<<<<<<<<<<<<<<<<<INITIAL CI STATE CHECK>>>>>>>>>>>>>>>>>>

   E(CAS)= -2609.978162900 Eh DE=    0.000000e+00
   --- Energy gap subspaces: Ext-Act = 0.118   Act-Int = 0.136
   N(occ)=  1.20000 1.20000 1.20000 1.20000 1.20000
   ||g|| =     2.344054e+00 Max(G)=    5.014559e-01 Rot=382,1
   --- Orbital Update [SuperCI(PT)]
   --- Canonicalize Internal Space
   --- Canonicalize External Space
   --- SX_PT (Skipped TA=0 IT=0): ||X|| =      0.606536536 Max(X)(109,103) =     -0.237893380 
   --- SFit(Active Orbitals)

MACRO-ITERATION   2: 
   --- Inactive Energy E0 = -2596.39775394 Eh
CI-ITERATION   0: 
 -2610.335395383   0.000000000000 (    0.00)
 -2610.334657486   0.000000000000
 -2610.315884591   0.000000000000
 -2610.274360499   0.000000000000
 -2610.273488685   0.000000000000
   CI-PROBLEM SOLVED
   DENSITIES MADE
CI-ITERATION   0: 
 -2610.315707745   0.000000000000 (    0.00)
 -2610.298406502   0.000000000000
 -2610.296894132   0.000000000000
 -2610.295509824   0.000000000000
 -2610.283039199   0.000000000000
 -2610.282721673   0.000000000000
 -2610.277477211   0.000000000000
 -2610.275419406   0.000000000000
 -2610.267676473   0.000000000000
 -2610.264451451   0.000000000000
 -2610.254858842   0.000000000000
 -2610.249604149   0.000000000000
 -2610.249436853   0.000000000000
 -2610.245225906   0.000000000000
 -2610.243715796   0.000000000000
 -2610.237199798   0.000000000000
 -2610.234753418   0.000000000000
 -2610.227835351   0.000000000000
 -2610.224959007   0.000000000000
 -2610.223412942   0.000000000000
 -2610.206245938   0.000000000000
 -2610.202360815   0.000000000000
 -2610.200991758   0.000000000000
 -2610.197629623   0.000000000000
 -2610.197036692   0.000000000000
 -2610.190996992   0.000000000000
 -2610.189627991   0.000000000000
 -2610.181491991   0.000000000000
 -2610.177656486   0.000000000000
 -2610.175685078   0.000000000000
 -2610.174245104   0.000000000000
 -2610.167437700   0.000000000000
 -2610.164219300   0.000000000000
 -2610.160836545   0.000000000000
 -2610.157681038   0.000000000000
 -2610.113056491   0.000000000000
 -2610.105492853   0.000000000000
 -2610.101100971   0.000000000000
 -2610.089580438   0.000000000000
 -2610.088186175   0.000000000000
 -2610.073296603   0.000000000000
 -2610.069432191   0.000000000000
 -2610.066791063   0.000000000000
 -2610.043854225   0.000000000000
 -2610.041985816   0.000000000000
   CI-PROBLEM SOLVED
   DENSITIES MADE
   E(CAS)= -2610.250992281 Eh DE=   -2.728294e-01
   --- Energy gap subspaces: Ext-Act = 0.345   Act-Int = -0.192
   N(occ)=  1.20000 1.20000 1.20000 1.20000 1.20000
   ||g|| =     1.684534e+00 Max(G)=    4.252674e-01 Rot=110,105
   --- Orbital Update [SuperCI(PT)]
   --- Canonicalize Internal Space
   --- Canonicalize External Space
   --- SX_PT (Skipped TA=0 IT=0): ||X|| =      0.584240757 Max(X)(110,105) =      0.312533696 
   --- SFit(Active Orbitals)

MACRO-ITERATION   3: 
   --- Inactive Energy E0 = -2598.34600098 Eh
CI-ITERATION   0: 
 -2610.451593853   0.000000000000 (    0.13)
 -2610.424781890   0.000000000000
 -2610.404803465   0.000000000000
 -2610.394484514   0.000000000000
 -2610.382360308   0.000000000000
   CI-PROBLEM SOLVED
   DENSITIES MADE
CI-ITERATION   0: 
 -2610.368132041   0.000000000000 (    0.00)
 -2610.366641216   0.000000000000
 -2610.364630374   0.000000000000
 -2610.363915313   0.000000000000
 -2610.360163867   0.000000000000
 -2610.353620662   0.000000000000
 -2610.351738104   0.000000000000
 -2610.347462738   0.000000000000
 -2610.346517061   0.000000000000
 -2610.341554002   0.000000000000
 -2610.339432233   0.000000000000
 -2610.337158062   0.000000000000
 -2610.332938132   0.000000000000
 -2610.331207108   0.000000000000
 -2610.330726634   0.000000000000
 -2610.322981881   0.000000000000
 -2610.320879333   0.000000000000
 -2610.318837872   0.000000000000
 -2610.318007107   0.000000000000
 -2610.317551963   0.000000000000
 -2610.315399311   0.000000000000
 -2610.312664133   0.000000000000
 -2610.310628115   0.000000000000
 -2610.306468552   0.000000000000
 -2610.304974507   0.000000000000
 -2610.299624090   0.000000000000
 -2610.298211850   0.000000000000
 -2610.293495642   0.000000000000
 -2610.286233747   0.000000000000
 -2610.283854209   0.000000000000
 -2610.279188809   0.000000000000
 -2610.275359359   0.000000000000
 -2610.271237225   0.000000000000
 -2610.257831196   0.000000000000
 -2610.255167563   0.000000000000
 -2610.226813040   0.000000000000
 -2610.213809645   0.000000000000
 -2610.212603330   0.000000000000
 -2610.202843101   0.000000000000
 -2610.200684136   0.000000000000
 -2610.192459934   0.000000000000
 -2610.191345232   0.000000000000
 -2610.180492999   0.000000000000
 -2610.174941223   0.000000000000
 -2610.157621049   0.000000000000
   CI-PROBLEM SOLVED
   DENSITIES MADE
   E(CAS)= -2610.351780711 Eh DE=   -1.007884e-01
   --- Energy gap subspaces: Ext-Act = 0.092   Act-Int = 0.152
   N(occ)=  1.20000 1.20000 1.20000 1.20000 1.20000
   ||g|| =     8.699532e-01 Max(G)=    1.774389e-01 Rot=109,104
   --- Orbital Update [SuperCI(PT)]
   --- Canonicalize Internal Space
   --- Canonicalize External Space
   --- SX_PT (Skipped TA=0 IT=0): ||X|| =      0.375496299 Max(X)(109,103) =     -0.260912390 
   --- SFit(Active Orbitals)

MACRO-ITERATION   4: 
   --- Inactive Energy E0 = -2596.65502396 Eh
CI-ITERATION   0: 
 -2610.491153009   0.000000000000 (    0.00)
 -2610.490373866   0.000000000000
 -2610.479466757   0.000000000000
 -2610.476085925   0.000000000000
 -2610.465225263   0.000000000000
   CI-PROBLEM SOLVED
   DENSITIES MADE
CI-ITERATION   0: 
 -2610.412421960   0.000000000000 (    0.00)
 -2610.404568193   0.000000000000
 -2610.404231337   0.000000000000
 -2610.401929691   0.000000000000
 -2610.401715496   0.000000000000
 -2610.401546778   0.000000000000
 -2610.400986717   0.000000000000
 -2610.394813194   0.000000000000
 -2610.393438911   0.000000000000
 -2610.392025624   0.000000000000
 -2610.391901117   0.000000000000
 -2610.390886328   0.000000000000
 -2610.389304617   0.000000000000
 -2610.386861560   0.000000000000
 -2610.385578116   0.000000000000
 -2610.384828174   0.000000000000
 -2610.382799241   0.000000000000
 -2610.382642212   0.000000000000
 -2610.379484243   0.000000000000
 -2610.378908331   0.000000000000
 -2610.378305849   0.000000000000
 -2610.378256134   0.000000000000
 -2610.377723179   0.000000000000
 -2610.375185727   0.000000000000
 -2610.371081438   0.000000000000
 -2610.370223466   0.000000000000
 -2610.370087656   0.000000000000
 -2610.369561971   0.000000000000
 -2610.367911675   0.000000000000
 -2610.366411542   0.000000000000
 -2610.346665532   0.000000000000
 -2610.345149984   0.000000000000
 -2610.341003371   0.000000000000
 -2610.340610552   0.000000000000
 -2610.339346434   0.000000000000
 -2610.272510234   0.000000000000
 -2610.267278358   0.000000000000
 -2610.258738891   0.000000000000
 -2610.257535857   0.000000000000
 -2610.256732367   0.000000000000
 -2610.251829929   0.000000000000
 -2610.247936523   0.000000000000
 -2610.246945757   0.000000000000
 -2610.246548860   0.000000000000
 -2610.239844102   0.000000000000
   CI-PROBLEM SOLVED
   DENSITIES MADE
   E(CAS)= -2610.416278229 Eh DE=   -6.449752e-02
   --- Energy gap subspaces: Ext-Act = 0.165   Act-Int = 0.058
   N(occ)=  1.20000 1.20000 1.20000 1.20000 1.20000
   ||g|| =     3.908727e-01 Max(G)=    1.063202e-01 Rot=109,104
   --- Orbital Update [SuperCI(PT)]
   --- Canonicalize Internal Space
   --- Canonicalize External Space
   --- SX_PT (Skipped TA=0 IT=0): ||X|| =      0.204079287 Max(X)(109,103) =     -0.154495084 
   --- SFit(Active Orbitals)

MACRO-ITERATION   5: 
   --- Inactive Energy E0 = -2596.21668445 Eh
CI-ITERATION   0: 
 -2610.511241988   0.000000000000 (    0.00)
 -2610.509117814   0.000000000000
 -2610.500522849   0.000000000000
 -2610.498515551   0.000000000000
 -2610.489976032   0.000000000000
   CI-PROBLEM SOLVED
   DENSITIES MADE
CI-ITERATION   0: 
 -2610.426099604   0.000000000000 (    0.00)
 -2610.420921304   0.000000000000
 -2610.419248311   0.000000000000
 -2610.418899149   0.000000000000
 -2610.418435479   0.000000000000
 -2610.417704020   0.000000000000
 -2610.417285093   0.000000000000
 -2610.412379276   0.000000000000
 -2610.410728331   0.000000000000
 -2610.410233454   0.000000000000
 -2610.410187003   0.000000000000
 -2610.408048448   0.000000000000
 -2610.407871402   0.000000000000
 -2610.405844533   0.000000000000
 -2610.403001965   0.000000000000
 -2610.402867521   0.000000000000
 -2610.401243690   0.000000000000
 -2610.401080108   0.000000000000
 -2610.397351717   0.000000000000
 -2610.395973008   0.000000000000
 -2610.394961364   0.000000000000
 -2610.394799197   0.000000000000
 -2610.393481412   0.000000000000
 -2610.392967179   0.000000000000
 -2610.392263027   0.000000000000
 -2610.391035015   0.000000000000
 -2610.388075422   0.000000000000
 -2610.387464107   0.000000000000
 -2610.387232075   0.000000000000
 -2610.385573574   0.000000000000
 -2610.361071468   0.000000000000
 -2610.360837791   0.000000000000
 -2610.357540307   0.000000000000
 -2610.357297408   0.000000000000
 -2610.356433174   0.000000000000
 -2610.280353666   0.000000000000
 -2610.276268473   0.000000000000
 -2610.269267340   0.000000000000
 -2610.266688007   0.000000000000
 -2610.266491106   0.000000000000
 -2610.261897778   0.000000000000
 -2610.259446410   0.000000000000
 -2610.259254051   0.000000000000
 -2610.257758375   0.000000000000
 -2610.254276870   0.000000000000
   CI-PROBLEM SOLVED
   DENSITIES MADE
   E(CAS)= -2610.434916734 Eh DE=   -1.863851e-02
   --- Energy gap subspaces: Ext-Act = 0.153   Act-Int = 0.055
   N(occ)=  1.20000 1.20000 1.20000 1.20000 1.20000
   ||g|| =     2.885878e-01 Max(G)=    1.023924e-01 Rot=109,104
   --- Orbital Update [SuperCI(PT)]
   --- Canonicalize Internal Space
   --- Canonicalize External Space
   --- SX_PT (Skipped TA=0 IT=0): ||X|| =      0.174067420 Max(X)(109,103) =     -0.143643073 
   --- SFit(Active Orbitals)

MACRO-ITERATION   6: 
   --- Inactive Energy E0 = -2595.10089545 Eh
CI-ITERATION   0: 
 -2610.531762751   0.000000000000 (    0.00)
 -2610.525454397   0.000000000000
 -2610.525272875   0.000000000000
 -2610.520606118   0.000000000000
 -2610.518466119   0.000000000000
   CI-PROBLEM SOLVED
   DENSITIES MADE
CI-ITERATION   0: 
 -2610.438286742   0.000000000000 (    0.00)
 -2610.437023266   0.000000000000
 -2610.434518704   0.000000000000
 -2610.433912858   0.000000000000
 -2610.433487579   0.000000000000
 -2610.433364168   0.000000000000
 -2610.431820571   0.000000000000
 -2610.430609147   0.000000000000
 -2610.429008044   0.000000000000
 -2610.428736762   0.000000000000
 -2610.427972949   0.000000000000
 -2610.422360057   0.000000000000
 -2610.421669061   0.000000000000
 -2610.419972569   0.000000000000
 -2610.419819445   0.000000000000
 -2610.417747908   0.000000000000
 -2610.417135089   0.000000000000
 -2610.415577487   0.000000000000
 -2610.414544334   0.000000000000
 -2610.413736604   0.000000000000
 -2610.413490748   0.000000000000
 -2610.408429053   0.000000000000
 -2610.407960622   0.000000000000
 -2610.406816179   0.000000000000
 -2610.406485222   0.000000000000
 -2610.403950984   0.000000000000
 -2610.403151283   0.000000000000
 -2610.402364407   0.000000000000
 -2610.401585216   0.000000000000
 -2610.401510922   0.000000000000
 -2610.374220994   0.000000000000
 -2610.370841390   0.000000000000
 -2610.370656626   0.000000000000
 -2610.368451348   0.000000000000
 -2610.368315647   0.000000000000
 -2610.280481703   0.000000000000
 -2610.278191290   0.000000000000
 -2610.272714573   0.000000000000
 -2610.270756040   0.000000000000
 -2610.270272288   0.000000000000
 -2610.267589084   0.000000000000
 -2610.266277233   0.000000000000
 -2610.261414341   0.000000000000
 -2610.260979057   0.000000000000
 -2610.257027530   0.000000000000
   CI-PROBLEM SOLVED
   DENSITIES MADE
   E(CAS)= -2610.452325527 Eh DE=   -1.740879e-02
   --- Energy gap subspaces: Ext-Act = 0.176   Act-Int = 0.006
   N(occ)=  1.20000 1.20000 1.20000 1.20000 1.20000
   ||g|| =     2.956450e-01 Max(G)=    7.240573e-02 Rot=382,15
   --- Orbital Update [SuperCI(PT)]
   --- Canonicalize Internal Space
   --- Canonicalize External Space
   --- SX_PT (Skipped TA=0 IT=0): ||X|| =      0.087244083 Max(X)(109,104) =      0.057775052 
   --- SFit(Active Orbitals)

MACRO-ITERATION   7: 
   --- Inactive Energy E0 = -2595.00804555 Eh
CI-ITERATION   0: 
 -2610.535558312   0.000000000000 (    0.00)
 -2610.529974026   0.000000000000
 -2610.529545857   0.000000000000
 -2610.525509562   0.000000000000
 -2610.520948931   0.000000000000
   CI-PROBLEM SOLVED
   DENSITIES MADE
CI-ITERATION   0: 
 -2610.442495983   0.000000000000 (    0.00)
 -2610.440999257   0.000000000000
 -2610.438591681   0.000000000000
 -2610.438241562   0.000000000000
 -2610.437608320   0.000000000000
 -2610.437484912   0.000000000000
 -2610.435849840   0.000000000000
 -2610.434563778   0.000000000000
 -2610.433049340   0.000000000000
 -2610.433011863   0.000000000000
 -2610.432067498   0.000000000000
 -2610.426173822   0.000000000000
 -2610.425928220   0.000000000000
 -2610.424070736   0.000000000000
 -2610.423864335   0.000000000000
 -2610.421492215   0.000000000000
 -2610.420693993   0.000000000000
 -2610.419413641   0.000000000000
 -2610.418370025   0.000000000000
 -2610.418161786   0.000000000000
 -2610.417126393   0.000000000000
 -2610.412445674   0.000000000000
 -2610.412111505   0.000000000000
 -2610.411292654   0.000000000000
 -2610.410795431   0.000000000000
 -2610.407825508   0.000000000000
 -2610.407102362   0.000000000000
 -2610.406263803   0.000000000000
 -2610.405671446   0.000000000000
 -2610.405612224   0.000000000000
 -2610.377992782   0.000000000000
 -2610.374952161   0.000000000000
 -2610.374671733   0.000000000000
 -2610.372332651   0.000000000000
 -2610.372221714   0.000000000000
 -2610.283425642   0.000000000000
 -2610.281487906   0.000000000000
 -2610.277274478   0.000000000000
 -2610.275194558   0.000000000000
 -2610.273597048   0.000000000000
 -2610.272608606   0.000000000000
 -2610.271338334   0.000000000000
 -2610.264891251   0.000000000000
 -2610.264496833   0.000000000000
 -2610.261006471   0.000000000000
   CI-PROBLEM SOLVED
   DENSITIES MADE
   E(CAS)= -2610.456330024 Eh DE=   -4.004497e-03
   --- Energy gap subspaces: Ext-Act = 0.195   Act-Int = -0.014
   N(occ)=  1.20000 1.20000 1.20000 1.20000 1.20000
   ||g|| =     1.098498e-01 Max(G)=    2.544119e-02 Rot=109,104
   --- Orbital Update [SuperCI(PT)]
   --- Canonicalize Internal Space
   --- Canonicalize External Space
   --- SX_PT (Skipped TA=0 IT=0): ||X|| =      0.050832355 Max(X)(109,104) =      0.037162337 
   --- SFit(Active Orbitals)

MACRO-ITERATION   8: 
   --- Inactive Energy E0 = -2594.80545292 Eh
CI-ITERATION   0: 
 -2610.537553860   0.000000000000 (    0.00)
 -2610.532655152   0.000000000000
 -2610.531980034   0.000000000000
 -2610.528800470   0.000000000000
 -2610.522684485   0.000000000000
   CI-PROBLEM SOLVED
   DENSITIES MADE
CI-ITERATION   0: 
 -2610.443262940   0.000000000000 (    0.00)
 -2610.441973722   0.000000000000
 -2610.439622199   0.000000000000
 -2610.439413272   0.000000000000
 -2610.438648048   0.000000000000
 -2610.438540038   0.000000000000
 -2610.436902953   0.000000000000
 -2610.435683371   0.000000000000
 -2610.434487681   0.000000000000
 -2610.434226511   0.000000000000
 -2610.433378695   0.000000000000
 -2610.427320440   0.000000000000
 -2610.427148876   0.000000000000
 -2610.425304002   0.000000000000
 -2610.424598377   0.000000000000
 -2610.422377274   0.000000000000
 -2610.421397892   0.000000000000
 -2610.420498818   0.000000000000
 -2610.419499706   0.000000000000
 -2610.419411696   0.000000000000
 -2610.417978395   0.000000000000
 -2610.413499845   0.000000000000
 -2610.413208087   0.000000000000
 -2610.412650345   0.000000000000
 -2610.411694506   0.000000000000
 -2610.408909699   0.000000000000
 -2610.408196066   0.000000000000
 -2610.407286221   0.000000000000
 -2610.406823536   0.000000000000
 -2610.406736698   0.000000000000
 -2610.378172392   0.000000000000
 -2610.375517192   0.000000000000
 -2610.375254222   0.000000000000
 -2610.372956898   0.000000000000
 -2610.372801326   0.000000000000
 -2610.281294126   0.000000000000
 -2610.279671543   0.000000000000
 -2610.276697295   0.000000000000
 -2610.274729255   0.000000000000
 -2610.272727578   0.000000000000
 -2610.272400488   0.000000000000
 -2610.271169775   0.000000000000
 -2610.264378316   0.000000000000
 -2610.264064474   0.000000000000
 -2610.260631774   0.000000000000
   CI-PROBLEM SOLVED
   DENSITIES MADE
   E(CAS)= -2610.457846806 Eh DE=   -1.516782e-03
   --- Energy gap subspaces: Ext-Act = 0.206   Act-Int = -0.026
   N(occ)=  1.20000 1.20000 1.20000 1.20000 1.20000
   ||g|| =     4.671680e-02 Max(G)=    9.603113e-03 Rot=109,104
   --- Orbital Update [SuperCI(PT)]
   --- Canonicalize Internal Space
   --- Canonicalize External Space
   --- SX_PT (Skipped TA=0 IT=0): ||X|| =      0.021651375 Max(X)(109,104) =      0.014121049 
   --- SFit(Active Orbitals)

MACRO-ITERATION   9: 
   --- Inactive Energy E0 = -2594.72979538 Eh
CI-ITERATION   0: 
 -2610.537932421   0.000000000000 (    0.00)
 -2610.533137147   0.000000000000
 -2610.532368371   0.000000000000
 -2610.529495078   0.000000000000
 -2610.523112751   0.000000000000
   CI-PROBLEM SOLVED
   DENSITIES MADE
CI-ITERATION   0: 
 -2610.443137520   0.000000000000 (    0.00)
 -2610.441944323   0.000000000000
 -2610.439718339   0.000000000000
 -2610.439493913   0.000000000000
 -2610.438676459   0.000000000000
 -2610.438585420   0.000000000000
 -2610.436970929   0.000000000000
 -2610.435818578   0.000000000000
 -2610.434738674   0.000000000000
 -2610.434394794   0.000000000000
 -2610.433602842   0.000000000000
 -2610.427492628   0.000000000000
 -2610.427308170   0.000000000000
 -2610.425529751   0.000000000000
 -2610.424552609   0.000000000000
 -2610.422504776   0.000000000000
 -2610.421452352   0.000000000000
 -2610.420677592   0.000000000000
 -2610.419748470   0.000000000000
 -2610.419641506   0.000000000000
 -2610.418149561   0.000000000000
 -2610.413633411   0.000000000000
 -2610.413328834   0.000000000000
 -2610.412855051   0.000000000000
 -2610.411749333   0.000000000000
 -2610.409140942   0.000000000000
 -2610.408414401   0.000000000000
 -2610.407548967   0.000000000000
 -2610.407086557   0.000000000000
 -2610.406992834   0.000000000000
 -2610.378009785   0.000000000000
 -2610.375561434   0.000000000000
 -2610.375276122   0.000000000000
 -2610.373054324   0.000000000000
 -2610.372912852   0.000000000000
 -2610.280509132   0.000000000000
 -2610.278997389   0.000000000000
 -2610.276430504   0.000000000000
 -2610.274498345   0.000000000000
 -2610.272609661   0.000000000000
 -2610.271987437   0.000000000000
 -2610.271077585   0.000000000000
 -2610.264215077   0.000000000000
 -2610.263956270   0.000000000000
 -2610.260723327   0.000000000000
   CI-PROBLEM SOLVED
   DENSITIES MADE
   E(CAS)= -2610.458101341 Eh DE=   -2.545347e-04
   --- Energy gap subspaces: Ext-Act = 0.212   Act-Int = -0.033
   N(occ)=  1.20000 1.20000 1.20000 1.20000 1.20000
   ||g|| =     2.256451e-02 Max(G)=    3.972091e-03 Rot=382,15
   --- Orbital Update [SuperCI(PT)]
   --- Canonicalize Internal Space
   --- Canonicalize External Space
   --- SX_PT (Skipped TA=0 IT=0): ||X|| =      0.008068811 Max(X)(108,103) =      0.003159243 
   --- SFit(Active Orbitals)

MACRO-ITERATION  10: 
   --- Inactive Energy E0 = -2594.71624779 Eh
CI-ITERATION   0: 
 -2610.538002038   0.000000000000 (    0.00)
 -2610.533085629   0.000000000000
 -2610.532293569   0.000000000000
 -2610.529462962   0.000000000000
 -2610.523112479   0.000000000000
   CI-PROBLEM SOLVED
   DENSITIES MADE
CI-ITERATION   0: 
 -2610.443224274   0.000000000000 (    0.00)
 -2610.442018048   0.000000000000
 -2610.439798300   0.000000000000
 -2610.439553901   0.000000000000
 -2610.438735645   0.000000000000
 -2610.438642472   0.000000000000
 -2610.437019753   0.000000000000
 -2610.435871112   0.000000000000
 -2610.434801817   0.000000000000
 -2610.434439012   0.000000000000
 -2610.433646785   0.000000000000
 -2610.427553739   0.000000000000
 -2610.427366765   0.000000000000
 -2610.425620845   0.000000000000
 -2610.424617834   0.000000000000
 -2610.422595998   0.000000000000
 -2610.421505766   0.000000000000
 -2610.420722431   0.000000000000
 -2610.419821347   0.000000000000
 -2610.419715981   0.000000000000
 -2610.418195583   0.000000000000
 -2610.413709982   0.000000000000
 -2610.413406434   0.000000000000
 -2610.412944096   0.000000000000
 -2610.411832828   0.000000000000
 -2610.409213984   0.000000000000
 -2610.408479434   0.000000000000
 -2610.407658353   0.000000000000
 -2610.407174923   0.000000000000
 -2610.407089381   0.000000000000
 -2610.378112373   0.000000000000
 -2610.375684484   0.000000000000
 -2610.375355482   0.000000000000
 -2610.373176175   0.000000000000
 -2610.373010208   0.000000000000
 -2610.280746964   0.000000000000
 -2610.279188707   0.000000000000
 -2610.276672961   0.000000000000
 -2610.274655769   0.000000000000
 -2610.272681680   0.000000000000
 -2610.272149913   0.000000000000
 -2610.271303894   0.000000000000
 -2610.264347401   0.000000000000
 -2610.264109912   0.000000000000
 -2610.261044793   0.000000000000
   CI-PROBLEM SOLVED
   DENSITIES MADE
   E(CAS)= -2610.458142529 Eh DE=   -4.118811e-05
   --- Energy gap subspaces: Ext-Act = 0.216   Act-Int = -0.036
   N(occ)=  1.20000 1.20000 1.20000 1.20000 1.20000
   ||g|| =     8.700814e-03 Max(G)=   -1.331578e-03 Rot=110,103
   --- Orbital Update [SuperCI(PT)]
   --- Canonicalize Internal Space
   --- Canonicalize External Space
   --- SX_PT (Skipped TA=0 IT=0): ||X|| =      0.003702054 Max(X)(110,103) =      0.001824054 
   --- SFit(Active Orbitals)

MACRO-ITERATION  11: 
   --- Inactive Energy E0 = -2594.70627822 Eh
CI-ITERATION   0: 
 -2610.538049742   0.000000000000 (    0.00)
 -2610.533101716   0.000000000000
 -2610.532299663   0.000000000000
 -2610.529515749   0.000000000000
 -2610.523153879   0.000000000000
   CI-PROBLEM SOLVED
   DENSITIES MADE
CI-ITERATION   0: 
 -2610.443209109   0.000000000000 (    0.00)
 -2610.442010356   0.000000000000
 -2610.439801343   0.000000000000
 -2610.439552108   0.000000000000
 -2610.438727929   0.000000000000
 -2610.438631610   0.000000000000
 -2610.437008759   0.000000000000
 -2610.435861600   0.000000000000
 -2610.434808502   0.000000000000
 -2610.434436891   0.000000000000
 -2610.433646369   0.000000000000
 -2610.427550642   0.000000000000
 -2610.427363168   0.000000000000
 -2610.425634584   0.000000000000
 -2610.424599029   0.000000000000
 -2610.422601244   0.000000000000
 -2610.421485029   0.000000000000
 -2610.420716956   0.000000000000
 -2610.419828354   0.000000000000
 -2610.419724498   0.000000000000
 -2610.418185587   0.000000000000
 -2610.413706777   0.000000000000
 -2610.413403895   0.000000000000
 -2610.412954053   0.000000000000
 -2610.411826699   0.000000000000
 -2610.409216959   0.000000000000
 -2610.408477781   0.000000000000
 -2610.407679402   0.000000000000
 -2610.407185961   0.000000000000
 -2610.407103627   0.000000000000
 -2610.378086551   0.000000000000
 -2610.375681228   0.000000000000
 -2610.375330119   0.000000000000
 -2610.373176048   0.000000000000
 -2610.373001278   0.000000000000
 -2610.280679657   0.000000000000
 -2610.279105963   0.000000000000
 -2610.276650873   0.000000000000
 -2610.274597258   0.000000000000
 -2610.272602498   0.000000000000
 -2610.272089022   0.000000000000
 -2610.271275171   0.000000000000
 -2610.264303872   0.000000000000
 -2610.264082091   0.000000000000
 -2610.261085146   0.000000000000
   CI-PROBLEM SOLVED
   DENSITIES MADE
   E(CAS)= -2610.458153026 Eh DE=   -1.049671e-05
   --- Energy gap subspaces: Ext-Act = 0.217   Act-Int = -0.037
   N(occ)=  1.20000 1.20000 1.20000 1.20000 1.20000
   ||g|| =     3.432604e-03 Max(G)=   -8.212062e-04 Rot=110,103
   --- Orbital Update [SuperCI(PT)]
   --- Canonicalize Internal Space
   --- Canonicalize External Space
   --- SX_PT (Skipped TA=0 IT=0): ||X|| =      0.001617320 Max(X)(110,103) =     -0.001085683 
   --- SFit(Active Orbitals)

MACRO-ITERATION  12: 
   --- Inactive Energy E0 = -2594.70032826 Eh
CI-ITERATION   0: 
 -2610.538075397   0.000000000000 (    0.00)
[...]
      py      :     2.098179
      dz2     :     1.979537  d :     9.994820
      dxz     :     2.004943
      dyz     :     1.997655
      dx2y2   :     2.007985
      dxy     :     2.004701
      f0      :     0.000664  f :     0.004933
      f+1     :     0.000926
      f-1     :     0.000306
      f+2     :     0.000896
      f-2     :     0.000570
      f+3     :     0.001009
      f-3     :     0.000562
  2 Aus       :     2.717270  s :     2.717270
      pz      :     2.060247  p :     6.209811
      px      :     2.059165
      py      :     2.090398
      dz2     :     1.990005  d :     9.959638
      dxz     :     1.996102
      dyz     :     1.997275
      dx2y2   :     1.982835
      dxy     :     1.993421
      f0      :     0.000445  f :     0.003222
      f+1     :     0.000466
      f-1     :     0.000565
      f+2     :     0.000456
      f-2     :     0.000510
      f+3     :     0.000433
      f-3     :     0.000347
  3 Aus       :     2.614287  s :     2.614287
      pz      :     2.196128  p :     6.522908
      px      :     2.120398
      py      :     2.206382
      dz2     :     1.989204  d :     9.948042
      dxz     :     1.991903
      dyz     :     1.990902
      dx2y2   :     1.997912
      dxy     :     1.978120
      f0      :     0.000538  f :     0.004320
      f+1     :     0.000665
      f-1     :     0.000503
      f+2     :     0.000657
      f-2     :     0.001004
      f+3     :     0.000527
      f-3     :     0.000426
  4 Aus       :     2.606227  s :     2.606227
      pz      :     2.293046  p :     6.524351
      px      :     2.099774
      py      :     2.131532
      dz2     :     1.988241  d :     9.949540
      dxz     :     1.991807
      dyz     :     1.996701
      dx2y2   :     1.993071
      dxy     :     1.979721
      f0      :     0.000610  f :     0.004343
      f+1     :     0.000984
      f-1     :     0.000868
      f+2     :     0.000629
      f-2     :     0.000610
      f+3     :     0.000243
      f-3     :     0.000399
  5 Aus       :     2.593003  s :     2.593003
      pz      :     2.164864  p :     6.446390
      px      :     2.126406
      py      :     2.155120
      dz2     :     2.007762  d :     9.979332
      dxz     :     1.985865
      dyz     :     1.990483
      dx2y2   :     2.014494
      dxy     :     1.980728
      f0      :     0.000574  f :     0.003689
      f+1     :     0.000466
      f-1     :     0.000568
      f+2     :     0.000390
      f-2     :     0.000438
      f+3     :     0.000708
      f-3     :     0.000545
  6 Aus       :     2.562595  s :     2.562595
      pz      :     2.137284  p :     6.467309
      px      :     2.275549
      py      :     2.054476
      dz2     :     1.998155  d :     9.932677
      dxz     :     1.985879
      dyz     :     1.977082
      dx2y2   :     1.980216
      dxy     :     1.991346
      f0      :     0.000537  f :     0.003923
      f+1     :     0.000747
      f-1     :     0.000508
      f+2     :     0.000555
      f-2     :     0.000531
      f+3     :     0.000651
      f-3     :     0.000394
  7 Aus       :     2.396131  s :     2.396131
      pz      :     2.090287  p :     6.536036
      px      :     2.144098
      py      :     2.301651
      dz2     :     1.982734  d :     9.999393
      dxz     :     2.003245
      dyz     :     2.014378
      dx2y2   :     1.992976
      dxy     :     2.006060
      f0      :     0.000542  f :     0.004063
      f+1     :     0.000588
      f-1     :     0.000564
      f+2     :     0.000577
      f-2     :     0.000896
      f+3     :     0.000539
      f-3     :     0.000357
  8 Aus       :     2.559870  s :     2.559870
      pz      :     2.152141  p :     6.472929
      px      :     2.256544
      py      :     2.064244
      dz2     :     1.987783  d :     9.932054
      dxz     :     1.991289
      dyz     :     1.985844
      dx2y2   :     1.970187
      dxy     :     1.996952
      f0      :     0.000461  f :     0.003915
      f+1     :     0.000625
      f-1     :     0.000504
      f+2     :     0.000618
      f-2     :     0.000586
      f+3     :     0.000442
      f-3     :     0.000679
  9 Aus       :     2.582332  s :     2.582332
      pz      :     2.143267  p :     6.450911
      px      :     2.108464
      py      :     2.199180
      dz2     :     1.991009  d :     9.980307
      dxz     :     1.991716
      dyz     :     2.005833
      dx2y2   :     2.003638
      dxy     :     1.988111
      f0      :     0.000375  f :     0.003717
      f+1     :     0.000469
      f-1     :     0.000542
      f+2     :     0.000563
      f-2     :     0.000563
      f+3     :     0.000485
      f-3     :     0.000719
 10 Fes       :     6.334615  s :     6.334615
      pz      :     4.247644  p :    12.736606
      px      :     4.233845
      py      :     4.255118
      dz2     :     1.357387  d :     7.068086
      dxz     :     1.425841
      dyz     :     1.403948
      dx2y2   :     1.365318
      dxy     :     1.515592
      f0      :     0.000107  f :     0.000508
      f+1     :     0.000055
      f-1     :     0.000065
      f+2     :     0.000064
      f-2     :     0.000078
      f+3     :     0.000051
      f-3     :     0.000087

SPIN
  0 Aus       :     0.001133  s :     0.001133
      pz      :     0.000810  p :     0.001781
      px      :     0.000297
      py      :     0.000674
      dz2     :     0.001093  d :     0.008982
      dxz     :     0.003348
      dyz     :     0.000775
      dx2y2   :     0.001894
      dxy     :     0.001872
      f0      :     0.000023  f :     0.000181
      f+1     :     0.000022
      f-1     :     0.000002
      f+2     :     0.000056
      f-2     :     0.000030
      f+3     :     0.000020
      f-3     :     0.000027
  1 Aus       :     0.000533  s :     0.000533
      pz      :     0.000886  p :     0.002520
      px      :     0.000856
      py      :     0.000779
      dz2     :     0.003889  d :     0.007865
      dxz     :     0.001519
      dyz     :     0.001961
      dx2y2   :     0.000329
      dxy     :     0.000168
      f0      :     0.000099  f :     0.000177
      f+1     :     0.000022
      f-1     :     0.000046
      f+2     :     0.000004
      f-2     :     0.000004
      f+3     :     0.000001
      f-3     :     0.000000
  2 Aus       :     0.002246  s :     0.002246
      pz      :     0.000203  p :     0.001717
      px      :     0.000113
      py      :     0.001402
      dz2     :     0.000130  d :     0.000580
      dxz     :     0.000082
      dyz     :     0.000217
      dx2y2   :     0.000087
      dxy     :     0.000062
      f0      :     0.000000  f :     0.000004
      f+1     :     0.000001
      f-1     :     0.000000
      f+2     :     0.000001
      f-2     :     0.000000
      f+3     :     0.000001
      f-3     :     0.000000
  3 Aus       :     0.002751  s :     0.002751
      pz      :     0.000832  p :     0.002700
      px      :     0.000652
      py      :     0.001216
      dz2     :     0.001155  d :     0.007782
      dxz     :     0.001212
      dyz     :     0.002045
      dx2y2   :     0.001124
      dxy     :     0.002247
      f0      :     0.000017  f :     0.000116
      f+1     :     0.000007
      f-1     :     0.000009
      f+2     :     0.000008
      f-2     :     0.000041
      f+3     :     0.000016
      f-3     :     0.000018
  4 Aus       :     0.002653  s :     0.002653
      pz      :     0.000712  p :     0.002678
      px      :     0.000869
      py      :     0.001097
      dz2     :     0.001632  d :     0.007809
      dxz     :     0.001448
      dyz     :     0.000576
      dx2y2   :     0.001695
      dxy     :     0.002458
      f0      :     0.000012  f :     0.000119
      f+1     :     0.000020
      f-1     :     0.000009
      f+2     :     0.000005
      f-2     :     0.000018
      f+3     :     0.000020
      f-3     :     0.000036
  5 Aus       :     0.002930  s :     0.002930
      pz      :     0.000975  p :     0.002274
      px      :     0.000286
      py      :     0.001013
      dz2     :     0.000527  d :     0.004580
      dxz     :     0.001486
      dyz     :     0.000970
      dx2y2   :     0.000448
      dxy     :     0.001149
      f0      :     0.000014  f :     0.000065
      f+1     :     0.000003
      f-1     :     0.000001
      f+2     :     0.000006
      f-2     :     0.000026
      f+3     :     0.000006
      f-3     :     0.000010
  6 Aus       :     0.000577  s :     0.000577
      pz      :     0.000928  p :     0.003260
      px      :     0.001805
      py      :     0.000527
      dz2     :     0.001231  d :     0.008918
      dxz     :     0.001467
      dyz     :     0.002477
      dx2y2   :     0.002301
      dxy     :     0.001442
      f0      :     0.000019  f :     0.000185
      f+1     :     0.000014
      f-1     :     0.000028
      f+2     :     0.000043
      f-2     :     0.000044
      f+3     :     0.000021
      f-3     :     0.000016
  7 Aus       :     0.000992  s :     0.000992
      pz      :     0.000480  p :     0.002262
      px      :     0.000610
      py      :     0.001171
      dz2     :     0.003017  d :     0.006288
      dxz     :     0.001873
      dyz     :     0.000927
      dx2y2   :     0.000137
      dxy     :     0.000333
      f0      :     0.000078  f :     0.000146
      f+1     :     0.000032
      f-1     :     0.000027
      f+2     :     0.000003
      f-2     :     0.000005
      f+3     :     0.000000
      f-3     :     0.000000
  8 Aus       :     0.000560  s :     0.000560
      pz      :     0.001114  p :     0.003325
      px      :     0.001750
      py      :     0.000462
      dz2     :     0.000994  d :     0.008916
      dxz     :     0.000258
      dyz     :     0.002639
      dx2y2   :     0.003283
      dxy     :     0.001743
      f0      :     0.000015  f :     0.000185
      f+1     :     0.000003
      f-1     :     0.000033
      f+2     :     0.000040
      f-2     :     0.000006
      f+3     :     0.000031
      f-3     :     0.000057
  9 Aus       :     0.002841  s :     0.002841
      pz      :     0.000593  p :     0.002260
      px      :     0.000463
      py      :     0.001205
      dz2     :     0.000627  d :     0.004669
      dxz     :     0.001414
      dyz     :     0.000345
      dx2y2   :     0.000740
      dxy     :     0.001543
      f0      :     0.000009  f :     0.000069
      f+1     :     0.000008
      f-1     :     0.000003
      f+2     :     0.000010
      f-2     :     0.000009
      f+3     :     0.000003
      f-3     :     0.000027
 10 Fes       :     0.000123  s :     0.000123
      pz      :     0.000811  p :     0.002750
      px      :     0.000800
      py      :     0.001139
      dz2     :     0.579091  d :     2.887498
      dxz     :     0.578293
      dyz     :     0.578080
      dx2y2   :     0.580414
      dxy     :     0.571620
      f0      :     0.000000  f :     0.000001
      f+1     :     0.000000
      f-1     :     0.000000
      f+2     :     0.000000
      f-2     :     0.000000
      f+3     :     0.000000
      f-3     :     0.000000


                      *****************************
                      * MAYER POPULATION ANALYSIS *
                      *****************************

  NA   - Mulliken gross atomic population
  ZA   - Total nuclear charge
  QA   - Mulliken gross atomic charge
  VA   - Mayer's total valence
  BVA  - Mayer's bonded valence
  FA   - Mayer's free valence

  ATOM       NA         ZA         QA         VA         BVA        FA
  0 Au    18.8411    19.0000     0.1589     1.2043     1.1957     0.0086
  1 Au    18.8647    19.0000     0.1353     1.6501     1.6422     0.0079
  2 Au    18.6565    19.0000     0.3435     1.1629     1.1593     0.0036
  3 Au    19.1318    19.0000    -0.1318     1.6016     1.5899     0.0117
  4 Au    19.1210    19.0000    -0.1210     1.6103     1.5987     0.0116
  5 Au    18.8861    19.0000     0.1139     1.2927     1.2843     0.0083
  6 Au    18.7473    19.0000     0.2527     1.3884     1.3799     0.0086
  7 Au    18.6393    19.0000     0.3607     1.3147     1.3073     0.0074
  8 Au    18.7438    19.0000     0.2562     1.3913     1.3827     0.0086
  9 Au    18.8727    19.0000     0.1273     1.2950     1.2867     0.0083
 10 Fe    27.4957    26.0000    -1.4957     8.5876     3.9713     4.6163

  Mayer bond orders larger than 0.100000
B(  0-Au,  1-Au) :   0.3983 B(  0-Au, 10-Fe) :   0.4613 B(  1-Au,  2-Au) :   0.3853 
B(  1-Au,  3-Au) :   0.1934 B(  1-Au,  4-Au) :   0.2029 B(  1-Au, 10-Fe) :   0.3417 
B(  2-Au,  3-Au) :   0.2839 B(  2-Au,  4-Au) :   0.2864 B(  3-Au,  8-Au) :   0.3776 
B(  3-Au, 10-Fe) :   0.5294 B(  4-Au,  6-Au) :   0.3773 B(  4-Au, 10-Fe) :   0.5253 
B(  5-Au,  6-Au) :   0.2450 B(  5-Au,  7-Au) :   0.2842 B(  5-Au, 10-Fe) :   0.3860 
B(  6-Au,  7-Au) :   0.1221 B(  6-Au, 10-Fe) :   0.4686 B(  7-Au,  8-Au) :   0.1275 
B(  7-Au,  9-Au) :   0.2944 B(  7-Au, 10-Fe) :   0.3300 B(  8-Au,  9-Au) :   0.2432 
B(  8-Au, 10-Fe) :   0.4685 B(  9-Au, 10-Fe) :   0.3851 


-------------------------------------------------------------
 Forming the transition density       ... done in 0.054035 sec
-------------------------------------------------------------



==========================================
CASSCF UV, CD spectra and dipole moments
==========================================
-------------------
ABSORPTION SPECTRUM
-------------------

Center of mass           = ( 18.3236, 11.6955, 14.0207)
Nuclear contribution to the dipole moment =    -4.567164,    0.784552,   -6.963336 au

Calculating the Dipole integrals                  ... done
Transforming integrals                            ... done
Calculating the Linear Momentum integrals         ... done
Transforming integrals                            ... done
Calculating the Angular Momentum integrals        ... done
Transforming integrals                            ... done

------------------------------------------------------------------------------------------
                                ABSORPTION SPECTRUM
------------------------------------------------------------------------------------------
  States           Energy   Wavelength   fosc          T2        TX         TY        TZ  
                   (cm-1)     (nm)                   (D**2)      (D)        (D)       (D) 
------------------------------------------------------------------------------------------
  0( 0)-> 1( 0) 5    1078.7   9270.3   0.000001314   0.00259  -0.00943   0.04717   0.01653
  0( 0)-> 2( 0) 5    1256.7   7957.4   0.000007018   0.01186  -0.00992   0.02414  -0.10572
  0( 0)-> 3( 0) 5    1864.8   5362.4   0.000002910   0.00331  -0.03891   0.00385  -0.04225
  0( 0)-> 4( 0) 5    3267.6   3060.3   0.000000001   0.00000   0.00045  -0.00073  -0.00043
------------------------------------------------------------------------------------------



------------------------------------------------------------------------------
                             CD SPECTRUM
------------------------------------------------------------------------------
      States        Energy   Wavelength   R*T        RX        RY        RZ   
                    (cm-1)      (nm)   (1e40*sgs)   (au)      (au)      (au)  
------------------------------------------------------------------------------
  0( 0)-> 1( 0) 5    1078.7   9270.3    -0.38850  -0.61020  -0.17018   0.01072
  0( 0)-> 2( 0) 5    1256.7   7957.4     0.55348  -0.17106   0.82894   0.17712
  0( 0)-> 3( 0) 5    1864.8   5362.4    -0.13948   0.03828  -0.27819  -0.04279
  0( 0)-> 4( 0) 5    3267.6   3060.3     0.00073   0.21772  -0.01519   0.24348
------------------------------------------------------------------------------

------------------------------------------------------------------------------
                                 DIPOLE MOMENTS
------------------------------------------------------------------------------
  Root  Block           TX        TY        TZ           |T|
                      (Debye)   (Debye)   (Debye)      (Debye)
------------------------------------------------------------------------------
    0    0           -1.11929  -0.28172   0.33454      1.20171

--------------
CASSCF TIMINGS
--------------

Total time                       ...     2314.2 sec
Sum of individual times          ...     2303.8 sec ( 99.6%)

Calculation of AO operators
   F(Core) operator              ...     1139.9 sec ( 49.3%)
   G(Act) operator               ...     1059.1 sec ( 45.8%)
   J(AO) operators               ...        0.0 sec (  0.0%)
Calculation of MO transformed quantities
   J(MO) operators               ...       76.3 sec (  3.3%)
   (pq|rs) integrals             ...        0.0 sec (  0.0%)
   AO->MO one electron integrals ...        0.6 sec (  0.0%)
Configuration interaction steps
   CI-setup phase                ...        0.0 sec (  0.0%)
   CI-solution phase             ...       19.1 sec (  0.8%)
   Generation of densities       ...        3.6 sec (  0.2%)
Orbital improvement steps
   Orbital gradient              ...        0.3 sec (  0.0%)
   O(1) converger                ...        4.9 sec (  0.2%)
Properties                       ...        0.1 sec (  0.0%)
   SOC integral calculation      ...        0.0 sec (  0.0%)
   SSC RMEs (incl. integrals)    ...        0.0 sec (  0.0%)
   SOC RMEs                      ...        0.0 sec (  0.0%)

Maximum memory used throughout the entire CASSCF-calculation: 256.8 MB

-------------------------   --------------------
FINAL SINGLE POINT ENERGY     -2610.458158765858
-------------------------   --------------------


                            ***************************************
                            *     ORCA property calculations      *
                            ***************************************

                                    ---------------------
                                    Active property flags
                                    ---------------------
   (+) Dipole Moment


------------------------------------------------------------------------------
                       ORCA ELECTRIC PROPERTIES CALCULATION
------------------------------------------------------------------------------

Dipole Moment Calculation                       ... on
Quadrupole Moment Calculation                   ... off
Polarizability Calculation                      ... off
GBWName                                         ... casscf.gbw
Electron density                                ... casscf.scfp
The origin for moment calculation is the CENTER OF MASS  = (18.323627, 11.695544 14.020728)

-------------
DIPOLE MOMENT
-------------
                                X             Y             Z
Electronic contribution:      4.09637      -0.89934       7.08818
Nuclear contribution   :     -4.56716       0.78455      -6.96334
                        -----------------------------------------
Total Dipole Moment    :     -0.47080      -0.11479       0.12485
                        -----------------------------------------
Magnitude (a.u.)       :      0.50041
Magnitude (Debye)      :      1.27195



--------------------
Rotational spectrum 
--------------------
 
Rotational constants in cm-1:     0.002344     0.001383     0.001329 
Rotational constants in MHz :    70.257484    41.468757    39.839812 

 Dipole components along the rotational axes: 
x,y,z [a.u.] :     0.246242     0.021240     0.435115 
x,y,z [Debye]:     0.625899     0.053988     1.105975 

 

Timings for individual modules:

Sum of individual times         ...     2342.751 sec (=  39.046 min)
GTO integral calculation        ...       13.434 sec (=   0.224 min)   0.6 %
SCF iterations                  ...        7.556 sec (=   0.126 min)   0.3 %
CASSCF iterations               ...     2321.761 sec (=  38.696 min)  99.1 %
                             ****ORCA TERMINATED NORMALLY****
TOTAL RUN TIME: 0 days 0 hours 39 minutes 3 seconds 189 msec
