
                                 *****************
                                 * O   R   C   A *
                                 *****************

                                            #,                                       
                                            ###                                      
                                            ####                                     
                                            #####                                    
                                            ######                                   
                                           ########,                                 
                                     ,,################,,,,,                         
                               ,,#################################,,                 
                          ,,##########################################,,             
                       ,#########################################, ''#####,          
                    ,#############################################,,   '####,        
                  ,##################################################,,,,####,       
                ,###########''''           ''''###############################       
              ,#####''   ,,,,##########,,,,          '''####'''          '####       
            ,##' ,,,,###########################,,,                        '##       
           ' ,,###''''                  '''############,,,                           
         ,,##''                                '''############,,,,        ,,,,,,###''
      ,#''                                            '''#######################'''  
     '                                                          ''''####''''         
             ,#######,   #######,   ,#######,      ##                                
            ,#'     '#,  ##    ##  ,#'     '#,    #''#        ######   ,####,        
            ##       ##  ##   ,#'  ##            #'  '#       #        #'  '#        
            ##       ##  #######   ##           ,######,      #####,   #    #        
            '#,     ,#'  ##    ##  '#,     ,#' ,#      #,         ##   #,  ,#        
             '#######'   ##     ##  '#######'  #'      '#     #####' # '####'        



                  #######################################################
                  #                        -***-                        #
                  #          Department of theory and spectroscopy      #
                  #    Directorship and core code : Frank Neese         #
                  #        Max Planck Institute fuer Kohlenforschung    #
                  #                Kaiser Wilhelm Platz 1               #
                  #                 D-45470 Muelheim/Ruhr               #
                  #                      Germany                        #
                  #                                                     #
                  #                  All rights reserved                #
                  #                        -***-                        #
                  #######################################################


                         Program Version 5.0.3 -  RELEASE  -


 With contributions from (in alphabetic order):
   Daniel Aravena         : Magnetic Suceptibility
   Michael Atanasov       : Ab Initio Ligand Field Theory (pilot matlab implementation)
   Alexander A. Auer      : GIAO ZORA, VPT2 properties, NMR spectrum
   Ute Becker             : Parallelization
   Giovanni Bistoni       : ED, misc. LED, open-shell LED, HFLD
   Martin Brehm           : Molecular dynamics
   Dmytro Bykov           : SCF Hessian
   Vijay G. Chilkuri      : MRCI spin determinant printing, contributions to CSF-ICE
   Dipayan Datta          : RHF DLPNO-CCSD density
   Achintya Kumar Dutta   : EOM-CC, STEOM-CC
   Dmitry Ganyushin       : Spin-Orbit,Spin-Spin,Magnetic field MRCI
   Miquel Garcia          : C-PCM and meta-GGA Hessian, CC/C-PCM, Gaussian charge scheme
   Yang Guo               : DLPNO-NEVPT2, F12-NEVPT2, CIM, IAO-localization
   Andreas Hansen         : Spin unrestricted coupled pair/coupled cluster methods
   Benjamin Helmich-Paris : MC-RPA, TRAH-SCF, COSX integrals
   Lee Huntington         : MR-EOM, pCC
   Robert Izsak           : Overlap fitted RIJCOSX, COSX-SCS-MP3, EOM
   Marcus Kettner         : VPT2
   Christian Kollmar      : KDIIS, OOCD, Brueckner-CCSD(T), CCSD density, CASPT2, CASPT2-K
   Simone Kossmann        : Meta GGA functionals, TD-DFT gradient, OOMP2, MP2 Hessian
   Martin Krupicka        : Initial AUTO-CI
   Lucas Lang             : DCDCAS
   Marvin Lechner         : AUTO-CI (C++ implementation), FIC-MRCC
   Dagmar Lenk            : GEPOL surface, SMD
   Dimitrios Liakos       : Extrapolation schemes; Compound Job, initial MDCI parallelization
   Dimitrios Manganas     : Further ROCIS development; embedding schemes
   Dimitrios Pantazis     : SARC Basis sets
   Anastasios Papadopoulos: AUTO-CI, single reference methods and gradients
   Taras Petrenko         : DFT Hessian,TD-DFT gradient, ASA, ECA, R-Raman, ABS, FL, XAS/XES, NRVS
   Peter Pinski           : DLPNO-MP2, DLPNO-MP2 Gradient
   Christoph Reimann      : Effective Core Potentials
   Marius Retegan         : Local ZFS, SOC
   Christoph Riplinger    : Optimizer, TS searches, QM/MM, DLPNO-CCSD(T), (RO)-DLPNO pert. Triples
   Tobias Risthaus        : Range-separated hybrids, TD-DFT gradient, RPA, STAB
   Michael Roemelt        : Original ROCIS implementation
   Masaaki Saitow         : Open-shell DLPNO-CCSD energy and density
   Barbara Sandhoefer     : DKH picture change effects
   Avijit Sen             : IP-ROCIS
   Kantharuban Sivalingam : CASSCF convergence, NEVPT2, FIC-MRCI
   Bernardo de Souza      : ESD, SOC TD-DFT
   Georgi Stoychev        : AutoAux, RI-MP2 NMR, DLPNO-MP2 response
   Willem Van den Heuvel  : Paramagnetic NMR
   Boris Wezisla          : Elementary symmetry handling
   Frank Wennmohs         : Technical directorship


 We gratefully acknowledge several colleagues who have allowed us to
 interface, adapt or use parts of their codes:
   Stefan Grimme, W. Hujo, H. Kruse, P. Pracht,  : VdW corrections, initial TS optimization,
                  C. Bannwarth, S. Ehlert          DFT functionals, gCP, sTDA/sTD-DF
   Ed Valeev, F. Pavosevic, A. Kumar             : LibInt (2-el integral package), F12 methods
   Garnet Chan, S. Sharma, J. Yang, R. Olivares  : DMRG
   Ulf Ekstrom                                   : XCFun DFT Library
   Mihaly Kallay                                 : mrcc  (arbitrary order and MRCC methods)
   Jiri Pittner, Ondrej Demel                    : Mk-CCSD
   Frank Weinhold                                : gennbo (NPA and NBO analysis)
   Christopher J. Cramer and Donald G. Truhlar   : smd solvation model
   Lars Goerigk                                  : TD-DFT with DH, B97 family of functionals
   V. Asgeirsson, H. Jonsson                     : NEB implementation
   FAccTs GmbH                                   : IRC, NEB, NEB-TS, DLPNO-Multilevel, CI-OPT
                                                   MM, QMMM, 2- and 3-layer-ONIOM, Crystal-QMMM,
                                                   LR-CPCM, SF, NACMEs, symmetry and pop. for TD-DFT,
                                                   nearIR, NL-DFT gradient (VV10), updates on ESD,
                                                   ML-optimized integration grids
   S Lehtola, MJT Oliveira, MAL Marques          : LibXC Library
   Liviu Ungur et al                             : ANISO software


 Your calculation uses the libint2 library for the computation of 2-el integrals
 For citations please refer to: http://libint.valeyev.net

 Your ORCA version has been built with support for libXC version: 5.1.0
 For citations please refer to: https://tddft.org/programs/libxc/

 This ORCA versions uses:
   CBLAS   interface :  Fast vector & matrix operations
   LAPACKE interface :  Fast linear algebra routines
   SCALAPACK package :  Parallel linear algebra routines
   Shared memory     :  Shared parallel matrices
   BLAS/LAPACK       :  OpenBLAS 0.3.15  USE64BITINT DYNAMIC_ARCH NO_AFFINITY Haswell SINGLE_THREADED
        Core in use  :  Haswell
   Copyright (c) 2011-2014, The OpenBLAS Project




***************************************
The coordinates will be read from file: pbe.xyz
***************************************


================================================================================

cite the ECPs for Au [Def2-ECP] as follows:
Ce-Yb(ecp-28): M. Dolg, H. Stoll, H.Preuss, J. Chem. Phys., 1989, 90, 1730-1734.
Y-Cd(ecp-28), Hf-Hg(ecp-46): D. Andrae,U. Haeussermann, M. Dolg, H. Stoll, H. Preuss, Theor. Chim. Acta, 1990, 77, 123-141.
In-Sb(ecp-28), Tl-Bi(ecp-46): B. Metz, H. Stoll, M. Dolg, J. Chem. Phys., 2000, 113, 2563-2569.
Te-Xe(ecp-28), Po-Rn(ecp-46): K. A. Peterson, D. Figgen, E. Goll, H. Stoll, M. Dolg, J. Chem. Phys., 2003, 119, 11113-11123.
Rb(ecp-28), Cs(ecp-46): T. Leininger, A. Nicklass, W. Kuechle, H. Stoll, M. Dolg, A. Bergner, Chem. Phys. Lett., 1996, 255, 274-280.
Sr(ecp-28), Ba(ecp-46): M. Kaupp, P. V. Schleyer, H. Stoll and H. Preuss, J. Chem. Phys., 1991, 94, 1360-1366.
La(ecp-46): M. Dolg, H. Stoll, A. Savin, H. Preuss, Theor. Chim. Acta, 1989, 75, 173-194.
Lu(ecp-28): X. Cao, M. Dolg, J. Chem. Phys., 2001, 115, 7348-7355.

ECP parameters for Au [Def2-ECP] have been obtained from:
TURBOMOLE (7.0.2)

----- Orbital basis set information -----
Your calculation utilizes the basis: def2-TZVP
   F. Weigend and R. Ahlrichs, Phys. Chem. Chem. Phys. 7, 3297 (2005).

----- AuxJ basis set information -----
Your calculation utilizes the auxiliary basis: def2/J
   F. Weigend, Phys. Chem. Chem. Phys. 8, 1057 (2006).

----- AuxC basis set information -----
Your calculation utilizes the auxiliary basis: def2-TZVP/C
  H-La, Hf-Rn : A. Hellweg, C. Hattig, S. Hofener and W. Klopper, Theor. Chem. Acc. 117, 587 (2007).
        Ce-Lu : J. Chmela and M. E. Harding, Mol. Phys. (2018).

================================================================================
                                        WARNINGS
                       Please study these warnings very carefully!
================================================================================


WARNING: your system is open-shell and RHF/RKS was chosen
  ===> : WILL SWITCH to UHF/UKS


WARNING: No MP2 level density has been requested!
         To caclulate MP2 level properties use
         %mp2 Density relaxed end
         or
         %mp2 Density unrelaxed end
         Otherwise for double-hybrid DFT only the energy is correct!

WARNING: The frozen-core approximation is turned on by default for 
         the MP2 part of double-hybrid DFT.

INFO   : the flag for use of the SHARK integral package has been found!



***************************************
The coordinates will be read from file: pbe.xyz
***************************************


================================================================================

cite the ECPs for Au [Def2-ECP] as follows:
Ce-Yb(ecp-28): M. Dolg, H. Stoll, H.Preuss, J. Chem. Phys., 1989, 90, 1730-1734.
Y-Cd(ecp-28), Hf-Hg(ecp-46): D. Andrae,U. Haeussermann, M. Dolg, H. Stoll, H. Preuss, Theor. Chim. Acta, 1990, 77, 123-141.
In-Sb(ecp-28), Tl-Bi(ecp-46): B. Metz, H. Stoll, M. Dolg, J. Chem. Phys., 2000, 113, 2563-2569.
Te-Xe(ecp-28), Po-Rn(ecp-46): K. A. Peterson, D. Figgen, E. Goll, H. Stoll, M. Dolg, J. Chem. Phys., 2003, 119, 11113-11123.
Rb(ecp-28), Cs(ecp-46): T. Leininger, A. Nicklass, W. Kuechle, H. Stoll, M. Dolg, A. Bergner, Chem. Phys. Lett., 1996, 255, 274-280.
Sr(ecp-28), Ba(ecp-46): M. Kaupp, P. V. Schleyer, H. Stoll and H. Preuss, J. Chem. Phys., 1991, 94, 1360-1366.
La(ecp-46): M. Dolg, H. Stoll, A. Savin, H. Preuss, Theor. Chim. Acta, 1989, 75, 173-194.
Lu(ecp-28): X. Cao, M. Dolg, J. Chem. Phys., 2001, 115, 7348-7355.

ECP parameters for Au [Def2-ECP] have been obtained from:
TURBOMOLE (7.0.2)

----- Orbital basis set information -----
Your calculation utilizes the basis: def2-TZVP
   F. Weigend and R. Ahlrichs, Phys. Chem. Chem. Phys. 7, 3297 (2005).

----- AuxJ basis set information -----
Your calculation utilizes the auxiliary basis: def2/J
   F. Weigend, Phys. Chem. Chem. Phys. 8, 1057 (2006).

----- AuxC basis set information -----
Your calculation utilizes the auxiliary basis: def2-TZVP/C
  H-La, Hf-Rn : A. Hellweg, C. Hattig, S. Hofener and W. Klopper, Theor. Chem. Acc. 117, 587 (2007).
        Ce-Lu : J. Chmela and M. E. Harding, Mol. Phys. (2018).

================================================================================
                                        WARNINGS
                       Please study these warnings very carefully!
================================================================================


WARNING: No MP2 level density has been requested!
         To caclulate MP2 level properties use
         %mp2 Density relaxed end
         or
         %mp2 Density unrelaxed end
         Otherwise for double-hybrid DFT only the energy is correct!

WARNING: The frozen-core approximation is turned on by default for 
         the MP2 part of double-hybrid DFT.

INFO   : the flag for use of the SHARK integral package has been found!

================================================================================
                                       INPUT FILE
================================================================================
NAME = b2plyp.inp
|  1> !RI-B2PLYP def2-TZVP def2-TZVP/C
|  2> !RIJCOSX VERYSLOWCONV
|  3> 
|  4> %scf
|  5>   AutoTRAHIter 200
|  6>   maxiter 400
|  7> end
|  8> 
|  9> 
| 10> %pal nprocs 6 end 
| 11> 
| 12> *xyzfile 0 5 pbe.xyz
| 13> 
| 14> $new_job
| 15> 
| 16> !RI-B2PLYP def2-TZVP def2-TZVP/C
| 17> !RIJCOSX VERYSLOWCONV
| 18> 
| 19> %scf
| 20>   AutoTRAHIter 200
| 21>   maxiter 400
| 22> end
| 23> 
| 24> 
| 25> %pal nprocs 6 end 
| 26> 
| 27> *xyzfile 0 3 pbe.xyz
| 28> 
| 29> 
| 30> 
| 31> 
| 32> 
| 33>                          ****END OF INPUT****
================================================================================


                 $$$$$$$$$$$$$$$$$$$$$$$$$$$$$$$$$$$$$$$$$$$$$$ 
                 $ THERE ARE  2 JOBS TO BE PROCESSED THIS RUN $
                 $$$$$$$$$$$$$$$$$$$$$$$$$$$$$$$$$$$$$$$$$$$$$$ 




                 $$$$$$$$$$$$$$$$  JOB NUMBER  1 $$$$$$$$$$$$$$


                       ****************************
                       * Single Point Calculation *
                       ****************************

---------------------------------
CARTESIAN COORDINATES (ANGSTROEM)
---------------------------------
  Au     8.599284    5.097797    6.529790
  Au     9.174496    7.375059    7.974291
  Au     8.549191    9.845111    6.646898
  Au     8.918612    7.439330    5.143509
  Au     6.646373    6.036954    4.531452
  Au     6.385882    8.721686    5.120388
  Au     4.766195    6.570372    6.534817
  Au     6.028431    4.069146    6.381738
  Au     5.972783   10.778865    6.943168
  Au     5.610930   10.106325    9.636151
  Au     8.356049    9.624787    9.387177
  Au     6.643567    7.579602   10.410320
  Au     6.792348    5.590609    8.609242
  Au     3.974672    8.871900    7.676123
  Cr     6.566854    8.222795    7.813965

----------------------------
CARTESIAN COORDINATES (A.U.)
----------------------------
  NO LB      ZA    FRAG     MASS         X           Y           Z
   0 Au   19.0000*   0   196.966   16.250293    9.633441   12.339514
   1 Au   19.0000*   0   196.966   17.337285   13.936842   15.069226
   2 Au   19.0000*   0   196.966   16.155629   18.604563   12.560816
   3 Au   19.0000*   0   196.966   16.853734   14.058296    9.719823
   4 Au   19.0000*   0   196.966   12.559824   11.408190    8.563204
   5 Au   19.0000*   0   196.966   12.067568   16.481599    9.676130
   6 Au   19.0000*   0   196.966    9.006803   12.416203   12.349014
   7 Au   19.0000*   0   196.966   11.392083    7.689572   12.059737
   8 Au   19.0000*   0   196.966   11.286924   20.369104   13.120686
   9 Au   19.0000*   0   196.966   10.603121   19.098187   18.209686
  10 Au   19.0000*   0   196.966   15.790644   18.188211   17.739194
  11 Au   19.0000*   0   196.966   12.554523   14.323372   19.672653
  12 Au   19.0000*   0   196.966   12.835678   10.564720   16.269109
  13 Au   19.0000*   0   196.966    7.511041   16.765462   14.505771
  14 Cr   24.0000    0    52.000   12.409556   15.538831   14.766254
* core charge reduced due to ECP

--------------------------------
INTERNAL COORDINATES (ANGSTROEM)
--------------------------------
 Au     0   0   0     0.000000000000     0.00000000     0.00000000
 Au     1   0   0     2.757421811879     0.00000000     0.00000000
 Au     2   1   0     2.873000901540   114.99868877     0.00000000
 Au     1   2   3     2.739802571700    62.28548755    21.47502700
 Au     4   1   2     2.739405202717    65.09361007   229.91801093
 Au     5   4   1     2.760885183466    62.14689297   129.99172582
 Au     5   4   1     2.798762530075   107.44120505    79.92535610
 Au     5   4   1     2.770862101482   113.53727778    15.15078367
 Au     3   2   1     2.756365345747   116.42513971    86.68215329
 Au     9   3   2     2.799178912503    98.21262514    39.23712017
 Au     3   2   1     2.755898881387    59.14382223   147.61005127
 Au    10   9   3     2.837253525547   115.43106382   318.93205541
 Au    12  10   9     2.687398669976   119.76182196   331.23927371
 Au     7   5   4     2.688144873970   131.67436380    46.75505009
 Cr    14   7   5     2.675770789980    61.89580456   301.77471580

---------------------------
INTERNAL COORDINATES (A.U.)
---------------------------
 Au     0   0   0     0.000000000000     0.00000000     0.00000000
 Au     1   0   0     5.210772060152     0.00000000     0.00000000
 Au     2   1   0     5.429184886420   114.99868877     0.00000000
 Au     1   2   3     5.177476521525    62.28548755    21.47502700
 Au     4   1   2     5.176725602974    65.09361007   229.91801093
 Au     5   4   1     5.217316883952    62.14689297   129.99172582
 Au     5   4   1     5.288894695723   107.44120505    79.92535610
 Au     5   4   1     5.236170526662   113.53727778    15.15078367
 Au     3   2   1     5.208775628492   116.42513971    86.68215329
 Au     9   3   2     5.289681544478    98.21262514    39.23712017
 Au     3   2   1     5.207894138601    59.14382223   147.61005127
 Au    10   9   3     5.361632135787   115.43106382   318.93205541
 Au    12  10   9     5.078447498919   119.76182196   331.23927371
 Au     7   5   4     5.079857620107   131.67436380    46.75505009
 Cr    14   7   5     5.056473990209    61.89580456   301.77471580

---------------------
BASIS SET INFORMATION
---------------------
There are 2 groups of distinct atoms

 Group   1 Type Au  : 8s7p6d1f contracted to 6s4p3d1f pattern {311111/4111/411/1}
 Group   2 Type Cr  : 17s11p7d1f contracted to 6s4p4d1f pattern {842111/6311/4111/1}

Atom   0Au   basis set group =>   1
Atom   1Au   basis set group =>   1
Atom   2Au   basis set group =>   1
Atom   3Au   basis set group =>   1
Atom   4Au   basis set group =>   1
Atom   5Au   basis set group =>   1
Atom   6Au   basis set group =>   1
Atom   7Au   basis set group =>   1
Atom   8Au   basis set group =>   1
Atom   9Au   basis set group =>   1
Atom  10Au   basis set group =>   1
Atom  11Au   basis set group =>   1
Atom  12Au   basis set group =>   1
Atom  13Au   basis set group =>   1
Atom  14Cr   basis set group =>   2
---------------------------------
AUXILIARY/J BASIS SET INFORMATION
---------------------------------
There are 2 groups of distinct atoms

 Group   1 Type Au  : 11s5p5d3f3g contracted to 8s5p5d2f3g pattern {41111111/11111/11111/21/111}
 Group   2 Type Cr  : 19s5p5d3f3g contracted to 8s5p5d2f3g pattern {121111111/11111/11111/21/111}

Atom   0Au   basis set group =>   1
Atom   1Au   basis set group =>   1
Atom   2Au   basis set group =>   1
Atom   3Au   basis set group =>   1
Atom   4Au   basis set group =>   1
Atom   5Au   basis set group =>   1
Atom   6Au   basis set group =>   1
Atom   7Au   basis set group =>   1
Atom   8Au   basis set group =>   1
Atom   9Au   basis set group =>   1
Atom  10Au   basis set group =>   1
Atom  11Au   basis set group =>   1
Atom  12Au   basis set group =>   1
Atom  13Au   basis set group =>   1
Atom  14Cr   basis set group =>   2
---------------------------------
AUXILIARY/C BASIS SET INFORMATION
---------------------------------
There are 2 groups of distinct atoms

 Group   1 Type Au  : 8s8p7d5f3g2h contracted to 8s8p7d5f3g2h pattern {11111111/11111111/1111111/11111/111/11}
 Group   2 Type Cr  : 11s9p8d6f5g2h contracted to 9s8p8d6f5g2h pattern {311111111/21111111/11111111/111111/11111/11}

Atom   0Au   basis set group =>   1
Atom   1Au   basis set group =>   1
Atom   2Au   basis set group =>   1
Atom   3Au   basis set group =>   1
Atom   4Au   basis set group =>   1
Atom   5Au   basis set group =>   1
Atom   6Au   basis set group =>   1
Atom   7Au   basis set group =>   1
Atom   8Au   basis set group =>   1
Atom   9Au   basis set group =>   1
Atom  10Au   basis set group =>   1
Atom  11Au   basis set group =>   1
Atom  12Au   basis set group =>   1
Atom  13Au   basis set group =>   1
Atom  14Cr   basis set group =>   2
-------------------------
ECP PARAMETER INFORMATION
-------------------------

 Group 1, Type Au ECP Def2-ECP (replacing 60 core electrons, lmax=3)

Atom   0Au   ECP group =>   1
Atom   1Au   ECP group =>   1
Atom   2Au   ECP group =>   1
Atom   3Au   ECP group =>   1
Atom   4Au   ECP group =>   1
Atom   5Au   ECP group =>   1
Atom   6Au   ECP group =>   1
Atom   7Au   ECP group =>   1
Atom   8Au   ECP group =>   1
Atom   9Au   ECP group =>   1
Atom  10Au   ECP group =>   1
Atom  11Au   ECP group =>   1
Atom  12Au   ECP group =>   1
Atom  13Au   ECP group =>   1



           ************************************************************
           *        Program running with 6 parallel MPI-processes     *
           *              working on a common directory               *
           ************************************************************
------------------------------------------------------------------------------
                           ORCA GTO INTEGRAL CALCULATION
                           -- RI-GTO INTEGRALS CHOSEN --
------------------------------------------------------------------------------
------------------------------------------------------------------------------
                   ___                                                        
                  /   \      - P O W E R E D   B Y -                         
                 /     \                                                     
                 |  |  |   _    _      __       _____    __    __             
                 |  |  |  | |  | |    /  \     |  _  \  |  |  /  |          
                  \  \/   | |  | |   /    \    | | | |  |  | /  /          
                 / \  \   | |__| |  /  /\  \   | |_| |  |  |/  /          
                |  |  |   |  __  | /  /__\  \  |    /   |      \           
                |  |  |   | |  | | |   __   |  |    \   |  |\   \          
                \     /   | |  | | |  |  |  |  | |\  \  |  | \   \       
                 \___/    |_|  |_| |__|  |__|  |_| \__\ |__|  \__/        
                                                                              
                      - O R C A' S   B I G   F R I E N D -                    
                                      &                                       
                       - I N T E G R A L  F E E D E R -                       
                                                                              
 v1 FN, 2020, v2 2021                                                         
------------------------------------------------------------------------------


Reading SHARK input file b2plyp.SHARKINP.tmp ... ok
----------------------
SHARK INTEGRAL PACKAGE
----------------------

Number of atoms                             ...     15
Number of basis functions                   ...    605
Number of shells                            ...    211
Maximum angular momentum                    ...      3
Integral batch strategy                     ... SHARK/LIBINT Hybrid
RI-J (if used) integral strategy            ... SPLIT-RIJ (Revised 2003 algorithm where possible)
Printlevel                                  ...      1
Contraction scheme used                     ... SEGMENTED contraction
Coulomb Range Separation                    ... NOT USED
Exchange Range Separation                   ... NOT USED
Finite Nucleus Model                        ... NOT USED
Auxiliary Coulomb fitting basis             ... AVAILABLE
   # of basis functions in Aux-J            ...   1335
   # of shells in Aux-J                     ...    345
   Maximum angular momentum in Aux-J        ...      4
Auxiliary J/K fitting basis                 ... NOT available
Auxiliary Correlation fitting basis         ... AVAILABLE
   # of basis functions in Aux-C            ...   2296
   # of shells in Aux-C                     ...    500
   Maximum angular momentum in Aux-C        ...      5
Auxiliary 'external' fitting basis          ... NOT available
Integral threshold                          ...     1.000000e-10
Primitive cut-off                           ...     1.000000e-11
Primitive pair pre-selection threshold      ...     1.000000e-11

Calculating pre-screening integrals         ... done (  0.2 sec) Dimension = 211
Organizing shell pair data                  ... done (  0.8 sec)
Shell pair information
Total number of shell pairs                 ...     22366
Shell pairs after pre-screening             ...     17708
Total number of primitive shell pairs       ...     59609
Primitive shell pairs kept                  ...     34205
          la=0 lb=0:   2781 shell pairs
          la=1 lb=0:   4013 shell pairs
          la=1 lb=1:   1524 shell pairs
          la=2 lb=0:   3516 shell pairs
          la=2 lb=1:   2476 shell pairs
          la=2 lb=2:   1019 shell pairs
          la=3 lb=0:    940 shell pairs
          la=3 lb=1:    712 shell pairs
          la=3 lb=2:    628 shell pairs
          la=3 lb=3:     99 shell pairs

Calculating one electron integrals          ... done (  0.2 sec)
Calculating ECP integrals                   ... done ( 22.6 sec)
Calculating RI/J V-Matrix + Cholesky decomp.... done (  1.9 sec)
Calculating RI/C V-Matrix + Cholesky decomp.... done (  4.7 sec)
Calculating Nuclear repulsion               ... done (  0.0 sec) ENN=   5546.568729030360 Eh

SHARK setup successfully completed in  31.6 seconds

Maximum memory used throughout the entire GTOINT-calculation: 49.3 MB


           ************************************************************
           *        Program running with 6 parallel MPI-processes     *
           *              working on a common directory               *
           ************************************************************
-------------------------------------------------------------------------------
                                 ORCA SCF
-------------------------------------------------------------------------------

------------
SCF SETTINGS
------------
Hamiltonian:
 Density Functional     Method          .... DFT(GTOs)
 Exchange Functional    Exchange        .... B88
   X-Alpha parameter    XAlpha          ....  0.666667
   Becke's b parameter  XBeta           ....  0.004200
 Correlation Functional Correlation     .... LYP
 LDA part of GGA corr.  LDAOpt          .... VWN-3
 Gradients option       PostSCFGGA      .... off
 Hybrid DFT is turned on
   Fraction HF Exchange ScalHFX         ....  0.530000
   Scaling of DF-GGA-X  ScalDFX         ....  0.470000
   Scaling of DF-GGA-C  ScalDFC         ....  0.730000
   Scaling of DF-LDA-C  ScalLDAC        ....  0.730000
   Perturbative correction              ....  0.270000
   Density functional embedding theory  .... OFF
   NL short-range parameter             ....  7.800000
 RI-approximation to the Coulomb term is turned on
   Number of AuxJ basis functions       .... 1335
   RIJ-COSX (HFX calculated with COS-X)).... on


General Settings:
 Integral files         IntName         .... b2plyp
 Hartree-Fock type      HFTyp           .... UHF
 Total Charge           Charge          ....    0
 Multiplicity           Mult            ....    5
 Number of Electrons    NEL             ....  290
 Basis Dimension        Dim             ....  605
 Nuclear Repulsion      ENuc            ....   5546.5687290304 Eh

Convergence Acceleration:
 DIIS                   CNVDIIS         .... on
   Start iteration      DIISMaxIt       ....     0
   Startup error        DIISStart       ....  0.200000
   # of expansion vecs  DIISMaxEq       ....     5
   Bias factor          DIISBfac        ....   1.050
   Max. coefficient     DIISMaxC        ....  10.000
 Trust-Rad. Augm. Hess. CNVTRAH         .... auto
   Auto Start mean grad. ratio tolernc. ....  1.125000
   Auto Start start iteration           ....   200
   Auto Start num. interpolation iter.  ....    10
   Max. Number of Micro iterations      ....    16
   Max. Number of Macro iterations      .... Maxiter - #DIIS iter
   Number of Davidson start vectors     ....     2
   Converg. threshold I  (grad. norm)   ....   5.000e-05
   Converg. threshold II (energy diff.) ....   1.000e-06
   Grad. Scal. Fac. for Micro threshold ....   0.100
   Minimum threshold for Micro iter.    ....   0.010
   NR start threshold (gradient norm)   ....   0.001
   Initial trust radius                 ....   0.400
   Minimum AH scaling param. (alpha)    ....   1.000
   Maximum AH scaling param. (alpha)    .... 1000.000
   Orbital update algorithm             .... Taylor
   White noise on init. David. guess    .... on
   Maximum white noise                  ....   0.010
   Quad. conv. algorithm                .... NR
 SOSCF                  CNVSOSCF        .... off
 Level Shifting         CNVShift        .... on
   Level shift para.    LevelShift      ....    0.2500
   Turn off err/grad.   ShiftErr        ....    0.0000
 Zerner damping         CNVZerner       .... off
 Static damping         CNVDamp         .... on
   Fraction old density DampFac         ....    0.9200
   Max. Damping (<1)    DampMax         ....    0.9800
   Min. Damping (>=0)   DampMin         ....    0.0000
   Turn off err/grad.   DampErr         ....    0.0030
 Fernandez-Rico         CNVRico         .... off

SCF Procedure:
 Maximum # iterations   MaxIter         ....   400
 SCF integral mode      SCFMode         .... Direct
   Integral package                     .... SHARK and LIBINT hybrid scheme
 Reset frequency        DirectResetFreq ....    20
 Integral Threshold     Thresh          ....  1.000e-10 Eh
 Primitive CutOff       TCut            ....  1.000e-11 Eh

Convergence Tolerance:
 Convergence Check Mode ConvCheckMode   .... Total+1el-Energy
 Convergence forced     ConvForced      .... 0
 Energy Change          TolE            ....  1.000e-06 Eh
 1-El. energy change                    ....  1.000e-03 Eh
 DIIS Error             TolErr          ....  1.000e-06


Diagonalization of the overlap matrix:
Smallest eigenvalue                        ... 1.354e-04
Time for diagonalization                   ...    0.140 sec
Threshold for overlap eigenvalues          ... 1.000e-08
Number of eigenvalues below threshold      ... 0
Time for construction of square roots      ...    0.181 sec
Total time needed                          ...    0.448 sec

Time for model grid setup =    2.187 sec

------------------------------
INITIAL GUESS: MODEL POTENTIAL
------------------------------
Loading Hartree-Fock densities                     ... done
  calling /media/Programs/ORCA501/orca b2plyp_atom79.inp > b2plyp_atom79.out in order to generate an atomic fitting density for atom 0 (Au with ECP) on-the-fly... 
    atom 0 (Au), assumed electronic state with S=2: 1s2 2s2 2p6 3s2 3p6 4s2 3d10 4p6 5s2 4d10 5p6 6s1 4f14 5d10           ... done
Calculating cut-offs                               ... done
Initializing the effective Hamiltonian             ... done
Setting up the integral package (SHARK)            ... done
Starting the Coulomb interaction                   ... done (   2.5 sec)
Reading the grid                                   ... done
Mapping shells                                     ... done
Starting the XC term evaluation                    ... done (   1.2 sec)
  promolecular density results
     # of electrons  =   1130.014844621
     EX              =  -5190.716085434
     EC              =    -22.960844223
     EX+EC           =  -5213.676929657
Transforming the Hamiltonian                       ... done (   0.8 sec)
Diagonalizing the Hamiltonian                      ... done (   0.4 sec)
Back transforming the eigenvectors                 ... done (   0.1 sec)
Now organizing SCF variables                       ... done
                      ------------------
                      INITIAL GUESS DONE (   8.7 sec)
                      ------------------
-------------------
DFT GRID GENERATION
-------------------

General Integration Accuracy     IntAcc      ... 4.388
Radial Grid Type                 RadialGrid  ... OptM3 with GC (2021)
Angular Grid (max. ang.)         AngularGrid ... 4 (Lebedev-302)
Angular grid pruning method      GridPruning ... 4 (adaptive)
Weight generation scheme         WeightScheme... Becke
Basis function cutoff            BFCut       ... 1.0000e-10
Integration weight cutoff        WCut        ... 1.0000e-14
Angular grids for H and He will be reduced by one unit
Partially contracted basis set               ... off
Rotationally invariant grid construction     ... off

Total number of grid points                  ...   165864
Total number of batches                      ...     2599
Average number of points per batch           ...       63
Average number of grid points per atom       ...    11058
Time for grid setup =    4.620 sec

--------------------
COSX GRID GENERATION
--------------------

GRIDX 1
-------
General Integration Accuracy     IntAcc      ... 3.816
Radial Grid Type                 RadialGrid  ... OptM3 with GC (2021)
Angular Grid (max. ang.)         AngularGrid ... 1 (Lebedev-50)
Angular grid pruning method      GridPruning ... 4 (adaptive)
Weight generation scheme         WeightScheme... Becke
Basis function cutoff            BFCut       ... 1.0000e-10
Integration weight cutoff        WCut        ... 1.0000e-14
Angular grids for H and He will be reduced by one unit
Partially contracted basis set               ... on
Rotationally invariant grid construction     ... off

Total number of grid points                  ...    17377
Total number of batches                      ...      279
Average number of points per batch           ...       62
Average number of grid points per atom       ...     1158
UseSFitting                                  ... on

GRIDX 2
-------
General Integration Accuracy     IntAcc      ... 4.020
Radial Grid Type                 RadialGrid  ... OptM3 with GC (2021)
Angular Grid (max. ang.)         AngularGrid ... 2 (Lebedev-110)
Angular grid pruning method      GridPruning ... 4 (adaptive)
Weight generation scheme         WeightScheme... Becke
Basis function cutoff            BFCut       ... 1.0000e-10
Integration weight cutoff        WCut        ... 1.0000e-14
Angular grids for H and He will be reduced by one unit
Partially contracted basis set               ... on
Rotationally invariant grid construction     ... off

Total number of grid points                  ...    52714
Total number of batches                      ...      831
Average number of points per batch           ...       63
Average number of grid points per atom       ...     3514
UseSFitting                                  ... on

GRIDX 3
-------
General Integration Accuracy     IntAcc      ... 4.338
Radial Grid Type                 RadialGrid  ... OptM3 with GC (2021)
Angular Grid (max. ang.)         AngularGrid ... 3 (Lebedev-194)
Angular grid pruning method      GridPruning ... 4 (adaptive)
Weight generation scheme         WeightScheme... Becke
Basis function cutoff            BFCut       ... 1.0000e-10
Integration weight cutoff        WCut        ... 1.0000e-14
Angular grids for H and He will be reduced by one unit
Partially contracted basis set               ... on
Rotationally invariant grid construction     ... off

Total number of grid points                  ...    95885
Total number of batches                      ...     1507
Average number of points per batch           ...       63
Average number of grid points per atom       ...     6392
UseSFitting                                  ... on

Time for X-Grid setup             =    6.467 sec

--------------
SCF ITERATIONS
--------------
ITER       Energy         Delta-E        Max-DP      RMS-DP      [F,P]     Damp
               ***  Starting incremental Fock matrix formation  ***
  0  -2938.3625906677   0.000000000000 0.05625228  0.00048321  0.2969760 0.9200
  1  -2938.7322089123  -0.369618244603 0.04432376  0.00045299  0.2530159 0.9200
                               ***Turning on DIIS***
  2  -2938.9487763549  -0.216567442541 0.05926620  0.00038379  0.2326047 0.9200
  3  -2939.0529562946  -0.104179939726 0.05224891  0.00027469  0.2138589 0.9200
  4  -2939.1273831896  -0.074426894978 0.04096829  0.00023986  0.1966401 0.9200
  5  -2939.1976768781  -0.070293688541 0.04627553  0.00023077  0.1808184 0.9200
  6  -2939.2563899629  -0.058713084783 0.05984896  0.00022255  0.1663613 0.9200
  7  -2939.3158484608  -0.059458497858 0.06256019  0.00022227  0.1531371 0.9200
  8  -2939.3825990878  -0.066750627047 0.05531466  0.00020918  0.1409429 0.9200
  9  -2939.4430152077  -0.060416119890 0.05030320  0.00018350  0.1296847 0.9200
 10  -2939.4988680090  -0.055852801248 0.04121057  0.00016699  0.1193012 0.9200
 11  -2939.5494632377  -0.050595228756 0.04218848  0.00015881  0.1097333 0.9200
 12  -2939.5970831868  -0.047619949103 0.04499083  0.00015357  0.1009460 0.9200
 13  -2939.6431528161  -0.046069629292 0.04233888  0.00014496  0.0928770 0.9200
 14  -2939.6863795029  -0.043226686754 0.03552014  0.00013013  0.0854592 0.9200
 15  -2939.7266048065  -0.040225303672 0.02920196  0.00011801  0.0786296 0.9200
 16  -2939.7639863125  -0.037381505983 0.02711725  0.00011001  0.0723378 0.9200
 17  -2939.7989079757  -0.034921663174 0.02737403  0.00010386  0.0665474 0.9200
 18  -2939.8317222723  -0.032814296583 0.02631298  0.00009731  0.0612238 0.9200
 19  -2939.8624352958  -0.030713023490 0.02282177  0.00008911  0.0563295 0.9200
               *** Restarting incremental Fock matrix formation ***
                                   *** Resetting DIIS ***
 20  -2939.8954244760  -0.032989180254 0.02059687  0.00007993  0.0518288 0.9200
 21  -2939.9224419345  -0.027017458523 0.01852602  0.00007275  0.0476746 0.9200
 22  -2939.9475557819  -0.025113847320 0.01644308  0.00006717  0.0438574 0.9200
 23  -2939.9708379370  -0.023282155109 0.01522098  0.00006352  0.0403569 0.9200
 24  -2939.9924069761  -0.021569039151 0.01448454  0.00006054  0.0371421 0.9200
 25  -2940.0124024167  -0.019995440611 0.01387351  0.00005733  0.0341832 0.9200
 26  -2940.0309704343  -0.018568017573 0.01251923  0.00005354  0.0314538 0.9200
 27  -2940.0482011912  -0.017230756867 0.01085629  0.00004962  0.0289383 0.9200
 28  -2940.0641858410  -0.015984649822 0.00957905  0.00004606  0.0266235 0.9200
 29  -2940.0790140939  -0.014828252908 0.00880246  0.00004289  0.0244949 0.9200
 30  -2940.0927702355  -0.013756141590 0.00822505  0.00003995  0.0225374 0.9200
 31  -2940.1055291977  -0.012758962190 0.00752213  0.00003712  0.0207365 0.9200
 32  -2940.1173578605  -0.011828662836 0.00670422  0.00003439  0.0190794 0.9200
 33  -2940.1283192320  -0.010961371511 0.00597688  0.00003188  0.0175544 0.9200
 34  -2940.1384732060  -0.010153973995 0.00542114  0.00002958  0.0161513 0.9200
 35  -2940.1478762211  -0.009403015074 0.00495684  0.00002746  0.0148605 0.9200
 36  -2940.1565807808  -0.008704559741 0.00450175  0.00002548  0.0136729 0.9200
 37  -2940.1646357163  -0.008054935454 0.00403134  0.00002362  0.0125802 0.9200
 38  -2940.1720868500  -0.007451133736 0.00360107  0.00002191  0.0115749 0.9200
 39  -2940.1789771872  -0.006890337181 0.00318194  0.00002046  0.0106499 0.9200
               *** Restarting incremental Fock matrix formation ***
                                   *** Resetting DIIS ***
 40  -2940.1853493025  -0.006372115344 0.00322227  0.00001732  0.0097988 0.9200
 41  -2940.1912600661  -0.005910763550 0.00298527  0.00001553  0.0090160 0.9200
 42  -2940.1967175932  -0.005457527126 0.00252322  0.00001447  0.0082961 0.9200
 43  -2940.2017519501  -0.005034356911 0.00217900  0.00001390  0.0076348 0.9200
 44  -2940.2063939919  -0.004642041778 0.00195600  0.00001345  0.0070267 0.9200
 45  -2940.2106737706  -0.004279778682 0.00182333  0.00001282  0.0064667 0.9200
 46  -2940.2146213560  -0.003947585382 0.00160853  0.00001212  0.0059504 0.9200
 47  -2940.2182627004  -0.003641344433 0.00134522  0.00001141  0.0054748 0.9200
 48  -2940.2216215943  -0.003358893933 0.00112491  0.00001072  0.0050371 0.9200
 49  -2940.2247199647  -0.003098370337 0.00097967  0.00001005  0.0046345 0.9200
 50  -2940.2275779369  -0.002857972205 0.00092872  0.00000942  0.0042643 0.9200
 51  -2940.2302140166  -0.002636079708 0.00087770  0.00000881  0.0039236 0.9200
 52  -2940.2326451968  -0.002431180188 0.00082834  0.00000825  0.0036101 0.9200
 53  -2940.2348871729  -0.002241976155 0.00078105  0.00000772  0.0033217 0.9200
 54  -2940.2369544805  -0.002067307553 0.00073541  0.00000722  0.0030562 0.9200
 55  -2940.2388605533  -0.001906072859 0.00864453  0.00008447  0.0028120 0.0000
 56  -2940.2611102642  -0.022249710882 0.00147576  0.00000757  0.0004473 0.0000
               *** Restarting incremental Fock matrix formation ***
                                   *** Resetting DIIS ***
 57  -2940.2567025610   0.004407703249 0.00985192  0.00014328  0.0007524 0.0000
 58  -2940.2568929059  -0.000190344947 0.00329898  0.00004871  0.0001781 0.0000
 59  -2940.2569204167  -0.000027510727 0.00103446  0.00001639  0.0001402 0.0000
 60  -2940.2569269692  -0.000006552506 0.00116680  0.00000765  0.0001341 0.0000
 61  -2940.2569294765  -0.000002507315 0.00028981  0.00000347  0.0000708 0.0000
 62  -2940.2569308973  -0.000001420811 0.00029903  0.00000257  0.0000537 0.0000
 63  -2940.2569319244  -0.000001027119 0.00063555  0.00000204  0.0000446 0.0000
                 **** Energy Check signals convergence ****

               *****************************************************
               *                     SUCCESS                       *
               *           SCF CONVERGED AFTER  64 CYCLES          *
               *****************************************************

Old exchange energy                            =   -113.734451391 Eh
New exchange energy                            =   -113.734331361 Eh
Exchange energy change after final integration =      0.000120031 Eh
Total energy after final integration           =  -2940.256812529 Eh
Final COS-X integration done in                =    51.666 sec

----------------
TOTAL SCF ENERGY
----------------

Total Energy       :        -2940.25681253 Eh          -80008.45542 eV

Components:
Nuclear Repulsion  :         5546.56872903 Eh          150929.80824 eV
Electronic Energy  :        -8486.82554156 Eh         -230938.26366 eV
One Electron Energy:       -15866.34084322 Eh         -431745.08384 eV
Two Electron Energy:         7379.51530166 Eh          200806.82018 eV
Max COSX asymmetry :            0.00000687 Eh               0.00019 eV

Virial components:
Potential Energy   :        -4626.89158290 Eh         -125904.12081 eV
Kinetic Energy     :         1686.63477037 Eh           45895.66539 eV
Virial Ratio       :            2.74326823


DFT components:
N(Alpha)           :      147.000072564811 electrons
N(Beta)            :      143.000071403867 electrons
N(Total)           :      290.000143968678 electrons
E(X)               :     -102.496102579130 Eh       
E(C)               :       -7.968370563400 Eh       
E(XC)              :     -110.464473142530 Eh       
DFET-embed. en.    :        0.000000000000 Eh       

---------------
SCF CONVERGENCE
---------------

  Last Energy change         ...   -6.3501e-07  Tolerance :   1.0000e-06
  Last MAX-Density change    ...    0.0000e+00  Tolerance :   1.0000e-05
  Last RMS-Density change    ...    0.0000e+00  Tolerance :   1.0000e-06
  Last DIIS Error            ...    3.7071e-05  Tolerance :   1.0000e-06

             **** THE GBW FILE WAS UPDATED (b2plyp.gbw) ****
             **** DENSITY b2plyp.scfp WAS UPDATED ****
             **** ENERGY FILE WAS UPDATED (b2plyp.en.tmp) ****
----------------------
UHF SPIN CONTAMINATION
----------------------

Warning: in a DFT calculation there is little theoretical justification to 
         calculate <S**2> as in Hartree-Fock theory. We will do it anyways
         but you should keep in mind that the values have only limited relevance

Expectation value of <S**2>     :     6.104912
Ideal value S*(S+1) for S=2.0   :     6.000000
Deviation                       :     0.104912

             **** THE GBW FILE WAS UPDATED (b2plyp.gbw) ****
             **** DENSITY b2plyp.scfp WAS UPDATED ****
----------------
ORBITAL ENERGIES
----------------
                 SPIN UP ORBITALS
  NO   OCC          E(Eh)            E(eV) 
   0   1.0000    -217.752535     -5925.3477 
   1   1.0000     -25.438379      -692.2135 
   2   1.0000     -21.577927      -587.1653 
   3   1.0000     -21.577563      -587.1553 
   4   1.0000     -21.571761      -586.9975 
   5   1.0000      -4.405432      -119.8779 
   6   1.0000      -4.404991      -119.8659 
   7   1.0000      -4.404980      -119.8656 
   8   1.0000      -4.396989      -119.6481 
   9   1.0000      -4.396980      -119.6479 
  10   1.0000      -4.394729      -119.5866 
  11   1.0000      -4.393309      -119.5480 
  12   1.0000      -4.393260      -119.5467 
  13   1.0000      -4.391011      -119.4855 
  14   1.0000      -4.390328      -119.4669 
  15   1.0000      -4.390312      -119.4665 
  16   1.0000      -4.389696      -119.4497 
  17   1.0000      -4.389400      -119.4417 
  18   1.0000      -4.389364      -119.4407 
  19   1.0000      -3.229775       -87.8866 
  20   1.0000      -2.525981       -68.7354 
  21   1.0000      -2.525491       -68.7221 
  22   1.0000      -2.524218       -68.6875 
  23   1.0000      -2.523337       -68.6635 
  24   1.0000      -2.522972       -68.6536 
  25   1.0000      -2.522275       -68.6346 
  26   1.0000      -2.522198       -68.6325 
  27   1.0000      -2.519842       -68.5684 
  28   1.0000      -2.519790       -68.5670 
  29   1.0000      -2.515997       -68.4638 
  30   1.0000      -2.515945       -68.4623 
  31   1.0000      -2.515792       -68.4582 
  32   1.0000      -2.515537       -68.4512 
  33   1.0000      -2.514923       -68.4345 
  34   1.0000      -2.514479       -68.4224 
  35   1.0000      -2.514455       -68.4218 
  36   1.0000      -2.512655       -68.3728 
  37   1.0000      -2.512136       -68.3587 
  38   1.0000      -2.511918       -68.3528 
  39   1.0000      -2.511157       -68.3321 
  40   1.0000      -2.510966       -68.3269 
  41   1.0000      -2.510425       -68.3121 
  42   1.0000      -2.510334       -68.3097 
  43   1.0000      -2.510032       -68.3015 
  44   1.0000      -2.509949       -68.2992 
  45   1.0000      -2.508984       -68.2729 
  46   1.0000      -2.508817       -68.2684 
  47   1.0000      -2.508675       -68.2645 
  48   1.0000      -2.508117       -68.2493 
  49   1.0000      -2.507371       -68.2290 
  50   1.0000      -2.507257       -68.2259 
  51   1.0000      -2.506066       -68.1935 
  52   1.0000      -2.506003       -68.1918 
  53   1.0000      -2.505679       -68.1830 
  54   1.0000      -2.505443       -68.1766 
  55   1.0000      -2.504936       -68.1628 
  56   1.0000      -2.504820       -68.1596 
  57   1.0000      -2.504815       -68.1595 
  58   1.0000      -2.503898       -68.1345 
  59   1.0000      -2.503365       -68.1200 
  60   1.0000      -2.503298       -68.1182 
  61   1.0000      -2.503293       -68.1181 
  62   1.0000      -2.122430       -57.7543 
  63   1.0000      -2.111710       -57.4625 
  64   1.0000      -2.111439       -57.4552 
  65   1.0000      -0.495090       -13.4721 
  66   1.0000      -0.476802       -12.9745 
  67   1.0000      -0.473286       -12.8788 
  68   1.0000      -0.470469       -12.8021 
  69   1.0000      -0.468802       -12.7567 
  70   1.0000      -0.466135       -12.6842 
  71   1.0000      -0.464056       -12.6276 
  72   1.0000      -0.463056       -12.6004 
  73   1.0000      -0.459389       -12.5006 
  74   1.0000      -0.459134       -12.4937 
  75   1.0000      -0.455984       -12.4080 
  76   1.0000      -0.450206       -12.2507 
  77   1.0000      -0.450107       -12.2480 
  78   1.0000      -0.448675       -12.2091 
  79   1.0000      -0.445987       -12.1359 
  80   1.0000      -0.445187       -12.1141 
  81   1.0000      -0.444214       -12.0877 
  82   1.0000      -0.444026       -12.0826 
  83   1.0000      -0.440278       -11.9806 
  84   1.0000      -0.433567       -11.7979 
  85   1.0000      -0.432027       -11.7560 
  86   1.0000      -0.430564       -11.7163 
  87   1.0000      -0.427890       -11.6435 
  88   1.0000      -0.427259       -11.6263 
  89   1.0000      -0.424749       -11.5580 
  90   1.0000      -0.422150       -11.4873 
  91   1.0000      -0.420508       -11.4426 
  92   1.0000      -0.417621       -11.3641 
  93   1.0000      -0.416687       -11.3386 
  94   1.0000      -0.412570       -11.2266 
  95   1.0000      -0.410317       -11.1653 
  96   1.0000      -0.409225       -11.1356 
  97   1.0000      -0.406090       -11.0503 
  98   1.0000      -0.405022       -11.0212 
  99   1.0000      -0.404805       -11.0153 
 100   1.0000      -0.397915       -10.8278 
 101   1.0000      -0.395552       -10.7635 
 102   1.0000      -0.394176       -10.7261 
 103   1.0000      -0.389928       -10.6105 
 104   1.0000      -0.388452       -10.5703 
 105   1.0000      -0.386109       -10.5065 
 106   1.0000      -0.381750       -10.3879 
 107   1.0000      -0.380144       -10.3442 
 108   1.0000      -0.378347       -10.2953 
 109   1.0000      -0.377676       -10.2771 
 110   1.0000      -0.375191       -10.2095 
 111   1.0000      -0.372012       -10.1230 
 112   1.0000      -0.369490       -10.0543 
 113   1.0000      -0.368246       -10.0205 
 114   1.0000      -0.365023        -9.9328 
 115   1.0000      -0.364429        -9.9166 
 116   1.0000      -0.362310        -9.8590 
 117   1.0000      -0.361099        -9.8260 
 118   1.0000      -0.361018        -9.8238 
 119   1.0000      -0.360080        -9.7983 
 120   1.0000      -0.355578        -9.6758 
 121   1.0000      -0.354964        -9.6591 
 122   1.0000      -0.354520        -9.6470 
 123   1.0000      -0.353021        -9.6062 
 124   1.0000      -0.350719        -9.5436 
 125   1.0000      -0.350041        -9.5251 
 126   1.0000      -0.345958        -9.4140 
 127   1.0000      -0.343755        -9.3540 
 128   1.0000      -0.343311        -9.3420 
 129   1.0000      -0.341446        -9.2912 
 130   1.0000      -0.339495        -9.2381 
 131   1.0000      -0.338481        -9.2105 
 132   1.0000      -0.336061        -9.1447 
 133   1.0000      -0.335869        -9.1395 
 134   1.0000      -0.333001        -9.0614 
 135   1.0000      -0.328680        -8.9438 
 136   1.0000      -0.326707        -8.8901 
 137   1.0000      -0.326224        -8.8770 
 138   1.0000      -0.321881        -8.7588 
 139   1.0000      -0.321013        -8.7352 
 140   1.0000      -0.320644        -8.7252 
 141   1.0000      -0.304460        -8.2848 
 142   1.0000      -0.298926        -8.1342 
 143   1.0000      -0.237523        -6.4633 
 144   1.0000      -0.235532        -6.4092 
 145   1.0000      -0.226782        -6.1711 
 146   1.0000      -0.222946        -6.0667 
 147   0.0000      -0.106429        -2.8961 
 148   0.0000      -0.073627        -2.0035 
 149   0.0000      -0.071844        -1.9550 
 150   0.0000      -0.069122        -1.8809 
 151   0.0000      -0.065847        -1.7918 
 152   0.0000      -0.057166        -1.5556 
 153   0.0000      -0.050034        -1.3615 
 154   0.0000      -0.037786        -1.0282 
 155   0.0000      -0.012949        -0.3524 
 156   0.0000      -0.006231        -0.1696 
 157   0.0000      -0.000692        -0.0188 
 158   0.0000       0.010977         0.2987 
 159   0.0000       0.016956         0.4614 
 160   0.0000       0.024306         0.6614 
 161   0.0000       0.033550         0.9129 
 162   0.0000       0.033631         0.9151 
 163   0.0000       0.046174         1.2565 
 164   0.0000       0.051348         1.3972 
 165   0.0000       0.058889         1.6024 
 166   0.0000       0.063749         1.7347 
 167   0.0000       0.065519         1.7829 
 168   0.0000       0.068662         1.8684 
 169   0.0000       0.082969         2.2577 
 170   0.0000       0.085848         2.3360 
 171   0.0000       0.086695         2.3591 
 172   0.0000       0.091576         2.4919 
 173   0.0000       0.099877         2.7178 
 174   0.0000       0.102975         2.8021 
 175   0.0000       0.103750         2.8232 
 176   0.0000       0.105808         2.8792 
 177   0.0000       0.111319         3.0292 
 178   0.0000       0.114782         3.1234 
 179   0.0000       0.115784         3.1507 
 180   0.0000       0.122097         3.3224 
 181   0.0000       0.126631         3.4458 
 182   0.0000       0.129603         3.5267 
 183   0.0000       0.140376         3.8198 
 184   0.0000       0.141936         3.8623 
 185   0.0000       0.149500         4.0681 
 186   0.0000       0.149671         4.0728 
 187   0.0000       0.151458         4.1214 
 188   0.0000       0.153847         4.1864 
 189   0.0000       0.161763         4.4018 
 190   0.0000       0.162740         4.4284 
 191   0.0000       0.171884         4.6772 
 192   0.0000       0.179060         4.8725 
 193   0.0000       0.183946         5.0054 
 194   0.0000       0.184854         5.0301 
 195   0.0000       0.188217         5.1216 
 196   0.0000       0.193606         5.2683 
 197   0.0000       0.195908         5.3309 
 198   0.0000       0.197102         5.3634 
 199   0.0000       0.203673         5.5422 
 200   0.0000       0.209461         5.6997 
 201   0.0000       0.212198         5.7742 
 202   0.0000       0.213062         5.7977 
 203   0.0000       0.225767         6.1434 
 204   0.0000       0.227602         6.1934 
 205   0.0000       0.276860         7.5337 
 206   0.0000       0.278590         7.5808 
 207   0.0000       0.286868         7.8061 
 208   0.0000       0.289486         7.8773 
 209   0.0000       0.296516         8.0686 
 210   0.0000       0.297326         8.0906 
 211   0.0000       0.301134         8.1943 
 212   0.0000       0.304580         8.2881 
 213   0.0000       0.313367         8.5271 
 214   0.0000       0.321324         8.7437 
 215   0.0000       0.324268         8.8238 
 216   0.0000       0.326736         8.8909 
 217   0.0000       0.328080         8.9275 
 218   0.0000       0.335127         9.1193 
 219   0.0000       0.336454         9.1554 
 220   0.0000       0.341812         9.3012 
 221   0.0000       0.346256         9.4221 
 222   0.0000       0.348795         9.4912 
 223   0.0000       0.359767         9.7898 
 224   0.0000       0.361563         9.8386 
 225   0.0000       0.370622        10.0851 
 226   0.0000       0.375456        10.2167 
 227   0.0000       0.379862        10.3366 
 228   0.0000       0.385542        10.4911 
 229   0.0000       0.387642        10.5483 
 230   0.0000       0.390752        10.6329 
 231   0.0000       0.405844        11.0436 
 232   0.0000       0.410525        11.1710 
 233   0.0000       0.413122        11.2416 
 234   0.0000       0.415451        11.3050 
 235   0.0000       0.417341        11.3564 
 236   0.0000       0.419521        11.4157 
 237   0.0000       0.424289        11.5455 
 238   0.0000       0.434370        11.8198 
 239   0.0000       0.434987        11.8366 
 240   0.0000       0.442125        12.0308 
 241   0.0000       0.446921        12.1613 
 242   0.0000       0.447351        12.1730 
 243   0.0000       0.448808        12.2127 
 244   0.0000       0.459795        12.5117 
 245   0.0000       0.467311        12.7162 
 246   0.0000       0.468395        12.7457 
 247   0.0000       0.468563        12.7502 
 248   0.0000       0.476251        12.9594 
 249   0.0000       0.486229        13.2310 
 250   0.0000       0.487976        13.2785 
 251   0.0000       0.489391        13.3170 
 252   0.0000       0.495766        13.4905 
 253   0.0000       0.498346        13.5607 
 254   0.0000       0.500549        13.6206 
 255   0.0000       0.507361        13.8060 
 256   0.0000       0.512223        13.9383 
 257   0.0000       0.520649        14.1676 
 258   0.0000       0.523381        14.2419 
 259   0.0000       0.524512        14.2727 
 260   0.0000       0.532172        14.4811 
 261   0.0000       0.535694        14.5770 
 262   0.0000       0.537624        14.6295 
 263   0.0000       0.549324        14.9479 
 264   0.0000       0.552559        15.0359 
 265   0.0000       0.556367        15.1395 
 266   0.0000       0.563590        15.3361 
 267   0.0000       0.564522        15.3614 
 268   0.0000       0.571155        15.5419 
 269   0.0000       0.573363        15.6020 
 270   0.0000       0.573449        15.6043 
 271   0.0000       0.591491        16.0953 
 272   0.0000       0.594223        16.1696 
 273   0.0000       0.601395        16.3648 
 274   0.0000       0.603256        16.4154 
 275   0.0000       0.608542        16.5593 
 276   0.0000       0.609226        16.5779 
 277   0.0000       0.617981        16.8161 
 278   0.0000       0.622521        16.9396 
 279   0.0000       0.625289        17.0150 
 280   0.0000       0.626957        17.0604 
 281   0.0000       0.632223        17.2037 
 282   0.0000       0.636956        17.3325 
 283   0.0000       0.639516        17.4021 
 284   0.0000       0.642859        17.4931 
 285   0.0000       0.651413        17.7259 
 286   0.0000       0.653654        17.7868 
 287   0.0000       0.657610        17.8945 
 288   0.0000       0.663162        18.0456 
 289   0.0000       0.675161        18.3721 
 290   0.0000       0.676314        18.4034 
 291   0.0000       0.692814        18.8524 
 292   0.0000       0.699643        19.0382 
 293   0.0000       0.705073        19.1860 
 294   0.0000       0.728985        19.8367 
 295   0.0000       0.803185        21.8558 
 296   0.0000       0.809240        22.0205 
 297   0.0000       0.819862        22.3096 
 298   0.0000       0.831673        22.6310 
 299   0.0000       0.851980        23.1835 
 300   0.0000       0.856575        23.3086 
 301   0.0000       0.858732        23.3673 
 302   0.0000       0.869256        23.6536 
 303   0.0000       0.874125        23.7862 
 304   0.0000       0.896476        24.3943 
 305   0.0000       0.907607        24.6972 
 306   0.0000       0.907920        24.7058 
 307   0.0000       0.919941        25.0329 
 308   0.0000       0.923498        25.1297 
 309   0.0000       0.929320        25.2881 
 310   0.0000       0.935134        25.4463 
 311   0.0000       0.949103        25.8264 
 312   0.0000       0.973191        26.4819 
 313   0.0000       0.976272        26.5657 
 314   0.0000       0.982667        26.7397 
 315   0.0000       0.993725        27.0406 
 316   0.0000       0.994681        27.0666 
 317   0.0000       1.021209        27.7885 
 318   0.0000       1.023374        27.8474 
 319   0.0000       1.025232        27.8980 
 320   0.0000       1.026879        27.9428 
 321   0.0000       1.046394        28.4738 
 322   0.0000       1.059009        28.8171 
 323   0.0000       1.062515        28.9125 
 324   0.0000       1.070260        29.1233 
 325   0.0000       1.074288        29.2329 
 326   0.0000       1.088999        29.6332 
 327   0.0000       1.114953        30.3394 
 328   0.0000       1.131907        30.8008 
 329   0.0000       1.142619        31.0923 
 330   0.0000       1.148353        31.2483 
 331   0.0000       1.152029        31.3483 
 332   0.0000       1.179867        32.1058 
 333   0.0000       1.198822        32.6216 
 334   0.0000       1.236296        33.6413 
 335   0.0000       1.301101        35.4048 
 336   0.0000       1.348916        36.7059 
 337   0.0000       1.389766        37.8175 
 338   0.0000       1.393376        37.9157 
 339   0.0000       1.424791        38.7705 
 340   0.0000       1.433961        39.0201 
 341   0.0000       1.444440        39.3052 
 342   0.0000       1.445809        39.3425 
 343   0.0000       1.455895        39.6169 
 344   0.0000       1.456850        39.6429 
 345   0.0000       1.471358        40.0377 
 346   0.0000       1.475498        40.1504 
 347   0.0000       1.488057        40.4921 
 348   0.0000       1.490930        40.5703 
 349   0.0000       1.508406        41.0458 
 350   0.0000       1.509744        41.0822 
 351   0.0000       1.515781        41.2465 
 352   0.0000       1.520465        41.3739 
 353   0.0000       1.531807        41.6826 
 354   0.0000       1.541010        41.9330 
 355   0.0000       1.545302        42.0498 
 356   0.0000       1.548476        42.1362 
 357   0.0000       1.565530        42.6002 
 358   0.0000       1.568699        42.6865 
 359   0.0000       1.576084        42.8874 
 360   0.0000       1.578182        42.9445 
 361   0.0000       1.585665        43.1481 
 362   0.0000       1.589724        43.2586 
 363   0.0000       1.594503        43.3886 
 364   0.0000       1.596508        43.4432 
 365   0.0000       1.599711        43.5304 
 366   0.0000       1.608978        43.7825 
 367   0.0000       1.609755        43.8037 
 368   0.0000       1.611560        43.8528 
 369   0.0000       1.616874        43.9974 
 370   0.0000       1.621373        44.1198 
 371   0.0000       1.623743        44.1843 
 372   0.0000       1.623828        44.1866 
 373   0.0000       1.628776        44.3212 
 374   0.0000       1.635567        44.5060 
 375   0.0000       1.636094        44.5204 
 376   0.0000       1.644306        44.7439 
 377   0.0000       1.645777        44.7839 
 378   0.0000       1.646994        44.8170 
 379   0.0000       1.651532        44.9405 
 380   0.0000       1.652036        44.9542 
 381   0.0000       1.658795        45.1381 
 382   0.0000       1.662391        45.2360 
 383   0.0000       1.666289        45.3420 
 384   0.0000       1.667702        45.3805 
 385   0.0000       1.669482        45.4289 
 386   0.0000       1.670982        45.4697 
 387   0.0000       1.674179        45.5567 
 388   0.0000       1.674995        45.5789 
 389   0.0000       1.677025        45.6342 
 390   0.0000       1.677759        45.6541 
 391   0.0000       1.679555        45.7030 
 392   0.0000       1.682973        45.7960 
 393   0.0000       1.684711        45.8433 
 394   0.0000       1.686349        45.8879 
 395   0.0000       1.690317        45.9959 
 396   0.0000       1.691094        46.0170 
 397   0.0000       1.691274        46.0219 
 398   0.0000       1.694365        46.1060 
 399   0.0000       1.694548        46.1110 
 400   0.0000       1.695244        46.1299 
 401   0.0000       1.696613        46.1672 
 402   0.0000       1.697346        46.1871 
 403   0.0000       1.700319        46.2680 
 404   0.0000       1.700715        46.2788 
 405   0.0000       1.700823        46.2818 
 406   0.0000       1.703496        46.3545 
 407   0.0000       1.705328        46.4043 
 408   0.0000       1.707176        46.4546 
 409   0.0000       1.708206        46.4826 
 410   0.0000       1.708765        46.4979 
 411   0.0000       1.710772        46.5525 
 412   0.0000       1.713562        46.6284 
 413   0.0000       1.713749        46.6335 
 414   0.0000       1.715608        46.6841 
 415   0.0000       1.716501        46.7084 
 416   0.0000       1.718626        46.7662 
 417   0.0000       1.722325        46.8668 
 418   0.0000       1.722500        46.8716 
 419   0.0000       1.723687        46.9039 
 420   0.0000       1.724050        46.9138 
 421   0.0000       1.728799        47.0430 
 422   0.0000       1.731817        47.1251 
 423   0.0000       1.733246        47.1640 
 424   0.0000       1.733702        47.1764 
 425   0.0000       1.736513        47.2529 
 426   0.0000       1.738557        47.3085 
 427   0.0000       1.739840        47.3434 
 428   0.0000       1.740860        47.3712 
 429   0.0000       1.744188        47.4618 
 430   0.0000       1.744889        47.4808 
 431   0.0000       1.745427        47.4955 
 432   0.0000       1.746748        47.5314 
 433   0.0000       1.749164        47.5972 
 434   0.0000       1.752821        47.6967 
 435   0.0000       1.755323        47.7648 
 436   0.0000       1.756467        47.7959 
 437   0.0000       1.757988        47.8373 
 438   0.0000       1.761556        47.9344 
 439   0.0000       1.763090        47.9761 
 440   0.0000       1.763459        47.9862 
 441   0.0000       1.767441        48.0945 
 442   0.0000       1.771382        48.2017 
 443   0.0000       1.773922        48.2709 
 444   0.0000       1.775994        48.3272 
 445   0.0000       1.776160        48.3318 
 446   0.0000       1.778566        48.3972 
 447   0.0000       1.781812        48.4856 
 448   0.0000       1.785318        48.5810 
 449   0.0000       1.785645        48.5899 
 450   0.0000       1.786951        48.6254 
 451   0.0000       1.788384        48.6644 
 452   0.0000       1.792466        48.7755 
 453   0.0000       1.794946        48.8430 
 454   0.0000       1.799716        48.9728 
 455   0.0000       1.802879        49.0588 
 456   0.0000       1.803957        49.0882 
 457   0.0000       1.809581        49.2412 
 458   0.0000       1.810844        49.2756 
 459   0.0000       1.814238        49.3679 
 460   0.0000       1.820075        49.5268 
 461   0.0000       1.821206        49.5575 
 462   0.0000       1.824510        49.6474 
 463   0.0000       1.826814        49.7101 
 464   0.0000       1.829378        49.7799 
 465   0.0000       1.832968        49.8776 
 466   0.0000       1.835336        49.9420 
 467   0.0000       1.836769        49.9810 
 468   0.0000       1.850098        50.3437 
 469   0.0000       1.851808        50.3902 
 470   0.0000       1.861614        50.6571 
 471   0.0000       1.872735        50.9597 
 472   0.0000       1.875223        51.0274 
 473   0.0000       1.884146        51.2702 
 474   0.0000       1.884383        51.2767 
 475   0.0000       1.893161        51.5155 
 476   0.0000       1.908750        51.9397 
 477   0.0000       1.917144        52.1681 
 478   0.0000       1.920149        52.2499 
 479   0.0000       1.924678        52.3732 
 480   0.0000       1.940667        52.8082 
 481   0.0000       1.947723        53.0002 
 482   0.0000       1.952858        53.1400 
 483   0.0000       1.963617        53.4327 
 484   0.0000       1.965742        53.4906 
 485   0.0000       1.979080        53.8535 
 486   0.0000       1.988865        54.1198 
 487   0.0000       1.992687        54.2238 
 488   0.0000       1.999459        54.4080 
 489   0.0000       2.012760        54.7700 
 490   0.0000       2.014872        54.8275 
 491   0.0000       2.024687        55.0945 
 492   0.0000       2.031391        55.2770 
 493   0.0000       2.040598        55.5275 
 494   0.0000       2.042326        55.5745 
 495   0.0000       2.048047        55.7302 
 496   0.0000       2.062123        56.1132 
 497   0.0000       2.074039        56.4375 
 498   0.0000       2.089201        56.8500 
 499   0.0000       2.090092        56.8743 
 500   0.0000       2.092600        56.9426 
 501   0.0000       2.109336        57.3979 
 502   0.0000       2.120167        57.6927 
 503   0.0000       2.129492        57.9464 
 504   0.0000       2.163463        58.8708 
 505   0.0000       2.195435        59.7408 
 506   0.0000       2.371367        64.5282 
 507   0.0000       2.458744        66.9058 
 508   0.0000       2.460988        66.9669 
 509   0.0000       2.502080        68.0851 
 510   0.0000       2.564469        69.7828 
 511   0.0000       2.567677        69.8700 
 512   0.0000       2.603336        70.8404 
 513   0.0000       2.619379        71.2769 
 514   0.0000       2.644386        71.9574 
 515   0.0000       2.653366        72.2018 
 516   0.0000       2.669962        72.6533 
 517   0.0000       2.672372        72.7189 
 518   0.0000       2.713724        73.8442 
 519   0.0000       2.730765        74.3079 
 520   0.0000       2.742768        74.6345 
 521   0.0000       2.751168        74.8631 
 522   0.0000       2.768581        75.3369 
 523   0.0000       2.782675        75.7204 
 524   0.0000       2.793299        76.0095 
 525   0.0000       2.883622        78.4674 
 526   0.0000       2.929552        79.7172 
 527   0.0000       3.038914        82.6930 
 528   0.0000       3.052788        83.0706 
 529   0.0000       3.060584        83.2827 
 530   0.0000       3.081873        83.8620 
 531   0.0000       3.104618        84.4810 
 532   0.0000       3.111264        84.6618 
 533   0.0000       3.124709        85.0277 
 534   0.0000       3.143691        85.5442 
 535   0.0000      24.086237       655.4198 
 536   0.0000      24.318490       661.7398 
 537   0.0000      24.428097       664.7223 
 538   0.0000      24.503745       666.7808 
 539   0.0000      24.619803       669.9389 
 540   0.0000      24.643543       670.5849 
 541   0.0000      24.727059       672.8575 
 542   0.0000      24.881404       677.0574 
 543   0.0000      25.090882       682.7576 
 544   0.0000      25.177071       685.1029 
 545   0.0000      25.332723       689.3384 
 546   0.0000      25.450716       692.5492 
 547   0.0000      25.571389       695.8329 
 548   0.0000      25.637958       697.6443 
 549   0.0000      25.993945       707.3312 
 550   0.0000      26.021956       708.0934 
 551   0.0000      26.108333       710.4439 
 552   0.0000      26.113579       710.5866 
 553   0.0000      26.214564       713.3345 
 554   0.0000      26.319992       716.2034 
 555   0.0000      26.374230       717.6793 
 556   0.0000      26.436029       719.3609 
 557   0.0000      26.594880       723.6835 
 558   0.0000      26.685885       726.1599 
 559   0.0000      26.798392       729.2213 
 560   0.0000      26.970486       733.9042 
 561   0.0000      27.041732       735.8429 
 562   0.0000      27.059117       736.3160 
 563   0.0000      27.206805       740.3348 
 564   0.0000      27.295429       742.7464 
 565   0.0000      27.306133       743.0377 
 566   0.0000      27.478306       747.7227 
 567   0.0000      27.567444       750.1483 
 568   0.0000      27.625186       751.7195 
 569   0.0000      27.798600       756.4384 
 570   0.0000      27.888468       758.8838 
 571   0.0000      28.157473       766.2038 
 572   0.0000      28.191095       767.1187 
 573   0.0000      28.350066       771.4445 
 574   0.0000      28.668431       780.1077 
 575   0.0000      28.820088       784.2345 
 576   0.0000      29.144661       793.0665 
 577   0.0000      44.109402      1200.2778 
 578   0.0000      44.224549      1203.4112 
 579   0.0000      44.268505      1204.6073 
 580   0.0000      44.282989      1205.0014 
 581   0.0000      44.326974      1206.1983 
 582   0.0000      44.336843      1206.4668 
 583   0.0000      44.348192      1206.7757 
 584   0.0000      44.357760      1207.0360 
 585   0.0000      44.371018      1207.3968 
 586   0.0000      44.389661      1207.9041 
 587   0.0000      44.397048      1208.1051 
 588   0.0000      44.408236      1208.4095 
 589   0.0000      44.444770      1209.4037 
 590   0.0000      44.444806      1209.4047 
 591   0.0000     202.675654      5515.0849 
 592   0.0000     202.721130      5516.3224 
 593   0.0000     202.738492      5516.7948 
 594   0.0000     202.742306      5516.8986 
 595   0.0000     202.764830      5517.5115 
 596   0.0000     202.767203      5517.5761 
 597   0.0000     202.773308      5517.7422 
 598   0.0000     202.776018      5517.8160 
 599   0.0000     202.784795      5518.0548 
 600   0.0000     202.788805      5518.1639 
 601   0.0000     202.793278      5518.2857 
 602   0.0000     202.796666      5518.3778 
 603   0.0000     202.809439      5518.7254 
 604   0.0000     202.816856      5518.9272 

                 SPIN DOWN ORBITALS
  NO   OCC          E(Eh)            E(eV) 
   0   1.0000    -217.751241     -5925.3125 
   1   1.0000     -25.367608      -690.2877 
   2   1.0000     -21.517522      -585.5215 
   3   1.0000     -21.517406      -585.5184 
   4   1.0000     -21.496241      -584.9425 
   5   1.0000      -4.404558      -119.8541 
   6   1.0000      -4.404241      -119.8455 
   7   1.0000      -4.404224      -119.8450 
   8   1.0000      -4.396324      -119.6300 
   9   1.0000      -4.396315      -119.6298 
  10   1.0000      -4.394511      -119.5807 
  11   1.0000      -4.392025      -119.5131 
  12   1.0000      -4.391974      -119.5117 
  13   1.0000      -4.390004      -119.4581 
  14   1.0000      -4.389611      -119.4474 
  15   1.0000      -4.389587      -119.4467 
  16   1.0000      -4.389390      -119.4414 
  17   1.0000      -4.389156      -119.4350 
  18   1.0000      -4.389116      -119.4339 
  19   1.0000      -3.013084       -81.9902 
  20   1.0000      -2.524505       -68.6953 
  21   1.0000      -2.524317       -68.6901 
  22   1.0000      -2.523104       -68.6572 
  23   1.0000      -2.522385       -68.6376 
  24   1.0000      -2.522114       -68.6302 
  25   1.0000      -2.521102       -68.6027 
  26   1.0000      -2.521060       -68.6015 
  27   1.0000      -2.519098       -68.5481 
  28   1.0000      -2.519046       -68.5467 
  29   1.0000      -2.514794       -68.4310 
  30   1.0000      -2.514685       -68.4281 
  31   1.0000      -2.514678       -68.4279 
  32   1.0000      -2.514066       -68.4112 
  33   1.0000      -2.514028       -68.4102 
  34   1.0000      -2.513640       -68.3996 
  35   1.0000      -2.513571       -68.3977 
  36   1.0000      -2.512404       -68.3660 
  37   1.0000      -2.511314       -68.3363 
  38   1.0000      -2.511132       -68.3314 
  39   1.0000      -2.510716       -68.3200 
  40   1.0000      -2.510160       -68.3049 
  41   1.0000      -2.509126       -68.2768 
  42   1.0000      -2.509030       -68.2742 
  43   1.0000      -2.508777       -68.2673 
  44   1.0000      -2.508601       -68.2625 
  45   1.0000      -2.508336       -68.2553 
  46   1.0000      -2.507869       -68.2426 
  47   1.0000      -2.507535       -68.2335 
  48   1.0000      -2.507273       -68.2264 
  49   1.0000      -2.506463       -68.2043 
  50   1.0000      -2.506230       -68.1980 
  51   1.0000      -2.505539       -68.1792 
  52   1.0000      -2.505464       -68.1771 
  53   1.0000      -2.505229       -68.1707 
  54   1.0000      -2.504886       -68.1614 
  55   1.0000      -2.504506       -68.1511 
  56   1.0000      -2.504022       -68.1379 
  57   1.0000      -2.503958       -68.1362 
  58   1.0000      -2.503471       -68.1229 
  59   1.0000      -2.503155       -68.1143 
  60   1.0000      -2.502408       -68.0940 
  61   1.0000      -2.502342       -68.0922 
  62   1.0000      -1.882230       -51.2181 
  63   1.0000      -1.881722       -51.2042 
  64   1.0000      -1.833984       -49.9053 
  65   1.0000      -0.486918       -13.2497 
  66   1.0000      -0.467591       -12.7238 
  67   1.0000      -0.465215       -12.6591 
  68   1.0000      -0.462994       -12.5987 
  69   1.0000      -0.459050       -12.4914 
  70   1.0000      -0.458973       -12.4893 
  71   1.0000      -0.458708       -12.4821 
  72   1.0000      -0.457808       -12.4576 
  73   1.0000      -0.453972       -12.3532 
  74   1.0000      -0.453221       -12.3328 
  75   1.0000      -0.451340       -12.2816 
  76   1.0000      -0.449676       -12.2363 
  77   1.0000      -0.449187       -12.2230 
  78   1.0000      -0.445434       -12.1209 
  79   1.0000      -0.444666       -12.1000 
  80   1.0000      -0.443351       -12.0642 
  81   1.0000      -0.441714       -12.0197 
  82   1.0000      -0.439173       -11.9505 
  83   1.0000      -0.437976       -11.9179 
  84   1.0000      -0.431472       -11.7409 
  85   1.0000      -0.430215       -11.7067 
  86   1.0000      -0.426591       -11.6081 
  87   1.0000      -0.425479       -11.5779 
  88   1.0000      -0.424580       -11.5534 
  89   1.0000      -0.420567       -11.4442 
  90   1.0000      -0.419236       -11.4080 
  91   1.0000      -0.416626       -11.3370 
  92   1.0000      -0.413814       -11.2604 
  93   1.0000      -0.410836       -11.1794 
  94   1.0000      -0.409494       -11.1429 
  95   1.0000      -0.407451       -11.0873 
  96   1.0000      -0.405176       -11.0254 
  97   1.0000      -0.403476       -10.9791 
  98   1.0000      -0.400265       -10.8918 
  99   1.0000      -0.396496       -10.7892 
 100   1.0000      -0.395349       -10.7580 
 101   1.0000      -0.392387       -10.6774 
 102   1.0000      -0.384843       -10.4721 
 103   1.0000      -0.384581       -10.4650 
 104   1.0000      -0.382889       -10.4189 
 105   1.0000      -0.380503       -10.3540 
 106   1.0000      -0.378730       -10.3058 
 107   1.0000      -0.376431       -10.2432 
 108   1.0000      -0.375887       -10.2284 
 109   1.0000      -0.373968       -10.1762 
 110   1.0000      -0.372412       -10.1339 
 111   1.0000      -0.369468       -10.0537 
 112   1.0000      -0.368116       -10.0169 
 113   1.0000      -0.364707        -9.9242 
 114   1.0000      -0.364259        -9.9120 
 115   1.0000      -0.361470        -9.8361 
 116   1.0000      -0.360179        -9.8010 
 117   1.0000      -0.359734        -9.7889 
 118   1.0000      -0.359262        -9.7760 
 119   1.0000      -0.356190        -9.6924 
 120   1.0000      -0.352975        -9.6049 
 121   1.0000      -0.350825        -9.5464 
 122   1.0000      -0.349813        -9.5189 
 123   1.0000      -0.349466        -9.5095 
 124   1.0000      -0.347973        -9.4688 
 125   1.0000      -0.345071        -9.3899 
 126   1.0000      -0.342576        -9.3220 
 127   1.0000      -0.340245        -9.2585 
 128   1.0000      -0.338026        -9.1981 
 129   1.0000      -0.337652        -9.1880 
 130   1.0000      -0.337522        -9.1844 
 131   1.0000      -0.333267        -9.0687 
 132   1.0000      -0.332296        -9.0422 
 133   1.0000      -0.327022        -8.8987 
 134   1.0000      -0.325423        -8.8552 
 135   1.0000      -0.324708        -8.8358 
 136   1.0000      -0.320010        -8.7079 
 137   1.0000      -0.305004        -8.2996 
 138   1.0000      -0.300834        -8.1861 
 139   1.0000      -0.238454        -6.4887 
 140   1.0000      -0.233152        -6.3444 
 141   1.0000      -0.231456        -6.2982 
 142   1.0000      -0.224595        -6.1115 
 143   0.0000      -0.111093        -3.0230 
 144   0.0000      -0.076357        -2.0778 
 145   0.0000      -0.075371        -2.0510 
 146   0.0000      -0.069880        -1.9015 
 147   0.0000      -0.060315        -1.6412 
 148   0.0000      -0.054686        -1.4881 
 149   0.0000      -0.037313        -1.0153 
 150   0.0000      -0.010636        -0.2894 
 151   0.0000      -0.006903        -0.1878 
 152   0.0000       0.000168         0.0046 
 153   0.0000       0.003620         0.0985 
 154   0.0000       0.009190         0.2501 
 155   0.0000       0.017217         0.4685 
 156   0.0000       0.022148         0.6027 
[...]
      px      :    -0.000877
      py      :     0.007202
      dz2     :     0.000744  d :    -0.007049
      dxz     :    -0.000221
      dyz     :     0.001761
      dx2y2   :     0.001068
      dxy     :    -0.010401
      f0      :     0.000002  f :     0.000001
      f+1     :    -0.000005
      f-1     :    -0.000001
      f+2     :     0.000011
      f-2     :    -0.000006
      f+3     :    -0.000016
      f-3     :     0.000016
  5 Aus       :    -0.061706  s :    -0.061706
      pz      :    -0.002094  p :    -0.087249
      px      :    -0.053310
      py      :    -0.031846
      dz2     :    -0.001523  d :    -0.007562
      dxz     :     0.005158
      dyz     :     0.001187
      dx2y2   :    -0.013373
      dxy     :     0.000988
      f0      :     0.000144  f :     0.000240
      f+1     :     0.000069
      f-1     :     0.000079
      f+2     :    -0.000018
      f-2     :    -0.000011
      f+3     :    -0.000008
      f-3     :    -0.000013
  6 Aus       :    -0.071966  s :    -0.071966
      pz      :    -0.032554  p :    -0.071551
      px      :    -0.022858
      py      :    -0.016139
      dz2     :     0.001268  d :     0.009636
      dxz     :     0.000319
      dyz     :    -0.002105
      dx2y2   :     0.006585
      dxy     :     0.003568
      f0      :     0.000039  f :     0.000318
      f+1     :     0.000031
      f-1     :     0.000014
      f+2     :     0.000017
      f-2     :     0.000126
      f+3     :     0.000027
      f-3     :     0.000065
  7 Aus       :     0.015911  s :     0.015911
      pz      :    -0.015696  p :    -0.035141
      px      :    -0.019074
      py      :    -0.000371
      dz2     :    -0.000834  d :    -0.009637
      dxz     :    -0.001238
      dyz     :    -0.004446
      dx2y2   :     0.000092
      dxy     :    -0.003212
      f0      :    -0.000007  f :    -0.000042
      f+1     :    -0.000006
      f-1     :     0.000005
      f+2     :    -0.000038
      f-2     :    -0.000006
      f+3     :     0.000008
      f-3     :     0.000002
  8 Aus       :    -0.075773  s :    -0.075773
      pz      :    -0.024595  p :    -0.025378
      px      :    -0.000805
      py      :     0.000022
      dz2     :    -0.000029  d :    -0.003767
      dxz     :    -0.005807
      dyz     :    -0.003019
      dx2y2   :     0.001930
      dxy     :     0.003158
      f0      :     0.000027  f :     0.000224
      f+1     :     0.000002
      f-1     :     0.000019
      f+2     :     0.000035
      f-2     :     0.000014
      f+3     :     0.000068
      f-3     :     0.000059
  9 Aus       :    -0.025489  s :    -0.025489
      pz      :     0.002169  p :    -0.003919
      px      :    -0.004197
      py      :    -0.001891
      dz2     :     0.002185  d :     0.013150
      dxz     :     0.004988
      dyz     :     0.005637
      dx2y2   :    -0.001097
      dxy     :     0.001437
      f0      :    -0.000006  f :     0.000219
      f+1     :     0.000018
      f-1     :     0.000049
      f+2     :     0.000057
      f-2     :     0.000099
      f+3     :     0.000011
      f-3     :    -0.000010
 10 Aus       :    -0.075482  s :    -0.075482
      pz      :     0.001982  p :    -0.025314
      px      :    -0.022986
      py      :    -0.004310
      dz2     :     0.000401  d :    -0.003734
      dxz     :    -0.000805
      dyz     :     0.000889
      dx2y2   :    -0.002358
      dxy     :    -0.001860
      f0      :     0.000010  f :     0.000225
      f+1     :     0.000006
      f-1     :     0.000013
      f+2     :     0.000030
      f-2     :     0.000129
      f+3     :     0.000007
      f-3     :     0.000031
 11 Aus       :    -0.061285  s :    -0.061285
      pz      :     0.001982  p :    -0.057288
      px      :    -0.031962
      py      :    -0.027308
      dz2     :     0.003647  d :    -0.002373
      dxz     :     0.000616
      dyz     :    -0.000734
      dx2y2   :    -0.002467
      dxy     :    -0.003435
      f0      :     0.000193  f :     0.000337
      f+1     :     0.000102
      f-1     :     0.000083
      f+2     :    -0.000002
      f-2     :    -0.000011
      f+3     :    -0.000026
      f-3     :    -0.000003
 12 Aus       :    -0.072010  s :    -0.072010
      pz      :    -0.026881  p :    -0.071565
      px      :    -0.047400
      py      :     0.002716
      dz2     :     0.000426  d :     0.009623
      dxz     :    -0.003464
      dyz     :     0.008005
      dx2y2   :     0.001489
      dxy     :     0.003167
      f0      :     0.000038  f :     0.000318
      f+1     :    -0.000000
      f-1     :     0.000044
      f+2     :     0.000092
      f-2     :     0.000004
      f+3     :     0.000056
      f-3     :     0.000084
 13 Aus       :    -0.061416  s :    -0.061416
      pz      :    -0.025825  p :    -0.057410
      px      :    -0.010598
      py      :    -0.020988
      dz2     :     0.000366  d :    -0.002433
      dxz     :    -0.002247
      dyz     :    -0.003959
      dx2y2   :    -0.000898
      dxy     :     0.004305
      f0      :     0.000032  f :     0.000336
      f+1     :     0.000066
      f-1     :    -0.000019
      f+2     :     0.000025
      f-2     :    -0.000000
      f+3     :     0.000097
      f-3     :     0.000134
 14 Crs       :     0.021790  s :     0.021790
      pz      :     0.014662  p :     0.048847
      px      :     0.015242
      py      :     0.018943
      dz2     :     0.338666  d :     3.371470
      dxz     :     0.785154
      dyz     :     0.804559
      dx2y2   :     0.785618
      dxy     :     0.657472
      f0      :     0.000022  f :     0.000093
      f+1     :     0.000033
      f-1     :     0.000019
      f+2     :     0.000010
      f-2     :     0.000022
      f+3     :    -0.000003
      f-3     :    -0.000010


                      *****************************
                      * MAYER POPULATION ANALYSIS *
                      *****************************

  NA   - Mulliken gross atomic population
  ZA   - Total nuclear charge
  QA   - Mulliken gross atomic charge
  VA   - Mayer's total valence
  BVA  - Mayer's bonded valence
  FA   - Mayer's free valence

  ATOM       NA         ZA         QA         VA         BVA        FA
  0 Au    18.8054    19.0000     0.1946     1.4233     1.4170     0.0063
  1 Au    18.6957    19.0000     0.3043     1.7213     1.7037     0.0176
  2 Au    18.8146    19.0000     0.1854     1.5613     1.5281     0.0332
  3 Au    18.9225    19.0000     0.0775     1.5217     1.4802     0.0416
  4 Au    18.8053    19.0000     0.1947     1.4225     1.4162     0.0063
  5 Au    18.6961    19.0000     0.3039     1.7214     1.7038     0.0176
  6 Au    18.9265    19.0000     0.0735     1.8492     1.8248     0.0244
  7 Au    18.6789    19.0000     0.3211     1.2234     1.2195     0.0039
  8 Au    18.5001    19.0000     0.4999     1.4325     1.4147     0.0178
  9 Au    18.6191    19.0000     0.3809     1.4310     1.4279     0.0031
 10 Au    18.5008    19.0000     0.4992     1.4333     1.4157     0.0177
 11 Au    18.6582    19.0000     0.3418     1.5489     1.5357     0.0132
 12 Au    18.9272    19.0000     0.0728     1.8505     1.8261     0.0245
 13 Au    18.6584    19.0000     0.3416     1.5488     1.5356     0.0132
 14 Cr    27.7911    24.0000    -3.7911    10.4702     6.7111     3.7591

  Mayer bond orders larger than 0.100000
B(  0-Au,  1-Au) :   0.2721 B(  0-Au,  3-Au) :   0.2377 B(  0-Au,  4-Au) :   0.1412 
B(  0-Au,  7-Au) :   0.2022 B(  0-Au, 12-Au) :   0.1522 B(  0-Au, 14-Cr) :   0.3989 
B(  1-Au,  2-Au) :   0.1398 B(  1-Au,  3-Au) :   0.1656 B(  1-Au, 10-Au) :   0.2103 
B(  1-Au, 14-Cr) :   0.6538 B(  2-Au,  3-Au) :   0.2427 B(  2-Au,  5-Au) :   0.1385 
B(  2-Au,  8-Au) :   0.1884 B(  2-Au, 10-Au) :   0.1887 B(  2-Au, 14-Cr) :   0.4912 
B(  3-Au,  4-Au) :   0.2377 B(  3-Au,  5-Au) :   0.1670 B(  3-Au, 14-Cr) :   0.4071 
B(  4-Au,  5-Au) :   0.2707 B(  4-Au,  6-Au) :   0.1521 B(  4-Au,  7-Au) :   0.2034 
B(  4-Au, 14-Cr) :   0.3982 B(  5-Au,  8-Au) :   0.2109 B(  5-Au, 14-Cr) :   0.6538 
B(  6-Au,  7-Au) :   0.2852 B(  6-Au, 12-Au) :   0.2508 B(  6-Au, 13-Au) :   0.3608 
B(  6-Au, 14-Cr) :   0.5014 B(  7-Au, 12-Au) :   0.2860 B(  7-Au, 14-Cr) :   0.1518 
B(  8-Au,  9-Au) :   0.1741 B(  8-Au, 13-Au) :   0.1336 B(  8-Au, 14-Cr) :   0.4980 
B(  9-Au, 10-Au) :   0.1745 B(  9-Au, 11-Au) :   0.2307 B(  9-Au, 13-Au) :   0.2312 
B(  9-Au, 14-Cr) :   0.3588 B( 10-Au, 11-Au) :   0.1335 B( 10-Au, 14-Cr) :   0.4981 
B( 11-Au, 12-Au) :   0.3614 B( 11-Au, 14-Cr) :   0.5999 B( 12-Au, 14-Cr) :   0.5013 
B( 13-Au, 14-Cr) :   0.5989 

-------
TIMINGS
-------

Total SCF time: 0 days 1 hours 55 min 27 sec 

Total time                  ....    6927.808 sec
Sum of individual times     ....    6875.280 sec  ( 99.2%)

Fock matrix formation       ....    5486.478 sec  ( 79.2%)
  Split-RI-J                ....     488.947 sec  (  8.9% of F)
  Chain of spheres X        ....    4097.820 sec  ( 74.7% of F)
  XC integration            ....     546.347 sec  ( 10.0% of F)
    Basis function eval.    ....      69.417 sec  ( 12.7% of XC)
    Density eval.           ....     226.402 sec  ( 41.4% of XC)
    XC-Functional eval.     ....      10.831 sec  (  2.0% of XC)
    XC-Potential eval.      ....     145.520 sec  ( 26.6% of XC)
Diagonalization             ....     572.119 sec  (  8.3%)
Density matrix formation    ....      23.804 sec  (  0.3%)
Population analysis         ....       2.988 sec  (  0.0%)
Initial guess               ....       0.727 sec  (  0.0%)
Orbital Transformation      ....       0.000 sec  (  0.0%)
Orbital Orthonormalization  ....       0.555 sec  (  0.0%)
DIIS solution               ....     775.700 sec  ( 11.2%)
Grid generation             ....      13.464 sec  (  0.2%)

Maximum memory used throughout the entire SCF-calculation: 147.7 MB


           ************************************************************
           *        Program running with 6 parallel MPI-processes     *
           *              working on a common directory               *
           ************************************************************

------------------------------------------------------------------------------
                                ORCA  MP2 
------------------------------------------------------------------------------

Freezing NCore=10 chemical core electrons

   <<< Use J-auxbasis for calculation of Separable RI-J derivative contributions (Dim=1335) >>> 


-------------
RI-MP2 ENERGY
-------------
Dimension of the basis                    ...  605
Memory devoted to MP2                     ...  256 MB   
Data format for buffers                   ... DOUBLE
Compression type for matrix containers    ... UNCOMPRESSED
Overall scaling of the MP2 energy         ...   2.700e-01
Calculating two index integrals           ... done (    0.119 sec)
Cholesky decomposition of V**-1           ... done (   29.707 sec)

-----------------
RI-TRANSFORMATION (AUX index driven)
-----------------

Dimension of the orbital-basis         ... 605
Dimension of the aux-basis             ... 2296
Transformation of internal/external MOs...    5- 145 to  146- 604
Number Format for Storage              ... Double (8 Byte)
Integral mode                          ... Direct

First Phase: integral generation and transformation of MO indices
  Aux angular momentum 0               ... done (    0.515 sec)
  Aux angular momentum 1               ... done (    1.057 sec)
  Aux angular momentum 2               ... done (    1.621 sec)
  Aux angular momentum 3               ... done (    1.447 sec)
  Aux angular momentum 4               ... done (    1.172 sec)
  Aux angular momentum 5               ... done (    1.186 sec)
Closing buffer VIA ( 1.11 GB; CompressionRatio= 1.00)
  Phase 1 completed in     7.569 sec
Second Phase: sorting and transformation of aux index

IA-Transformation
Memory available                       ... 164 MB 
Max. # MO pairs treated in a batch     ... 19    
# of internal orbitals                 ... 141
# batches for internal orbitals        ... 2
Closing buffer IAV ( 1.11 GB; CompressionRatio= 1.00)
(ia|v) transformation done in     7.304 sec

  Phase 2 completed in     7.727 sec
RI-Integral transformation completed in    15.356 sec

-----------------
RI-TRANSFORMATION (AUX index driven)
-----------------

Dimension of the orbital-basis         ... 605
Dimension of the aux-basis             ... 2296
Transformation of internal/external MOs...    5- 143 to  144- 604
Number Format for Storage              ... Double (8 Byte)
Integral mode                          ... Direct

First Phase: integral generation and transformation of MO indices
  Aux angular momentum 0               ... done (    0.531 sec)
  Aux angular momentum 1               ... done (    1.130 sec)
  Aux angular momentum 2               ... done (    1.467 sec)
  Aux angular momentum 3               ... done (    1.403 sec)
  Aux angular momentum 4               ... done (    1.310 sec)
  Aux angular momentum 5               ... done (    1.270 sec)
Closing buffer VIA ( 1.10 GB; CompressionRatio= 1.00)
  Phase 1 completed in     7.612 sec
Second Phase: sorting and transformation of aux index

IA-Transformation
Memory available                       ... 164 MB 
Max. # MO pairs treated in a batch     ... 19    
# of internal orbitals                 ... 139
# batches for internal orbitals        ... 2
Closing buffer IAV ( 1.10 GB; CompressionRatio= 1.00)
(ia|v) transformation done in     6.920 sec

  Phase 2 completed in     8.685 sec
RI-Integral transformation completed in    16.353 sec
Opening buffers                              ... done

Starting loop over batches of integrals:

Operator 0  - window                       ... (  5-145)x(146-604)
Operator 0  - Memory available             ...   256 MB
Operator 0  - Memory needed per MO         ...   8.0 MB
Operator 0  - Number of orbitals per batch ... 22
Operator 0  - Number of batches            ... 2

OPERATOR  0   PASS   0:  MOs     5 ...   26 +   27 ...   48 +   49 ...   70 +   71 ...   92
                            +   93 ...  114 +  115 ...  136
  Reading integrals       ... ok
  Internal MO   7
  Internal MO  10
  Internal MO  13
  Internal MO  16
  Internal MO  19
  Internal MO  22
  Internal MO  25
OPERATOR  0   PASS   1:  MOs   137 ...  138 +  139 ...  140 +  141 ...  142 +  143 ...  143
                            +  144 ...  144 +  145 ...  145
  Reading integrals       ... ok
  Internal MO 145

Operator 1  - window                       ... (  5-143)x(144-604)
Operator 1  - Memory available             ...   256 MB
Operator 1  - Memory needed per MO         ...   8.1 MB
Operator 1  - Number of orbitals per batch ... 22
Operator 1  - Number of batches            ... 2

OPERATOR  1   PASS   0:  MOs     5 ...   26 +   27 ...   48 +   49 ...   70 +   71 ...   92
                            +   93 ...  114 +  115 ...  136
  Reading integrals       ... ok
  Internal MO   7
  Internal MO  10
  Internal MO  13
  Internal MO  16
  Internal MO  19
  Internal MO  22
  Internal MO  25
OPERATOR  1   PASS   1:  MOs   137 ...  138 +  139 ...  139 +  140 ...  140 +  141 ...  141
                            +  142 ...  142 +  143 ...  143
  Reading integrals       ... ok
Time spent in pair loops =   659.439 sec
Deleting buffer (Ka|jb)[aa] ...done
Deleting buffer (Ka|jb)[ba] ...done
Deleting buffer (Ka|jb)[ab] ...done
Deleting buffer (Ka|jb)[bb] ...done

Correlation energy components}
 E2 and T2 for alpha/alpha pairs :     -0.425209367 Eh      0.000000000
 E2 and T2 for beta/beta   pairs :     -0.416899116 Eh      0.000000000
 E2 and T2 for alpha/beta  pairs :     -1.422979087 Eh      0.000000000


-----------------------------------------------
 RI-MP2 CORRELATION ENERGY:     -2.265087570 Eh
-----------------------------------------------


-------
TIMINGS
-------

Total time                :  733.864 sec
Integral trafo            :   31.745 sec (  4.3%)
I/O of integrals          :    0.416 sec (  0.1%)
K(i,j) Operators          :  357.423 sec ( 48.7%)
T(i,j) pair energies      :    8.571 sec (  1.2%)
V-calculation             :    0.119 sec (  0.0%)
V**(-1/2)                 :   29.707 sec (  4.0%)
Gamma(ia|P)               :    0.000 sec (  0.0%)
Gamma-Trafo               :    0.000 sec (  0.0%)
D(virtual)                :    0.000 sec (  0.0%)
D(internal)               :    0.000 sec (  0.0%)
W(virtual)                :    0.000 sec (  0.0%)
W(internal)               :    0.000 sec (  0.0%)
L(virtual)                :    0.000 sec (  0.0%)
L(internal)               :    0.000 sec (  0.0%)
G(D)                      :    0.000 sec (  0.0%)
G(Z)                      :    0.000 sec (  0.0%)
Z-Vector Solution         :    0.000 sec (  0.0%)
3-Index Derivative        :    0.000 sec (  0.0%)
2-Index Derivative        :    0.000 sec (  0.0%)
Separable Gradient (RIJ)  :    0.000 sec (  0.0%)
Separable Gradient (COSX) :    0.000 sec (  0.0%)


---------------------------------------
MP2 TOTAL ENERGY:    -2942.494982766 Eh
---------------------------------------

Maximum memory used throughout the entire MP2-calculation: 300.1 MB

-------------------------   --------------------
FINAL SINGLE POINT ENERGY     -2942.494982765916
-------------------------   --------------------


                            ***************************************
                            *     ORCA property calculations      *
                            ***************************************


  WARNING: The energy has been calculated at the MP2 level but the densities
           used in the property calculations are still SCF densities
           MP2 response densities have not been calculated 
           use %mp2 Density relaxed end
           or  %mp2 Density unrelaxed end

                                    ---------------------
                                    Active property flags
                                    ---------------------
   (+) Dipole Moment


------------------------------------------------------------------------------
                       ORCA ELECTRIC PROPERTIES CALCULATION
------------------------------------------------------------------------------

Dipole Moment Calculation                       ... on
Quadrupole Moment Calculation                   ... off
Polarizability Calculation                      ... off
GBWName                                         ... b2plyp_job2.gbw
Electron density                                ... b2plyp_job2.scfp
The origin for moment calculation is the CENTER OF MASS  = (13.003454, 14.556928 13.723560)

-------------
DIPOLE MOMENT
-------------
                                X             Y             Z
Electronic contribution:     11.19081     -18.52408     -19.65915
Nuclear contribution   :    -11.27451      18.64037      19.79442
                        -----------------------------------------
Total Dipole Moment    :     -0.08370       0.11629       0.13526
                        -----------------------------------------
Magnitude (a.u.)       :      0.19704
Magnitude (Debye)      :      0.50083



--------------------
Rotational spectrum 
--------------------
 
Rotational constants in cm-1:     0.001289     0.000890     0.000878 
Rotational constants in MHz :    38.654436    26.690810    26.325999 

 Dipole components along the rotational axes: 
x,y,z [a.u.] :     0.180005     0.080129    -0.001052 
x,y,z [Debye]:     0.457537     0.203671    -0.002675 

 

Timings for individual modules:

Sum of individual times         ...     7696.683 sec (= 128.278 min)
GTO integral calculation        ...       32.621 sec (=   0.544 min)   0.4 %
SCF iterations                  ...     6928.808 sec (= 115.480 min)  90.0 %
MP2 module                      ...      735.254 sec (=  12.254 min)   9.6 %



                             ****ORCA TERMINATED NORMALLY****
TOTAL RUN TIME: 0 days 2 hours 53 minutes 10 seconds 613 msec
