
                                 *****************
                                 * O   R   C   A *
                                 *****************

                                            #,                                       
                                            ###                                      
                                            ####                                     
                                            #####                                    
                                            ######                                   
                                           ########,                                 
                                     ,,################,,,,,                         
                               ,,#################################,,                 
                          ,,##########################################,,             
                       ,#########################################, ''#####,          
                    ,#############################################,,   '####,        
                  ,##################################################,,,,####,       
                ,###########''''           ''''###############################       
              ,#####''   ,,,,##########,,,,          '''####'''          '####       
            ,##' ,,,,###########################,,,                        '##       
           ' ,,###''''                  '''############,,,                           
         ,,##''                                '''############,,,,        ,,,,,,###''
      ,#''                                            '''#######################'''  
     '                                                          ''''####''''         
             ,#######,   #######,   ,#######,      ##                                
            ,#'     '#,  ##    ##  ,#'     '#,    #''#        ######   ,####,        
            ##       ##  ##   ,#'  ##            #'  '#       #        #'  '#        
            ##       ##  #######   ##           ,######,      #####,   #    #        
            '#,     ,#'  ##    ##  '#,     ,#' ,#      #,         ##   #,  ,#        
             '#######'   ##     ##  '#######'  #'      '#     #####' # '####'        



                  #######################################################
                  #                        -***-                        #
                  #          Department of theory and spectroscopy      #
                  #    Directorship and core code : Frank Neese         #
                  #        Max Planck Institute fuer Kohlenforschung    #
                  #                Kaiser Wilhelm Platz 1               #
                  #                 D-45470 Muelheim/Ruhr               #
                  #                      Germany                        #
                  #                                                     #
                  #                  All rights reserved                #
                  #                        -***-                        #
                  #######################################################


                         Program Version 5.0.3 -  RELEASE  -


 With contributions from (in alphabetic order):
   Daniel Aravena         : Magnetic Suceptibility
   Michael Atanasov       : Ab Initio Ligand Field Theory (pilot matlab implementation)
   Alexander A. Auer      : GIAO ZORA, VPT2 properties, NMR spectrum
   Ute Becker             : Parallelization
   Giovanni Bistoni       : ED, misc. LED, open-shell LED, HFLD
   Martin Brehm           : Molecular dynamics
   Dmytro Bykov           : SCF Hessian
   Vijay G. Chilkuri      : MRCI spin determinant printing, contributions to CSF-ICE
   Dipayan Datta          : RHF DLPNO-CCSD density
   Achintya Kumar Dutta   : EOM-CC, STEOM-CC
   Dmitry Ganyushin       : Spin-Orbit,Spin-Spin,Magnetic field MRCI
   Miquel Garcia          : C-PCM and meta-GGA Hessian, CC/C-PCM, Gaussian charge scheme
   Yang Guo               : DLPNO-NEVPT2, F12-NEVPT2, CIM, IAO-localization
   Andreas Hansen         : Spin unrestricted coupled pair/coupled cluster methods
   Benjamin Helmich-Paris : MC-RPA, TRAH-SCF, COSX integrals
   Lee Huntington         : MR-EOM, pCC
   Robert Izsak           : Overlap fitted RIJCOSX, COSX-SCS-MP3, EOM
   Marcus Kettner         : VPT2
   Christian Kollmar      : KDIIS, OOCD, Brueckner-CCSD(T), CCSD density, CASPT2, CASPT2-K
   Simone Kossmann        : Meta GGA functionals, TD-DFT gradient, OOMP2, MP2 Hessian
   Martin Krupicka        : Initial AUTO-CI
   Lucas Lang             : DCDCAS
   Marvin Lechner         : AUTO-CI (C++ implementation), FIC-MRCC
   Dagmar Lenk            : GEPOL surface, SMD
   Dimitrios Liakos       : Extrapolation schemes; Compound Job, initial MDCI parallelization
   Dimitrios Manganas     : Further ROCIS development; embedding schemes
   Dimitrios Pantazis     : SARC Basis sets
   Anastasios Papadopoulos: AUTO-CI, single reference methods and gradients
   Taras Petrenko         : DFT Hessian,TD-DFT gradient, ASA, ECA, R-Raman, ABS, FL, XAS/XES, NRVS
   Peter Pinski           : DLPNO-MP2, DLPNO-MP2 Gradient
   Christoph Reimann      : Effective Core Potentials
   Marius Retegan         : Local ZFS, SOC
   Christoph Riplinger    : Optimizer, TS searches, QM/MM, DLPNO-CCSD(T), (RO)-DLPNO pert. Triples
   Tobias Risthaus        : Range-separated hybrids, TD-DFT gradient, RPA, STAB
   Michael Roemelt        : Original ROCIS implementation
   Masaaki Saitow         : Open-shell DLPNO-CCSD energy and density
   Barbara Sandhoefer     : DKH picture change effects
   Avijit Sen             : IP-ROCIS
   Kantharuban Sivalingam : CASSCF convergence, NEVPT2, FIC-MRCI
   Bernardo de Souza      : ESD, SOC TD-DFT
   Georgi Stoychev        : AutoAux, RI-MP2 NMR, DLPNO-MP2 response
   Willem Van den Heuvel  : Paramagnetic NMR
   Boris Wezisla          : Elementary symmetry handling
   Frank Wennmohs         : Technical directorship


 We gratefully acknowledge several colleagues who have allowed us to
 interface, adapt or use parts of their codes:
   Stefan Grimme, W. Hujo, H. Kruse, P. Pracht,  : VdW corrections, initial TS optimization,
                  C. Bannwarth, S. Ehlert          DFT functionals, gCP, sTDA/sTD-DF
   Ed Valeev, F. Pavosevic, A. Kumar             : LibInt (2-el integral package), F12 methods
   Garnet Chan, S. Sharma, J. Yang, R. Olivares  : DMRG
   Ulf Ekstrom                                   : XCFun DFT Library
   Mihaly Kallay                                 : mrcc  (arbitrary order and MRCC methods)
   Jiri Pittner, Ondrej Demel                    : Mk-CCSD
   Frank Weinhold                                : gennbo (NPA and NBO analysis)
   Christopher J. Cramer and Donald G. Truhlar   : smd solvation model
   Lars Goerigk                                  : TD-DFT with DH, B97 family of functionals
   V. Asgeirsson, H. Jonsson                     : NEB implementation
   FAccTs GmbH                                   : IRC, NEB, NEB-TS, DLPNO-Multilevel, CI-OPT
                                                   MM, QMMM, 2- and 3-layer-ONIOM, Crystal-QMMM,
                                                   LR-CPCM, SF, NACMEs, symmetry and pop. for TD-DFT,
                                                   nearIR, NL-DFT gradient (VV10), updates on ESD,
                                                   ML-optimized integration grids
   S Lehtola, MJT Oliveira, MAL Marques          : LibXC Library
   Liviu Ungur et al                             : ANISO software


 Your calculation uses the libint2 library for the computation of 2-el integrals
 For citations please refer to: http://libint.valeyev.net

 Your ORCA version has been built with support for libXC version: 5.1.0
 For citations please refer to: https://tddft.org/programs/libxc/

 This ORCA versions uses:
   CBLAS   interface :  Fast vector & matrix operations
   LAPACKE interface :  Fast linear algebra routines
   SCALAPACK package :  Parallel linear algebra routines
   Shared memory     :  Shared parallel matrices
   BLAS/LAPACK       :  OpenBLAS 0.3.15  USE64BITINT DYNAMIC_ARCH NO_AFFINITY Sandybridge SINGLE_THREADED
        Core in use  :  Sandybridge
   Copyright (c) 2011-2014, The OpenBLAS Project




***************************************
The coordinates will be read from file: pbe.xyz
***************************************


================================================================================

cite the ECPs for Au [Def2-ECP] as follows:
Ce-Yb(ecp-28): M. Dolg, H. Stoll, H.Preuss, J. Chem. Phys., 1989, 90, 1730-1734.
Y-Cd(ecp-28), Hf-Hg(ecp-46): D. Andrae,U. Haeussermann, M. Dolg, H. Stoll, H. Preuss, Theor. Chim. Acta, 1990, 77, 123-141.
In-Sb(ecp-28), Tl-Bi(ecp-46): B. Metz, H. Stoll, M. Dolg, J. Chem. Phys., 2000, 113, 2563-2569.
Te-Xe(ecp-28), Po-Rn(ecp-46): K. A. Peterson, D. Figgen, E. Goll, H. Stoll, M. Dolg, J. Chem. Phys., 2003, 119, 11113-11123.
Rb(ecp-28), Cs(ecp-46): T. Leininger, A. Nicklass, W. Kuechle, H. Stoll, M. Dolg, A. Bergner, Chem. Phys. Lett., 1996, 255, 274-280.
Sr(ecp-28), Ba(ecp-46): M. Kaupp, P. V. Schleyer, H. Stoll and H. Preuss, J. Chem. Phys., 1991, 94, 1360-1366.
La(ecp-46): M. Dolg, H. Stoll, A. Savin, H. Preuss, Theor. Chim. Acta, 1989, 75, 173-194.
Lu(ecp-28): X. Cao, M. Dolg, J. Chem. Phys., 2001, 115, 7348-7355.

ECP parameters for Au [Def2-ECP] have been obtained from:
TURBOMOLE (7.0.2)

----- Orbital basis set information -----
Your calculation utilizes the basis: def2-TZVP
   F. Weigend and R. Ahlrichs, Phys. Chem. Chem. Phys. 7, 3297 (2005).

----- AuxJ basis set information -----
Your calculation utilizes the auxiliary basis: def2/J
   F. Weigend, Phys. Chem. Chem. Phys. 8, 1057 (2006).

----- AuxC basis set information -----
Your calculation utilizes the auxiliary basis: def2-TZVP/C
  H-La, Hf-Rn : A. Hellweg, C. Hattig, S. Hofener and W. Klopper, Theor. Chem. Acc. 117, 587 (2007).
        Ce-Lu : J. Chmela and M. E. Harding, Mol. Phys. (2018).

================================================================================
                                        WARNINGS
                       Please study these warnings very carefully!
================================================================================


INFO   : the flag for use of the SHARK integral package has been found!

================================================================================
                                       INPUT FILE
================================================================================
NAME = casscf.inp
|  1> !CASSCF def2-TZVP def2-TZVP/C
|  2> !MOREAD RIJCOSX
|  3> %maxcore 6000
|  4> %moinp "pbe.qro"
|  5> %pal nprocs 2 end 
|  6> 
|  7> %casscf
|  8>  mult 5,3
|  9>  bweight 1,1
| 10>  nroots 5,45
| 11>  nel 6
| 12>  norb 5
| 13> end
| 14> 
| 15> 
| 16> *xyzfile 0 5 pbe.xyz
| 17> 
| 18> 
| 19>                          ****END OF INPUT****
================================================================================

                       ****************************
                       * Single Point Calculation *
                       ****************************

---------------------------------
CARTESIAN COORDINATES (ANGSTROEM)
---------------------------------
  Au     6.029159    5.985135    8.200795
  Au     6.735772    8.319751    6.729576
  Au     6.207776    8.269865    9.646008
  Au     6.824230    3.688658    6.919889
  Au     8.209965    5.946300    6.187802
  Au     9.683936    8.205883    6.445952
  Au    10.039245    6.109177   10.347350
  Au    10.758792    8.592988    8.902349
  Au    11.211308    8.239674   11.589825
  Au     8.575700    8.623227   10.913862
  Au     8.308418    9.953230    8.408998
  Au     8.581044    4.598664    8.800915
  Fe     8.414923    7.241966    8.574389

----------------------------
CARTESIAN COORDINATES (A.U.)
----------------------------
  NO LB      ZA    FRAG     MASS         X           Y           Z
   0 Au   19.0000*   0   196.966   11.393460   11.310266   15.497256
   1 Au   19.0000*   0   196.966   12.728765   15.722051   12.717056
   2 Au   19.0000*   0   196.966   11.730996   15.627780   18.228314
   3 Au   19.0000*   0   196.966   12.895926    6.970554   13.076694
   4 Au   19.0000*   0   196.966   15.514586   11.236878   11.693252
   5 Au   19.0000*   0   196.966   18.299988   15.506872   12.181083
   6 Au   19.0000*   0   196.966   18.971423   11.544672   19.553658
   7 Au   19.0000*   0   196.966   20.331170   16.238394   16.823002
   8 Au   19.0000*   0   196.966   21.186303   15.570727   21.901595
   9 Au   19.0000*   0   196.966   16.205724   16.295538   20.624210
  10 Au   19.0000*   0   196.966   15.700635   18.808878   15.890703
  11 Au   19.0000*   0   196.966   16.215823    8.690216   16.631319
  12 Fe   26.0000    0    55.850   15.901900   13.685332   16.203247
* core charge reduced due to ECP

--------------------------------
INTERNAL COORDINATES (ANGSTROEM)
--------------------------------
 Au     0   0   0     0.000000000000     0.00000000     0.00000000
 Au     1   0   0     2.848547086191     0.00000000     0.00000000
 Au     1   2   0     2.709342938620    64.40615188     0.00000000
 Au     1   2   3     2.747119069571   111.87120808   202.42768032
 Au     4   1   2     2.748301105422    65.38124537    22.27088287
 Au     5   4   1     2.710156666939   159.02714981    53.18067157
 Au     6   5   4     4.443346916893    74.55580500    15.44472439
 Au     6   5   4     2.709068536948   114.91611793    12.03344281
 Au     7   6   5     2.730657875204    93.76540345   190.80065778
 Au     3   1   2     2.709129083471   114.66116020   263.11612741
 Au     2   1   3     2.821688532576   107.77686678    34.17643205
 Au     7   6   5     2.607577553786    73.01684164     1.83005467
 Fe     7   6   5     2.658010787866    33.31754391   299.79773253

---------------------------
INTERNAL COORDINATES (A.U.)
---------------------------
 Au     0   0   0     0.000000000000     0.00000000     0.00000000
 Au     1   0   0     5.382973872480     0.00000000     0.00000000
 Au     1   2   0     5.119916156865    64.40615188     0.00000000
 Au     1   2   3     5.191302698761   111.87120808   202.42768032
 Au     4   1   2     5.193536422801    65.38124537    22.27088287
 Au     5   4   1     5.121453880535   159.02714981    53.18067157
 Au     6   5   4     8.396708790930    74.55580500    15.44472439
 Au     6   5   4     5.119397612854   114.91611793    12.03344281
 Au     7   6   5     5.160195549571    93.76540345   190.80065778
 Au     3   1   2     5.119512029201   114.66116020   263.11612741
 Au     2   1   3     5.332218561795   107.77686678    34.17643205
 Au     7   6   5     4.927607449615    73.01684164     1.83005467
 Fe     7   6   5     5.022912450075    33.31754391   299.79773253

---------------------
BASIS SET INFORMATION
---------------------
There are 2 groups of distinct atoms

 Group   1 Type Au  : 8s7p6d1f contracted to 6s4p3d1f pattern {311111/4111/411/1}
 Group   2 Type Fe  : 17s11p7d1f contracted to 6s4p4d1f pattern {842111/6311/4111/1}

Atom   0Au   basis set group =>   1
Atom   1Au   basis set group =>   1
Atom   2Au   basis set group =>   1
Atom   3Au   basis set group =>   1
Atom   4Au   basis set group =>   1
Atom   5Au   basis set group =>   1
Atom   6Au   basis set group =>   1
Atom   7Au   basis set group =>   1
Atom   8Au   basis set group =>   1
Atom   9Au   basis set group =>   1
Atom  10Au   basis set group =>   1
Atom  11Au   basis set group =>   1
Atom  12Fe   basis set group =>   2
---------------------------------
AUXILIARY/J BASIS SET INFORMATION
---------------------------------
There are 2 groups of distinct atoms

 Group   1 Type Au  : 11s5p5d3f3g contracted to 8s5p5d2f3g pattern {41111111/11111/11111/21/111}
 Group   2 Type Fe  : 19s5p5d3f3g contracted to 8s5p5d2f3g pattern {121111111/11111/11111/21/111}

Atom   0Au   basis set group =>   1
Atom   1Au   basis set group =>   1
Atom   2Au   basis set group =>   1
Atom   3Au   basis set group =>   1
Atom   4Au   basis set group =>   1
Atom   5Au   basis set group =>   1
Atom   6Au   basis set group =>   1
Atom   7Au   basis set group =>   1
Atom   8Au   basis set group =>   1
Atom   9Au   basis set group =>   1
Atom  10Au   basis set group =>   1
Atom  11Au   basis set group =>   1
Atom  12Fe   basis set group =>   2
---------------------------------
AUXILIARY/C BASIS SET INFORMATION
---------------------------------
There are 2 groups of distinct atoms

 Group   1 Type Au  : 8s8p7d5f3g2h contracted to 8s8p7d5f3g2h pattern {11111111/11111111/1111111/11111/111/11}
 Group   2 Type Fe  : 11s9p8d6f5g2h contracted to 9s8p8d6f5g2h pattern {311111111/21111111/11111111/111111/11111/11}

Atom   0Au   basis set group =>   1
Atom   1Au   basis set group =>   1
Atom   2Au   basis set group =>   1
Atom   3Au   basis set group =>   1
Atom   4Au   basis set group =>   1
Atom   5Au   basis set group =>   1
Atom   6Au   basis set group =>   1
Atom   7Au   basis set group =>   1
Atom   8Au   basis set group =>   1
Atom   9Au   basis set group =>   1
Atom  10Au   basis set group =>   1
Atom  11Au   basis set group =>   1
Atom  12Fe   basis set group =>   2
-------------------------
ECP PARAMETER INFORMATION
-------------------------

 Group 1, Type Au ECP Def2-ECP (replacing 60 core electrons, lmax=3)

Atom   0Au   ECP group =>   1
Atom   1Au   ECP group =>   1
Atom   2Au   ECP group =>   1
Atom   3Au   ECP group =>   1
Atom   4Au   ECP group =>   1
Atom   5Au   ECP group =>   1
Atom   6Au   ECP group =>   1
Atom   7Au   ECP group =>   1
Atom   8Au   ECP group =>   1
Atom   9Au   ECP group =>   1
Atom  10Au   ECP group =>   1
Atom  11Au   ECP group =>   1



           ************************************************************
           *        Program running with 2 parallel MPI-processes     *
           *              working on a common directory               *
           ************************************************************
------------------------------------------------------------------------------
                           ORCA GTO INTEGRAL CALCULATION
                           -- RI-GTO INTEGRALS CHOSEN --
------------------------------------------------------------------------------
------------------------------------------------------------------------------
                   ___                                                        
                  /   \      - P O W E R E D   B Y -                         
                 /     \                                                     
                 |  |  |   _    _      __       _____    __    __             
                 |  |  |  | |  | |    /  \     |  _  \  |  |  /  |          
                  \  \/   | |  | |   /    \    | | | |  |  | /  /          
                 / \  \   | |__| |  /  /\  \   | |_| |  |  |/  /          
                |  |  |   |  __  | /  /__\  \  |    /   |      \           
                |  |  |   | |  | | |   __   |  |    \   |  |\   \          
                \     /   | |  | | |  |  |  |  | |\  \  |  | \   \       
                 \___/    |_|  |_| |__|  |__|  |_| \__\ |__|  \__/        
                                                                              
                      - O R C A' S   B I G   F R I E N D -                    
                                      &                                       
                       - I N T E G R A L  F E E D E R -                       
                                                                              
 v1 FN, 2020, v2 2021                                                         
------------------------------------------------------------------------------


Reading SHARK input file casscf.SHARKINP.tmp ... ok
----------------------
SHARK INTEGRAL PACKAGE
----------------------

Number of atoms                             ...     13
Number of basis functions                   ...    525
Number of shells                            ...    183
Maximum angular momentum                    ...      3
Integral batch strategy                     ... SHARK/LIBINT Hybrid
RI-J (if used) integral strategy            ... SPLIT-RIJ (Revised 2003 algorithm where possible)
Printlevel                                  ...      1
Contraction scheme used                     ... SEGMENTED contraction
Coulomb Range Separation                    ... NOT USED
Exchange Range Separation                   ... NOT USED
Finite Nucleus Model                        ... NOT USED
Auxiliary Coulomb fitting basis             ... AVAILABLE
   # of basis functions in Aux-J            ...   1157
   # of shells in Aux-J                     ...    299
   Maximum angular momentum in Aux-J        ...      4
Auxiliary J/K fitting basis                 ... NOT available
Auxiliary Correlation fitting basis         ... AVAILABLE
   # of basis functions in Aux-C            ...   1994
   # of shells in Aux-C                     ...    434
   Maximum angular momentum in Aux-C        ...      5
Auxiliary 'external' fitting basis          ... NOT available
Integral threshold                          ...     1.000000e-10
Primitive cut-off                           ...     1.000000e-11
Primitive pair pre-selection threshold      ...     1.000000e-11

Calculating pre-screening integrals         ... done (  0.5 sec) Dimension = 183
Organizing shell pair data                  ... done (  0.6 sec)
Shell pair information
Total number of shell pairs                 ...     16836
Shell pairs after pre-screening             ...     13580
Total number of primitive shell pairs       ...     45389
Primitive shell pairs kept                  ...     26725
          la=0 lb=0:   2138 shell pairs
          la=1 lb=0:   3122 shell pairs
          la=1 lb=1:   1155 shell pairs
          la=2 lb=0:   2704 shell pairs
          la=2 lb=1:   1890 shell pairs
          la=2 lb=2:    783 shell pairs
          la=3 lb=0:    706 shell pairs
          la=3 lb=1:    540 shell pairs
          la=3 lb=2:    468 shell pairs
          la=3 lb=3:     74 shell pairs

Calculating one electron integrals          ... done (  0.1 sec)
Calculating ECP integrals                   ... done ( 35.2 sec)
Calculating RI/J V-Matrix + Cholesky decomp.... done (  1.4 sec)
Calculating RI/C V-Matrix + Cholesky decomp.... done (  3.7 sec)
Calculating Nuclear repulsion               ... done (  0.0 sec) ENN=   4361.629579434599 Eh

SHARK setup successfully completed in  42.7 seconds

Maximum memory used throughout the entire GTOINT-calculation: 69.3 MB


           ************************************************************
           *        Program running with 2 parallel MPI-processes     *
           *              working on a common directory               *
           ************************************************************
-------------------------------------------------------------------------------
                                 ORCA SCF
-------------------------------------------------------------------------------

------------
SCF SETTINGS
------------
Hamiltonian:
 Ab initio Hamiltonian  Method          .... Hartree-Fock(GTOs)
 RI-approximation to the Coulomb term is turned on
   Number of AuxJ basis functions       .... 1157
   RIJ-COSX (HFX calculated with COS-X)).... on


General Settings:
 Integral files         IntName         .... casscf
 Hartree-Fock type      HFTyp           .... CASSCF
 Total Charge           Charge          ....    0
 Multiplicity           Mult            ....    5
 Number of Electrons    NEL             ....  254
 Basis Dimension        Dim             ....  525
 Nuclear Repulsion      ENuc            ....   4361.6295794346 Eh


Diagonalization of the overlap matrix:
Smallest eigenvalue                        ... 4.486e-04
Time for diagonalization                   ...    0.283 sec
Threshold for overlap eigenvalues          ... 1.000e-08
Number of eigenvalues below threshold      ... 0
Time for construction of square roots      ...    0.184 sec
Total time needed                          ...    0.482 sec

---------------------
INITIAL GUESS: MOREAD
---------------------
Guess MOs are being read from file: pbe.qro
Input Geometry matches current geometry (good)
Input basis set matches current basis set (good)
MOs were renormalized
Gram-Schmidt orthogonalization of all MOs with pivot on actives
                      ------------------
                      INITIAL GUESS DONE (  14.8 sec)
                      ------------------
--------------------
COSX GRID GENERATION
--------------------

GRIDX 1
-------
General Integration Accuracy     IntAcc      ... 3.816
Radial Grid Type                 RadialGrid  ... OptM3 with GC (2021)
Angular Grid (max. ang.)         AngularGrid ... 1 (Lebedev-50)
Angular grid pruning method      GridPruning ... 4 (adaptive)
Weight generation scheme         WeightScheme... Becke
Basis function cutoff            BFCut       ... 1.0000e-10
Integration weight cutoff        WCut        ... 1.0000e-14
Angular grids for H and He will be reduced by one unit
Partially contracted basis set               ... on
Rotationally invariant grid construction     ... off

Total number of grid points                  ...    15231
Total number of batches                      ...      246
Average number of points per batch           ...       61
Average number of grid points per atom       ...     1172
UseSFitting                                  ... on

GRIDX 2
-------
General Integration Accuracy     IntAcc      ... 4.020
Radial Grid Type                 RadialGrid  ... OptM3 with GC (2021)
Angular Grid (max. ang.)         AngularGrid ... 2 (Lebedev-110)
Angular grid pruning method      GridPruning ... 4 (adaptive)
Weight generation scheme         WeightScheme... Becke
Basis function cutoff            BFCut       ... 1.0000e-10
Integration weight cutoff        WCut        ... 1.0000e-14
Angular grids for H and He will be reduced by one unit
Partially contracted basis set               ... on
Rotationally invariant grid construction     ... off

Total number of grid points                  ...    46183
Total number of batches                      ...      728
Average number of points per batch           ...       63
Average number of grid points per atom       ...     3553
UseSFitting                                  ... on

GRIDX 3
-------
General Integration Accuracy     IntAcc      ... 4.338
Radial Grid Type                 RadialGrid  ... OptM3 with GC (2021)
Angular Grid (max. ang.)         AngularGrid ... 3 (Lebedev-194)
Angular grid pruning method      GridPruning ... 4 (adaptive)
Weight generation scheme         WeightScheme... Becke
Basis function cutoff            BFCut       ... 1.0000e-10
Integration weight cutoff        WCut        ... 1.0000e-14
Angular grids for H and He will be reduced by one unit
Partially contracted basis set               ... on
Rotationally invariant grid construction     ... off

Total number of grid points                  ...    84507
Total number of batches                      ...     1327
Average number of points per batch           ...       63
Average number of grid points per atom       ...     6501
UseSFitting                                  ... on

Time for X-Grid setup             =   14.670 sec



 ... the calculation is a CASSCF calculation -I'm leaving here GOOD LUCK!!!



           ************************************************************
           *        Program running with 2 parallel MPI-processes     *
           *              working on a common directory               *
           ************************************************************
-------------------------------------------------------------------------------
                              ORCA-CASSCF
-------------------------------------------------------------------------------

Setting up the integral package       ... done
Setting up the integral package (RI)  ... done
Building the CAS space                ... done (5 configurations for Mult=5)
Building the CAS space                ... done (35 configurations for Mult=3)

SYSTEM-SPECIFIC SETTINGS:
Number of active electrons          ...    6
Number of active orbitals           ...    5
Total number of electrons           ...  254
Total number of orbitals            ...  525
Total number aux. functions         ... 1994

Determined orbital ranges:
   Internal       0 -  123 ( 124 orbitals)
   Active       124 -  128 (   5 orbitals)
   External     129 -  524 ( 396 orbitals)
Number of rotation parameters      ...  51704

CI-STEP:
CI strategy                         ... General CI
Number of multiplicity blocks       ...    2
BLOCK  1 WEIGHT=   0.5000
  Multiplicity                      ...    5
  #(Configurations)                 ...    5
  #(CSFs)                           ...    5
  #(Roots)                          ...    5
    ROOT=0 WEIGHT=    0.100000
    ROOT=1 WEIGHT=    0.100000
    ROOT=2 WEIGHT=    0.100000
    ROOT=3 WEIGHT=    0.100000
    ROOT=4 WEIGHT=    0.100000

BLOCK  2 WEIGHT=   0.5000
  Multiplicity                      ...    3
  #(Configurations)                 ...   35
  #(CSFs)                           ...   45
  #(Roots)                          ...   45
    ROOT=0 WEIGHT=    0.011111
    ROOT=1 WEIGHT=    0.011111
    ROOT=2 WEIGHT=    0.011111
    ROOT=3 WEIGHT=    0.011111
    ROOT=4 WEIGHT=    0.011111
    ROOT=5 WEIGHT=    0.011111
    ROOT=6 WEIGHT=    0.011111
    ROOT=7 WEIGHT=    0.011111
    ROOT=8 WEIGHT=    0.011111
    ROOT=9 WEIGHT=    0.011111
    ROOT=10 WEIGHT=    0.011111
    ROOT=11 WEIGHT=    0.011111
    ROOT=12 WEIGHT=    0.011111
    ROOT=13 WEIGHT=    0.011111
    ROOT=14 WEIGHT=    0.011111
    ROOT=15 WEIGHT=    0.011111
    ROOT=16 WEIGHT=    0.011111
    ROOT=17 WEIGHT=    0.011111
    ROOT=18 WEIGHT=    0.011111
    ROOT=19 WEIGHT=    0.011111
    ROOT=20 WEIGHT=    0.011111
    ROOT=21 WEIGHT=    0.011111
    ROOT=22 WEIGHT=    0.011111
    ROOT=23 WEIGHT=    0.011111
    ROOT=24 WEIGHT=    0.011111
    ROOT=25 WEIGHT=    0.011111
    ROOT=26 WEIGHT=    0.011111
    ROOT=27 WEIGHT=    0.011111
    ROOT=28 WEIGHT=    0.011111
    ROOT=29 WEIGHT=    0.011111
    ROOT=30 WEIGHT=    0.011111
    ROOT=31 WEIGHT=    0.011111
    ROOT=32 WEIGHT=    0.011111
    ROOT=33 WEIGHT=    0.011111
    ROOT=34 WEIGHT=    0.011111
    ROOT=35 WEIGHT=    0.011111
    ROOT=36 WEIGHT=    0.011111
    ROOT=37 WEIGHT=    0.011111
    ROOT=38 WEIGHT=    0.011111
    ROOT=39 WEIGHT=    0.011111
    ROOT=40 WEIGHT=    0.011111
    ROOT=41 WEIGHT=    0.011111
    ROOT=42 WEIGHT=    0.011111
    ROOT=43 WEIGHT=    0.011111
    ROOT=44 WEIGHT=    0.011111

  PrintLevel                        ...    1
  N(GuessMat)                       ...       512
  MaxDim(CI)                        ...        10
  MaxIter(CI)                       ...        64
  Energy Tolerance CI               ...  1.00e-08
  Residual Tolerance CI             ...  1.00e-08
  Shift(CI)                         ...  1.00e-04

INTEGRAL-TRANSFORMATION-STEP:
  Algorithm                         ... RI-MO

ORBITAL-IMPROVEMENT-STEP:
  Algorithm                         ... SuperCI(PT)
  Default Parametrization           ... CAYLEY
  Act-Act rotations                 ... depends on algorithm used

  Note: SuperCI(PT) will ignore FreezeIE, FreezeAct and FreezeGrad. In general Default settings are encouraged.
        In conjunction with ShiftUp, ShiftDn or GradScaling the performance of SuperCI(PT) is less optimal.  

  MaxRot                            ... 2.00e-01 
  Max. no of vectors (DIIS)         ... 15
  DThresh (cut-off) metric          ... 1.00e-06
  Switch step at gradient           ...  3.00e-02 
  Switch step at iteration          ...        50   
  Switch step to                    ... SuperCI(PT)    

SCF-SETTINGS:
  Incremental                       ... off
  RIJCOSX approximation             ... on
  UseFinalGrid                      ... on
  RI-JK approximation               ... off
  AO integral handling              ... DIRECT
  Integral Neglect Thresh           ...  1.00e-10
  Primitive cutoff TCut             ...  1.00e-11
  Energy convergence tolerance      ...  1.00e-07
  Orbital gradient convergence      ...  1.00e-03
  Max. number of iterations         ...        75  


FINAL ORBITALS:
  Active   Orbitals                 ... natural 
  Internal Orbitals                 ... canonical 
  External Orbitals                 ... canonical 

------------------
CAS-SCF ITERATIONS
------------------


MACRO-ITERATION   1: 
   --- Inactive Energy E0 = -2870.19766538 Eh
CI-ITERATION   0: 
 -2879.595176401   0.000000000000 (    0.00)
 -2879.589238093   0.000000000000
 -2879.572658911   0.000000000000
 -2879.559795730   0.000000000000
 -2879.541098591   0.000000000000
   CI-PROBLEM SOLVED
   DENSITIES MADE
CI-ITERATION   0: 
 -2879.567974002   0.000000000000 (    0.04)
 -2879.564042834   0.000000000000
 -2879.555253064   0.000000000000
 -2879.553551959   0.000000000000
 -2879.547356522   0.000000000000
 -2879.540203116   0.000000000000
 -2879.539679943   0.000000000000
 -2879.539525814   0.000000000000
 -2879.536441151   0.000000000000
 -2879.527948761   0.000000000000
 -2879.527890375   0.000000000000
 -2879.525808654   0.000000000000
 -2879.524399767   0.000000000000
 -2879.523675277   0.000000000000
 -2879.520195390   0.000000000000
 -2879.516268731   0.000000000000
 -2879.516170485   0.000000000000
 -2879.503095674   0.000000000000
 -2879.501620125   0.000000000000
 -2879.500491729   0.000000000000
 -2879.497312088   0.000000000000
 -2879.495742719   0.000000000000
 -2879.495436265   0.000000000000
 -2879.486531859   0.000000000000
 -2879.485317808   0.000000000000
 -2879.484126981   0.000000000000
 -2879.473529160   0.000000000000
 -2879.472088148   0.000000000000
 -2879.471290383   0.000000000000
 -2879.469901793   0.000000000000
 -2879.461242477   0.000000000000
 -2879.461078783   0.000000000000
 -2879.459330768   0.000000000000
 -2879.450945975   0.000000000000
 -2879.431652930   0.000000000000
 -2879.430313277   0.000000000000
 -2879.426905400   0.000000000000
 -2879.423979411   0.000000000000
 -2879.418316217   0.000000000000
 -2879.411005909   0.000000000000
 -2879.402172299   0.000000000000
 -2879.388792903   0.000000000000
 -2879.331176957   0.000000000000
 -2879.317168382   0.000000000000
 -2879.313402350   0.000000000000
   CI-PROBLEM SOLVED
   DENSITIES MADE

                 <<<<<<<<<<<<<<<<<<INITIAL CI STATE CHECK>>>>>>>>>>>>>>>>>>

BLOCK  1 MULT= 5 NROOTS= 5 
ROOT   0:  E=   -2879.5951764013 Eh
      0.99998 [     3]: 12111
ROOT   1:  E=   -2879.5892380933 Eh  0.162 eV   1303.3 cm**-1
      0.99999 [     1]: 11121
ROOT   2:  E=   -2879.5726589108 Eh  0.613 eV   4942.0 cm**-1
      0.77471 [     4]: 21111
      0.22528 [     2]: 11211
ROOT   3:  E=   -2879.5597957300 Eh  0.963 eV   7765.2 cm**-1
      0.77472 [     2]: 11211
      0.22527 [     4]: 21111
ROOT   4:  E=   -2879.5410985913 Eh  1.472 eV  11868.7 cm**-1
      0.99999 [     0]: 11112

BLOCK  2 MULT= 3 NROOTS=45 
ROOT   0:  E=   -2879.5679740015 Eh
      0.91875 [    18]: 12111
      0.05666 [     0]: 01122
      0.01697 [    29]: 21120
      0.00314 [    14]: 11220
      0.00266 [    12]: 11202
ROOT   1:  E=   -2879.5640428341 Eh  0.107 eV    862.8 cm**-1
      0.72700 [    11]: 11121
      0.24702 [     3]: 02112
      0.02285 [    34]: 22110
ROOT   2:  E=   -2879.5552530638 Eh  0.346 eV   2791.9 cm**-1
      0.56822 [     3]: 02112
      0.33428 [    11]: 11121
      0.08727 [    34]: 22110
      0.00391 [     2]: 01221
ROOT   3:  E=   -2879.5535519591 Eh  0.392 eV   3165.3 cm**-1
      0.74740 [    18]: 12111
      0.21068 [     0]: 01122
      0.03158 [     5]: 02211
      0.00545 [    29]: 21120
ROOT   4:  E=   -2879.5473565216 Eh  0.561 eV   4525.0 cm**-1
      0.82913 [    11]: 11121
      0.13089 [     3]: 02112
      0.01544 [    26]: 21021
      0.01439 [    34]: 22110
      0.00725 [     2]: 01221
ROOT   5:  E=   -2879.5402031160 Eh  0.756 eV   6095.0 cm**-1
      0.79601 [    16]: 12021
      0.12177 [    20]: 12201
      0.02902 [     8]: 10221
      0.02646 [     4]: 02121
      0.01461 [    10]: 11112
      0.00691 [     1]: 01212
      0.00445 [    33]: 22101
ROOT   6:  E=   -2879.5396799434 Eh  0.770 eV   6209.8 cm**-1
      0.38982 [     0]: 01122
      0.30886 [    29]: 21120
      0.26532 [    18]: 12111
      0.02470 [     5]: 02211
      0.00549 [     9]: 11022
ROOT   7:  E=   -2879.5395258139 Eh  0.774 eV   6243.7 cm**-1
      0.58061 [    28]: 21111
      0.40595 [    13]: 11211
      0.00454 [    17]: 12102
      0.00385 [    19]: 12120
ROOT   8:  E=   -2879.5364411510 Eh  0.858 eV   6920.7 cm**-1
      0.86773 [    18]: 12111
      0.06539 [     0]: 01122
      0.03874 [    29]: 21120
      0.01395 [    32]: 22011
      0.00964 [    12]: 11202
ROOT   9:  E=   -2879.5279487606 Eh  1.089 eV   8784.5 cm**-1
      0.56973 [    13]: 11211
      0.38886 [    28]: 21111
      0.02411 [    19]: 12120
      0.01030 [     4]: 02121
      0.00285 [     6]: 10122
ROOT  10:  E=   -2879.5278903750 Eh  1.091 eV   8797.3 cm**-1
      0.78017 [     4]: 02121
      0.14170 [     1]: 01212
      0.02141 [    16]: 12021
      0.01151 [    20]: 12201
      0.01078 [    31]: 21210
      0.00931 [    33]: 22101
      0.00849 [    23]: 20121
      0.00751 [    13]: 11211
      0.00518 [    28]: 21111
ROOT  11:  E=   -2879.5258086543 Eh  1.147 eV   9254.2 cm**-1
      0.92215 [    13]: 11211
      0.04524 [    28]: 21111
      0.03139 [    19]: 12120
ROOT  12:  E=   -2879.5243997669 Eh  1.186 eV   9563.4 cm**-1
      0.60564 [    29]: 21120
      0.25228 [     0]: 01122
      0.09597 [    18]: 12111
      0.01539 [     5]: 02211
      0.00924 [    24]: 20211
      0.00584 [    27]: 21102
      0.00573 [    14]: 11220
      0.00509 [     9]: 11022
      0.00408 [    32]: 22011
ROOT  13:  E=   -2879.5236752770 Eh  1.205 eV   9722.4 cm**-1
      0.46971 [    11]: 11121
      0.44405 [    34]: 22110
      0.02345 [     3]: 02112
      0.02154 [    26]: 21021
      0.01414 [    30]: 21201
      0.01251 [    15]: 12012
      0.00753 [    21]: 12210
      0.00346 [     7]: 10212
ROOT  14:  E=   -2879.5201953897 Eh  1.300 eV  10486.2 cm**-1
      0.78727 [    31]: 21210
      0.07870 [    20]: 12201
      0.06220 [     1]: 01212
      0.03264 [     4]: 02121
      0.02672 [     8]: 10221
      0.00431 [    23]: 20121
      0.00376 [    16]: 12021
      0.00332 [    10]: 11112
ROOT  15:  E=   -2879.5162687314 Eh  1.407 eV  11348.0 cm**-1
      0.33973 [    20]: 12201
      0.17693 [    11]: 11121
      0.12771 [    34]: 22110
      0.09487 [    33]: 22101
      0.07852 [    31]: 21210
      0.05211 [     8]: 10221
      0.04614 [    16]: 12021
      0.01804 [     1]: 01212
      0.01725 [    10]: 11112
      0.01707 [    26]: 21021
      0.00819 [    21]: 12210
      0.00686 [    23]: 20121
      0.00590 [    30]: 21201
      0.00541 [     3]: 02112
ROOT  16:  E=   -2879.5161704852 Eh  1.410 eV  11369.6 cm**-1
      0.33940 [    11]: 11121
      0.23661 [    34]: 22110
      0.17436 [    20]: 12201
      0.04989 [    33]: 22101
      0.04682 [    31]: 21210
      0.03336 [    26]: 21021
      0.02811 [     8]: 10221
      0.02548 [    16]: 12021
      0.01490 [    21]: 12210
      0.01206 [    30]: 21201
      0.01001 [     3]: 02112
      0.00877 [    10]: 11112
      0.00865 [     1]: 01212
      0.00312 [    23]: 20121
      0.00251 [     7]: 10212
ROOT  17:  E=   -2879.5030956741 Eh  1.765 eV  14239.1 cm**-1
      0.69921 [    13]: 11211
      0.28450 [    28]: 21111
      0.01372 [    17]: 12102
ROOT  18:  E=   -2879.5016201252 Eh  1.806 eV  14563.0 cm**-1
      0.45212 [    10]: 11112
      0.29594 [     1]: 01212
      0.08968 [    20]: 12201
      0.06473 [    23]: 20121
      0.03973 [     4]: 02121
      0.03432 [     8]: 10221
      0.01513 [    31]: 21210
      0.00520 [    25]: 21012
ROOT  19:  E=   -2879.5004917293 Eh  1.836 eV  14810.6 cm**-1
      0.81867 [    28]: 21111
      0.15746 [    13]: 11211
      0.01817 [    17]: 12102
      0.00365 [     6]: 10122
ROOT  20:  E=   -2879.4973120882 Eh  1.923 eV  15508.5 cm**-1
      0.55856 [    26]: 21021
      0.33874 [    30]: 21201
      0.04893 [    11]: 11121
      0.01907 [     2]: 01221
      0.01627 [    34]: 22110
      0.01266 [    15]: 12012
      0.00313 [    21]: 12210
ROOT  21:  E=   -2879.4957427195 Eh  1.966 eV  15852.9 cm**-1
      0.59120 [    23]: 20121
      0.18111 [    33]: 22101
      0.10897 [     1]: 01212
      0.05325 [     8]: 10221
      0.02232 [    31]: 21210
      0.02014 [     4]: 02121
      0.01051 [    10]: 11112
      0.00830 [    20]: 12201
ROOT  22:  E=   -2879.4954362651 Eh  1.974 eV  15920.2 cm**-1
      0.61290 [     5]: 02211
      0.25808 [    32]: 22011
      0.06643 [    24]: 20211
      0.03825 [    18]: 12111
      0.01534 [     9]: 11022
      0.00396 [    14]: 11220
ROOT  23:  E=   -2879.4865318585 Eh  2.216 eV  17874.5 cm**-1
      0.55561 [    10]: 11112
      0.30480 [     1]: 01212
      0.05111 [     4]: 02121
      0.03517 [    23]: 20121
      0.03196 [     8]: 10221
      0.01536 [    31]: 21210
      0.00411 [    25]: 21012
ROOT  24:  E=   -2879.4853178084 Eh  2.249 eV  18140.9 cm**-1
      0.81274 [    28]: 21111
      0.13625 [    13]: 11211
      0.03136 [     6]: 10122
      0.01054 [    17]: 12102
      0.00830 [    19]: 12120
ROOT  25:  E=   -2879.4841269808 Eh  2.282 eV  18402.3 cm**-1
      0.54788 [    24]: 20211
      0.23197 [     5]: 02211
      0.14314 [    32]: 22011
      0.03030 [    18]: 12111
      0.02561 [     9]: 11022
      0.01356 [    29]: 21120
      0.00595 [     0]: 01122
ROOT  26:  E=   -2879.4735291598 Eh  2.570 eV  20728.2 cm**-1
      0.45074 [    30]: 21201
      0.28089 [     2]: 01221
      0.14859 [    26]: 21021
      0.07066 [    15]: 12012
      0.01951 [     7]: 10212
      0.01560 [    34]: 22110
      0.00700 [    11]: 11121
      0.00394 [     3]: 02112
ROOT  27:  E=   -2879.4720881485 Eh  2.609 eV  21044.5 cm**-1
      0.81772 [    10]: 11112
      0.08967 [    33]: 22101
      0.04396 [    23]: 20121
      0.02710 [     1]: 01212
      0.00968 [    31]: 21210
      0.00473 [     8]: 10221
      0.00355 [    20]: 12201
ROOT  28:  E=   -2879.4712903833 Eh  2.631 eV  21219.6 cm**-1
      0.85493 [    19]: 12120
      0.05853 [    17]: 12102
      0.04004 [    13]: 11211
      0.03367 [     6]: 10122
      0.01261 [    28]: 21111
ROOT  29:  E=   -2879.4699017927 Eh  2.669 eV  21524.4 cm**-1
      0.75625 [     9]: 11022
      0.15864 [    12]: 11202
      0.06728 [    24]: 20211
      0.00860 [     0]: 01122
      0.00501 [    14]: 11220
ROOT  30:  E=   -2879.4612424769 Eh  2.904 eV  23424.9 cm**-1
      0.48211 [    17]: 12102
      0.45665 [     6]: 10122
      0.03745 [    13]: 11211
      0.02023 [    28]: 21111
      0.00310 [    19]: 12120
ROOT  31:  E=   -2879.4610787830 Eh  2.909 eV  23460.8 cm**-1
      0.78566 [    10]: 11112
      0.15804 [     8]: 10221
      0.03188 [    23]: 20121
      0.01194 [    20]: 12201
      0.00627 [     1]: 01212
      0.00458 [    31]: 21210
ROOT  32:  E=   -2879.4593307681 Eh  2.956 eV  23844.4 cm**-1
      0.63766 [    15]: 12012
      0.13394 [     7]: 10212
      0.10773 [    21]: 12210
      0.08276 [     2]: 01221
      0.01022 [    34]: 22110
      0.00855 [    11]: 11121
      0.00824 [    26]: 21021
      0.00536 [    30]: 21201
      0.00450 [     3]: 02112
ROOT  33:  E=   -2879.4509459752 Eh  3.184 eV  25684.7 cm**-1
      0.79039 [    21]: 12210
      0.11682 [     7]: 10212
      0.03931 [    15]: 12012
      0.01871 [    34]: 22110
      0.01604 [    26]: 21021
      0.01218 [    30]: 21201
      0.00646 [    11]: 11121
ROOT  34:  E=   -2879.4316529303 Eh  3.709 eV  29919.0 cm**-1
      0.56493 [    33]: 22101
      0.16480 [    23]: 20121
      0.12473 [    10]: 11112
      0.07409 [    20]: 12201
      0.03851 [     4]: 02121
      0.01223 [    16]: 12021
      0.00914 [     1]: 01212
      0.00582 [    31]: 21210
      0.00451 [    25]: 21012
ROOT  35:  E=   -2879.4303132774 Eh  3.746 eV  30213.0 cm**-1
      0.45994 [    12]: 11202
      0.38553 [    14]: 11220
      0.05566 [    32]: 22011
      0.03842 [    24]: 20211
      0.03368 [     9]: 11022
      0.01108 [    27]: 21102
      0.00972 [     5]: 02211
      0.00251 [     0]: 01122
ROOT  36:  E=   -2879.4269054003 Eh  3.839 eV  30961.0 cm**-1
      0.59888 [     2]: 01221
      0.17288 [    26]: 21021
      0.15442 [    30]: 21201
      0.02813 [    11]: 11121
      0.02241 [    21]: 12210
      0.01390 [    15]: 12012
      0.00453 [     3]: 02112
ROOT  37:  E=   -2879.4239794111 Eh  3.918 eV  31603.2 cm**-1
      0.52074 [    32]: 22011
      0.25137 [    24]: 20211
      0.08095 [     9]: 11022
      0.06082 [     5]: 02211
      0.05280 [    12]: 11202
      0.01452 [    14]: 11220
      0.01407 [    18]: 12111
      0.00418 [    27]: 21102
ROOT  38:  E=   -2879.4183162173 Eh  4.072 eV  32846.1 cm**-1
      0.57969 [     8]: 10221
      0.20414 [    10]: 11112
      0.08928 [    16]: 12021
      0.08465 [    20]: 12201
      0.04057 [    23]: 20121
ROOT  39:  E=   -2879.4110059086 Eh  4.271 eV  34450.5 cm**-1
      0.46945 [     6]: 10122
      0.41021 [    17]: 12102
      0.07036 [    19]: 12120
      0.02810 [    28]: 21111
      0.02170 [    13]: 11211
ROOT  40:  E=   -2879.4021722985 Eh  4.512 eV  36389.3 cm**-1
      0.57785 [    14]: 11220
      0.29013 [    12]: 11202
      0.06979 [     9]: 11022
      0.01650 [    24]: 20211
      0.01611 [    18]: 12111
      0.01315 [    27]: 21102
      0.00984 [     5]: 02211
      0.00413 [    29]: 21120
ROOT  41:  E=   -2879.3887929032 Eh  4.876 eV  39325.7 cm**-1
      0.71944 [     7]: 10212
      0.20901 [    15]: 12012
      0.04419 [    21]: 12210
      0.02278 [    11]: 11121
ROOT  42:  E=   -2879.3311769574 Eh  6.444 eV  51970.9 cm**-1
      0.98954 [    22]: 20112
      0.00332 [    34]: 22110
      0.00324 [    26]: 21021
ROOT  43:  E=   -2879.3171683822 Eh  6.825 eV  55045.5 cm**-1
      0.96506 [    27]: 21102
      0.02172 [    12]: 11202
      0.00418 [     0]: 01122
      0.00392 [     9]: 11022
ROOT  44:  E=   -2879.3134023500 Eh  6.927 eV  55872.0 cm**-1
      0.98332 [    25]: 21012
      0.00782 [     1]: 01212
      0.00292 [    23]: 20121

                 <<<<<<<<<<<<<<<<<<INITIAL CI STATE CHECK>>>>>>>>>>>>>>>>>>

   E(CAS)= -2879.525689602 Eh DE=    0.000000e+00
   --- Energy gap subspaces: Ext-Act = 0.162   Act-Int = 0.122
   N(occ)=  1.20000 1.20000 1.20000 1.20000 1.20000
   ||g|| =     2.481215e+00 Max(G)=    5.149164e-01 Rot=452,1
   --- Orbital Update [SuperCI(PT)]
   --- Canonicalize Internal Space
   --- Canonicalize External Space
   --- SX_PT (Skipped TA=0 IT=0): ||X|| =      0.565432419 Max(X)(129,124) =     -0.247071611 
   --- SFit(Active Orbitals)

MACRO-ITERATION   2: 
   --- Inactive Energy E0 = -2870.16340154 Eh
CI-ITERATION   0: 
 -2880.013506560   0.000000000000 (    0.00)
 -2879.980779909   0.000000000000
 -2879.942040580   0.000000000000
 -2879.936423306   0.000000000000
 -2879.903262292   0.000000000000
   CI-PROBLEM SOLVED
   DENSITIES MADE
CI-ITERATION   0: 
 -2879.961259316   0.000000000000 (    0.00)
 -2879.945278344   0.000000000000
 -2879.944054054   0.000000000000
 -2879.941933584   0.000000000000
 -2879.928341763   0.000000000000
 -2879.925099666   0.000000000000
 -2879.922870003   0.000000000000
 -2879.916534514   0.000000000000
 -2879.910983569   0.000000000000
 -2879.905526953   0.000000000000
 -2879.905102664   0.000000000000
 -2879.897708548   0.000000000000
 -2879.897223716   0.000000000000
 -2879.896988750   0.000000000000
 -2879.890201921   0.000000000000
 -2879.888242518   0.000000000000
 -2879.886545359   0.000000000000
 -2879.882256244   0.000000000000
 -2879.882110817   0.000000000000
 -2879.871630290   0.000000000000
 -2879.870809342   0.000000000000
 -2879.866059087   0.000000000000
 -2879.864872028   0.000000000000
 -2879.858181778   0.000000000000
 -2879.857353810   0.000000000000
 -2879.851765980   0.000000000000
 -2879.851022189   0.000000000000
 -2879.838287557   0.000000000000
 -2879.837692575   0.000000000000
 -2879.837308575   0.000000000000
 -2879.826448453   0.000000000000
 -2879.826305250   0.000000000000
 -2879.817771928   0.000000000000
 -2879.814718848   0.000000000000
 -2879.804079141   0.000000000000
 -2879.780795909   0.000000000000
 -2879.755209926   0.000000000000
 -2879.741603506   0.000000000000
 -2879.736333591   0.000000000000
 -2879.734477603   0.000000000000
 -2879.719549838   0.000000000000
 -2879.706132530   0.000000000000
 -2879.628712222   0.000000000000
 -2879.596672550   0.000000000000
 -2879.589875464   0.000000000000
   CI-PROBLEM SOLVED
   DENSITIES MADE
   E(CAS)= -2879.897733845 Eh DE=   -3.720442e-01
   --- Energy gap subspaces: Ext-Act = 0.088   Act-Int = 0.177
   N(occ)=  1.20000 1.20000 1.20000 1.20000 1.20000
   ||g|| =     1.145733e+00 Max(G)=   -1.532917e-01 Rot=128,123
   --- Orbital Update [SuperCI(PT)]
   --- Canonicalize Internal Space
   --- Canonicalize External Space
   --- SX_PT (Skipped TA=0 IT=0): ||X|| =      0.441110793 Max(X)(128,121) =     -0.266041767 
   --- SFit(Active Orbitals)

MACRO-ITERATION   3: 
   --- Inactive Energy E0 = -2867.80408965 Eh
CI-ITERATION   0: 
 -2880.040263279   0.000000000000 (    0.38)
 -2880.029751777   0.000000000000
 -2880.020733016   0.000000000000
 -2880.006264160   0.000000000000
 -2879.971212054   0.000000000000
   CI-PROBLEM SOLVED
   DENSITIES MADE
CI-ITERATION   0: 
 -2879.997035186   0.000000000000 (    0.00)
 -2879.988045635   0.000000000000
 -2879.980523772   0.000000000000
 -2879.977619933   0.000000000000
 -2879.972766444   0.000000000000
 -2879.969170894   0.000000000000
 -2879.961951510   0.000000000000
 -2879.961767620   0.000000000000
 -2879.961535993   0.000000000000
 -2879.957917925   0.000000000000
 -2879.953852741   0.000000000000
 -2879.951737136   0.000000000000
 -2879.948763868   0.000000000000
 -2879.948617622   0.000000000000
 -2879.944980170   0.000000000000
 -2879.938994697   0.000000000000
 -2879.932204850   0.000000000000
 -2879.928009328   0.000000000000
 -2879.925986388   0.000000000000
 -2879.922464246   0.000000000000
 -2879.919167198   0.000000000000
 -2879.914882037   0.000000000000
 -2879.912356018   0.000000000000
 -2879.909518898   0.000000000000
 -2879.904183834   0.000000000000
 -2879.902533838   0.000000000000
 -2879.901943714   0.000000000000
 -2879.900507781   0.000000000000
 -2879.884699131   0.000000000000
 -2879.882289795   0.000000000000
 -2879.878558185   0.000000000000
 -2879.871888798   0.000000000000
 -2879.870961753   0.000000000000
 -2879.866815556   0.000000000000
 -2879.865328095   0.000000000000
 -2879.840587595   0.000000000000
 -2879.825855132   0.000000000000
 -2879.823681404   0.000000000000
 -2879.816671811   0.000000000000
 -2879.806199669   0.000000000000
 -2879.789948225   0.000000000000
 -2879.767650913   0.000000000000
 -2879.757676495   0.000000000000
 -2879.749462291   0.000000000000
 -2879.746021832   0.000000000000
   CI-PROBLEM SOLVED
   DENSITIES MADE
   E(CAS)= -2879.956081717 Eh DE=   -5.834787e-02
   --- Energy gap subspaces: Ext-Act = 0.213   Act-Int = 0.031
   N(occ)=  1.20000 1.20000 1.20000 1.20000 1.20000
   ||g|| =     9.104246e-01 Max(G)=    2.803905e-01 Rot=129,124
   --- Orbital Update [SuperCI(PT)]
   --- Canonicalize Internal Space
   --- Canonicalize External Space
   --- SX_PT (Skipped TA=0 IT=0): ||X|| =      0.340449105 Max(X)(129,124) =     -0.232666580 
   --- SFit(Active Orbitals)

MACRO-ITERATION   4: 
   --- Inactive Energy E0 = -2867.85614379 Eh
CI-ITERATION   0: 
 -2880.115146578   0.000000000000 (    0.38)
 -2880.102232484   0.000000000000
 -2880.080822618   0.000000000000
 -2880.076995978   0.000000000000
 -2880.058305046   0.000000000000
   CI-PROBLEM SOLVED
   DENSITIES MADE
CI-ITERATION   0: 
 -2880.046943255   0.000000000000 (    0.00)
 -2880.036314314   0.000000000000
 -2880.031850100   0.000000000000
 -2880.027149613   0.000000000000
 -2880.025919386   0.000000000000
 -2880.022100610   0.000000000000
 -2880.020077672   0.000000000000
 -2880.010951688   0.000000000000
 -2880.009614384   0.000000000000
 -2880.009334688   0.000000000000
 -2880.004628823   0.000000000000
 -2880.003669168   0.000000000000
 -2880.003330957   0.000000000000
 -2880.001378931   0.000000000000
 -2879.998971548   0.000000000000
 -2879.997967587   0.000000000000
 -2879.997416675   0.000000000000
 -2879.996300171   0.000000000000
 -2879.996209404   0.000000000000
 -2879.992372506   0.000000000000
 -2879.991596881   0.000000000000
 -2879.991231588   0.000000000000
 -2879.989079828   0.000000000000
 -2879.977848702   0.000000000000
 -2879.977293498   0.000000000000
 -2879.972603927   0.000000000000
 -2879.972017270   0.000000000000
 -2879.968656207   0.000000000000
 -2879.963572721   0.000000000000
 -2879.953920691   0.000000000000
 -2879.950745884   0.000000000000
 -2879.932177312   0.000000000000
 -2879.927038137   0.000000000000
 -2879.917178647   0.000000000000
 -2879.897486368   0.000000000000
 -2879.891138555   0.000000000000
 -2879.884772740   0.000000000000
 -2879.875914909   0.000000000000
 -2879.875507375   0.000000000000
 -2879.862789295   0.000000000000
 -2879.856271977   0.000000000000
 -2879.847832086   0.000000000000
 -2879.839602982   0.000000000000
 -2879.837797895   0.000000000000
 -2879.810224881   0.000000000000
   CI-PROBLEM SOLVED
   DENSITIES MADE
   E(CAS)= -2880.023314735 Eh DE=   -6.723302e-02
   --- Energy gap subspaces: Ext-Act = 0.141   Act-Int = 0.138
   N(occ)=  1.20000 1.20000 1.20000 1.20000 1.20000
   ||g|| =     4.154258e-01 Max(G)=   -1.306897e-01 Rot=128,123
   --- Orbital Update [SuperCI(PT)]
   --- Canonicalize Internal Space
   --- Canonicalize External Space
   --- SX_PT (Skipped TA=0 IT=0): ||X|| =      0.239252421 Max(X)(128,120) =     -0.199151962 
   --- SFit(Active Orbitals)

MACRO-ITERATION   5: 
   --- Inactive Energy E0 = -2867.36096250 Eh
CI-ITERATION   0: 
 -2880.127582621   0.000000000000 (    0.00)
 -2880.115841895   0.000000000000
 -2880.098669570   0.000000000000
 -2880.094404454   0.000000000000
 -2880.079574609   0.000000000000
   CI-PROBLEM SOLVED
   DENSITIES MADE
CI-ITERATION   0: 
 -2880.054173574   0.000000000000 (    1.30)
 -2880.043054993   0.000000000000
 -2880.042485260   0.000000000000
 -2880.037158157   0.000000000000
 -2880.036552312   0.000000000000
 -2880.033905309   0.000000000000
 -2880.032594258   0.000000000000
 -2880.022882283   0.000000000000
 -2880.020942713   0.000000000000
 -2880.020744653   0.000000000000
 -2880.017304757   0.000000000000
 -2880.016977938   0.000000000000
 -2880.015550223   0.000000000000
 -2880.014862404   0.000000000000
 -2880.014524227   0.000000000000
 -2880.010423818   0.000000000000
 -2880.010120252   0.000000000000
 -2880.009391651   0.000000000000
 -2880.008419645   0.000000000000
 -2880.006785099   0.000000000000
 -2880.005782178   0.000000000000
 -2880.005031419   0.000000000000
 -2880.004174420   0.000000000000
 -2879.994553816   0.000000000000
 -2879.992613038   0.000000000000
 -2879.989684928   0.000000000000
 -2879.988720839   0.000000000000
 -2879.979399828   0.000000000000
 -2879.976798644   0.000000000000
 -2879.968245162   0.000000000000
 -2879.966591730   0.000000000000
 -2879.959500930   0.000000000000
 -2879.944793713   0.000000000000
 -2879.944116447   0.000000000000
 -2879.927703349   0.000000000000
 -2879.902149569   0.000000000000
 -2879.898363956   0.000000000000
 -2879.887460971   0.000000000000
 -2879.887096778   0.000000000000
 -2879.882332692   0.000000000000
 -2879.875024025   0.000000000000
 -2879.872686167   0.000000000000
 -2879.866848179   0.000000000000
 -2879.861824029   0.000000000000
 -2879.848574124   0.000000000000
   CI-PROBLEM SOLVED
   DENSITIES MADE
   E(CAS)= -2880.039373142 Eh DE=   -1.605841e-02
   --- Energy gap subspaces: Ext-Act = 0.150   Act-Int = 0.113
   N(occ)=  1.20000 1.20000 1.20000 1.20000 1.20000
   ||g|| =     2.918975e-01 Max(G)=   -1.248824e-01 Rot=128,123
   --- Orbital Update [SuperCI(PT)]
   --- Canonicalize Internal Space
   --- Canonicalize External Space
   --- SX_PT (Skipped TA=0 IT=0): ||X|| =      0.216371139 Max(X)(128,121) =      0.188460762 
   --- SFit(Active Orbitals)

MACRO-ITERATION   6: 
   --- Inactive Energy E0 = -2866.18020518 Eh
CI-ITERATION   0: 
 -2880.150551978   0.000000000000 (    0.00)
 -2880.141694714   0.000000000000
 -2880.130635292   0.000000000000
 -2880.126098326   0.000000000000
 -2880.118695917   0.000000000000
   CI-PROBLEM SOLVED
   DENSITIES MADE
CI-ITERATION   0: 
 -2880.062935227   0.000000000000 (    1.83)
 -2880.056561741   0.000000000000
 -2880.056317560   0.000000000000
 -2880.055484512   0.000000000000
 -2880.054867224   0.000000000000
 -2880.054743020   0.000000000000
 -2880.052856245   0.000000000000
 -2880.044656200   0.000000000000
 -2880.044208151   0.000000000000
 -2880.043434983   0.000000000000
 -2880.042791853   0.000000000000
 -2880.042629973   0.000000000000
 -2880.040701247   0.000000000000
 -2880.037575057   0.000000000000
 -2880.037548430   0.000000000000
 -2880.034262779   0.000000000000
 -2880.034164728   0.000000000000
 -2880.032396558   0.000000000000
 -2880.030459532   0.000000000000
 -2880.027344899   0.000000000000
 -2880.027087900   0.000000000000
 -2880.026840019   0.000000000000
 -2880.026255367   0.000000000000
 -2880.025116217   0.000000000000
 -2880.020452715   0.000000000000
 -2880.017779767   0.000000000000
 -2880.017108343   0.000000000000
 -2880.016820929   0.000000000000
 -2880.013702929   0.000000000000
 -2880.007666757   0.000000000000
 -2879.995877883   0.000000000000
 -2879.991348603   0.000000000000
 -2879.989261374   0.000000000000
 -2879.988546222   0.000000000000
 -2879.988219798   0.000000000000
 -2879.912438266   0.000000000000
 -2879.911438352   0.000000000000
 -2879.909685691   0.000000000000
 -2879.905965166   0.000000000000
 -2879.901733613   0.000000000000
 -2879.900134648   0.000000000000
 -2879.898037240   0.000000000000
 -2879.896288120   0.000000000000
 -2879.886773389   0.000000000000
 -2879.882401006   0.000000000000
   CI-PROBLEM SOLVED
   DENSITIES MADE
   E(CAS)= -2880.067244514 Eh DE=   -2.787137e-02
   --- Energy gap subspaces: Ext-Act = 0.154   Act-Int = 0.071
   N(occ)=  1.20000 1.20000 1.20000 1.20000 1.20000
   ||g|| =     3.520752e-01 Max(G)=   -1.214958e-01 Rot=128,123
   --- Orbital Update [SuperCI(PT)]
   --- Canonicalize Internal Space
   --- Canonicalize External Space
   --- SX_PT (Skipped TA=0 IT=0): ||X|| =      0.194171391 Max(X)(128,121) =     -0.171733092 
   --- SFit(Active Orbitals)

MACRO-ITERATION   7: 
   --- Inactive Energy E0 = -2864.86179318 Eh
CI-ITERATION   0: 
 -2880.169562798   0.000000000000 (    0.38)
 -2880.167677182   0.000000000000
 -2880.164054068   0.000000000000
 -2880.163035118   0.000000000000
 -2880.160450239   0.000000000000
   CI-PROBLEM SOLVED
   DENSITIES MADE
CI-ITERATION   0: 
 -2880.076205283   0.000000000000 (    0.09)
 -2880.075500275   0.000000000000
 -2880.075026067   0.000000000000
 -2880.073730285   0.000000000000
 -2880.073583194   0.000000000000
 -2880.072669231   0.000000000000
 -2880.072625247   0.000000000000
 -2880.071052834   0.000000000000
 -2880.070775877   0.000000000000
 -2880.067061569   0.000000000000
 -2880.067023328   0.000000000000
 -2880.061765180   0.000000000000
 -2880.060874155   0.000000000000
 -2880.060682135   0.000000000000
 -2880.059813012   0.000000000000
 -2880.058036998   0.000000000000
 -2880.056640039   0.000000000000
 -2880.055707430   0.000000000000
 -2880.054171872   0.000000000000
 -2880.053313399   0.000000000000
 -2880.053228604   0.000000000000
 -2880.048672274   0.000000000000
 -2880.048388443   0.000000000000
 -2880.048342234   0.000000000000
 -2880.047737042   0.000000000000
 -2880.044074313   0.000000000000
 -2880.043618239   0.000000000000
 -2880.042994305   0.000000000000
 -2880.042578683   0.000000000000
 -2880.042574676   0.000000000000
 -2880.014366560   0.000000000000
 -2880.010520140   0.000000000000
 -2880.010286882   0.000000000000
 -2880.010142078   0.000000000000
 -2880.008273909   0.000000000000
 -2879.917563422   0.000000000000
 -2879.913420280   0.000000000000
 -2879.912622081   0.000000000000
 -2879.912207259   0.000000000000
 -2879.909687700   0.000000000000
 -2879.906767061   0.000000000000
 -2879.904246184   0.000000000000
 -2879.904128754   0.000000000000
 -2879.902104655   0.000000000000
 -2879.900505633   0.000000000000
   CI-PROBLEM SOLVED
   DENSITIES MADE
   E(CAS)= -2880.092648038 Eh DE=   -2.540352e-02
   --- Energy gap subspaces: Ext-Act = 0.165   Act-Int = 0.023
   N(occ)=  1.20000 1.20000 1.20000 1.20000 1.20000
   ||g|| =     3.874835e-01 Max(G)=    4.291592e-02 Rot=452,17
   --- Orbital Update [SuperCI(PT)]
   --- Canonicalize Internal Space
   --- Canonicalize External Space
   --- SX_PT (Skipped TA=0 IT=0): ||X|| =      0.108493741 Max(X)(128,123) =     -0.047294790 
   --- SFit(Active Orbitals)

MACRO-ITERATION   8: 
   --- Inactive Energy E0 = -2864.43357706 Eh
CI-ITERATION   0: 
 -2880.176761034   0.000000000000 (    0.38)
 -2880.175732244   0.000000000000
 -2880.172545567   0.000000000000
 -2880.170615651   0.000000000000
 -2880.166633259   0.000000000000
   CI-PROBLEM SOLVED
   DENSITIES MADE
CI-ITERATION   0: 
 -2880.082626857   0.000000000000 (    0.05)
 -2880.082606516   0.000000000000
 -2880.081554090   0.000000000000
 -2880.080405013   0.000000000000
 -2880.079748028   0.000000000000
 -2880.078922957   0.000000000000
 -2880.078327484   0.000000000000
 -2880.077450340   0.000000000000
 -2880.076953599   0.000000000000
 -2880.073015503   0.000000000000
 -2880.073008213   0.000000000000
 -2880.068308603   0.000000000000
 -2880.067489528   0.000000000000
 -2880.067095804   0.000000000000
 -2880.065553275   0.000000000000
 -2880.063777674   0.000000000000
 -2880.061974534   0.000000000000
 -2880.061326747   0.000000000000
 -2880.060061886   0.000000000000
 -2880.058966612   0.000000000000
 -2880.058859927   0.000000000000
 -2880.054881261   0.000000000000
 -2880.054730104   0.000000000000
 -2880.054386372   0.000000000000
 -2880.053710133   0.000000000000
 -2880.049733856   0.000000000000
 -2880.049157245   0.000000000000
 -2880.048832181   0.000000000000
 -2880.048189075   0.000000000000
 -2880.048078233   0.000000000000
 -2880.019656668   0.000000000000
 -2880.015957037   0.000000000000
 -2880.015689367   0.000000000000
 -2880.015359584   0.000000000000
 -2880.013501260   0.000000000000
 -2879.920069463   0.000000000000
 -2879.917039450   0.000000000000
 -2879.916806130   0.000000000000
 -2879.915648721   0.000000000000
 -2879.912941717   0.000000000000
 -2879.910596958   0.000000000000
 -2879.908814629   0.000000000000
 -2879.908695954   0.000000000000
 -2879.906531715   0.000000000000
 -2879.904648512   0.000000000000
   CI-PROBLEM SOLVED
   DENSITIES MADE
   E(CAS)= -2880.099136429 Eh DE=   -6.488391e-03
   --- Energy gap subspaces: Ext-Act = 0.204   Act-Int = -0.020
   N(occ)=  1.20000 1.20000 1.20000 1.20000 1.20000
   ||g|| =     1.075284e-01 Max(G)=   -2.906088e-02 Rot=129,124
   --- Orbital Update [SuperCI(PT)]
   --- Canonicalize Internal Space
   --- Canonicalize External Space
   --- SX_PT (Skipped TA=0 IT=0): ||X|| =      0.041065012 Max(X)(129,124) =     -0.020656185 
   --- SFit(Active Orbitals)

MACRO-ITERATION   9: 
   --- Inactive Energy E0 = -2864.50191296 Eh
CI-ITERATION   0: 
 -2880.177242749   0.000000000000 (    0.00)
 -2880.175059900   0.000000000000
 -2880.171451114   0.000000000000
 -2880.169664230   0.000000000000
 -2880.166885396   0.000000000000
   CI-PROBLEM SOLVED
   DENSITIES MADE
CI-ITERATION   0: 
 -2880.083955707   0.000000000000 (    0.05)
 -2880.083274245   0.000000000000
 -2880.082544754   0.000000000000
 -2880.081168017   0.000000000000
 -2880.080905855   0.000000000000
 -2880.079756957   0.000000000000
 -2880.079740463   0.000000000000
 -2880.078172413   0.000000000000
 -2880.077783371   0.000000000000
 -2880.073726019   0.000000000000
 -2880.073713198   0.000000000000
 -2880.069004268   0.000000000000
 -2880.068226852   0.000000000000
 -2880.067827395   0.000000000000
 -2880.066860481   0.000000000000
 -2880.064913135   0.000000000000
 -2880.063325704   0.000000000000
 -2880.062454171   0.000000000000
 -2880.060879879   0.000000000000
 -2880.059950368   0.000000000000
 -2880.059821214   0.000000000000
 -2880.055877688   0.000000000000
 -2880.055677904   0.000000000000
 -2880.055576623   0.000000000000
 -2880.054843288   0.000000000000
 -2880.050887995   0.000000000000
 -2880.050366483   0.000000000000
 -2880.049898927   0.000000000000
 -2880.049238509   0.000000000000
 -2880.049188786   0.000000000000
 -2880.021424746   0.000000000000
 -2880.017459227   0.000000000000
 -2880.017232511   0.000000000000
 -2880.016836755   0.000000000000
 -2880.014983893   0.000000000000
 -2879.924525649   0.000000000000
 -2879.919904697   0.000000000000
 -2879.919825097   0.000000000000
 -2879.919585176   0.000000000000
 -2879.915802772   0.000000000000
 -2879.913599435   0.000000000000
 -2879.911118228   0.000000000000
 -2879.910942581   0.000000000000
 -2879.908584301   0.000000000000
 -2879.906901468   0.000000000000
   CI-PROBLEM SOLVED
   DENSITIES MADE
   E(CAS)= -2880.099677974 Eh DE=   -5.415455e-04
   --- Energy gap subspaces: Ext-Act = 0.217   Act-Int = -0.030
   N(occ)=  1.20000 1.20000 1.20000 1.20000 1.20000
   ||g|| =     4.820705e-02 Max(G)=   -2.099093e-02 Rot=128,123
   --- Orbital Update [SuperCI(PT)]
   --- Canonicalize Internal Space
   --- Canonicalize External Space
   --- SX_PT (Skipped TA=0 IT=0): ||X|| =      0.032751053 Max(X)(128,123) =     -0.029192056 
   --- SFit(Active Orbitals)

MACRO-ITERATION  10: 
   --- Inactive Energy E0 = -2864.44060158 Eh
CI-ITERATION   0: 
 -2880.178239496   0.000000000000 (    0.00)
 -2880.175918997   0.000000000000
 -2880.172571111   0.000000000000
 -2880.170523790   0.000000000000
 -2880.167378107   0.000000000000
   CI-PROBLEM SOLVED
   DENSITIES MADE
CI-ITERATION   0: 
 -2880.084190719   0.000000000000 (    2.04)
 -2880.083569623   0.000000000000
 -2880.082814275   0.000000000000
 -2880.081695614   0.000000000000
 -2880.081269543   0.000000000000
 -2880.079956105   0.000000000000
 -2880.079918519   0.000000000000
 -2880.078582299   0.000000000000
 -2880.078168047   0.000000000000
 -2880.074166385   0.000000000000
 -2880.074161469   0.000000000000
 -2880.069515870   0.000000000000
 -2880.068715678   0.000000000000
 -2880.068310900   0.000000000000
 -2880.066943109   0.000000000000
 -2880.065170522   0.000000000000
 -2880.063546834   0.000000000000
 -2880.062769869   0.000000000000
 -2880.061297862   0.000000000000
 -2880.060250203   0.000000000000
 -2880.060177158   0.000000000000
 -2880.056247834   0.000000000000
 -2880.056049751   0.000000000000
 -2880.055810079   0.000000000000
 -2880.055077898   0.000000000000
 -2880.051321823   0.000000000000
 -2880.050715195   0.000000000000
 -2880.050247428   0.000000000000
 -2880.049554624   0.000000000000
 -2880.049502584   0.000000000000
 -2880.021307178   0.000000000000
 -2880.017608986   0.000000000000
 -2880.017342174   0.000000000000
 -2880.016949610   0.000000000000
 -2880.015182510   0.000000000000
 -2879.923360336   0.000000000000
 -2879.919815643   0.000000000000
 -2879.919766022   0.000000000000
 -2879.918399753   0.000000000000
 -2879.914996672   0.000000000000
 -2879.913238206   0.000000000000
 -2879.911044328   0.000000000000
 -2879.910900811   0.000000000000
 -2879.908547270   0.000000000000
 -2879.906667841   0.000000000000
   CI-PROBLEM SOLVED
   DENSITIES MADE
   E(CAS)= -2880.100183652 Eh DE=   -5.056773e-04
   --- Energy gap subspaces: Ext-Act = 0.218   Act-Int = -0.032
   N(occ)=  1.20000 1.20000 1.20000 1.20000 1.20000
   ||g|| =     3.380880e-02 Max(G)=   -1.263699e-02 Rot=128,123
   --- Orbital Update [SuperCI(PT)]
   --- Canonicalize Internal Space
   --- Canonicalize External Space
   --- SX_PT (Skipped TA=0 IT=0): ||X|| =      0.020045324 Max(X)(128,123) =     -0.017426156 
   --- SFit(Active Orbitals)

MACRO-ITERATION  11: 
   --- Inactive Energy E0 = -2864.34106274 Eh
CI-ITERATION   0: 
 -2880.178781450   0.000000000000 (    0.39)
 -2880.176706242   0.000000000000
 -2880.173578217   0.000000000000
 -2880.171318183   0.000000000000
 -2880.167835679   0.000000000000
   CI-PROBLEM SOLVED
   DENSITIES MADE
CI-ITERATION   0: 
 -2880.083548100   0.000000000000 (    0.00)
 -2880.083231912   0.000000000000
 -2880.082387298   0.000000000000
 -2880.081693022   0.000000000000
 -2880.080954134   0.000000000000
 -2880.079660486   0.000000000000
 -2880.079461974   0.000000000000
 -2880.078554283   0.000000000000
 -2880.078116653   0.000000000000
 -2880.074220286   0.000000000000
 -2880.074216118   0.000000000000
 -2880.069570487   0.000000000000
 -2880.068709406   0.000000000000
 -2880.068373132   0.000000000000
 -2880.066374923   0.000000000000
 -2880.064912241   0.000000000000
 -2880.063259241   0.000000000000
 -2880.062666706   0.000000000000
 -2880.061362592   0.000000000000
 -2880.060202239   0.000000000000
 -2880.060187516   0.000000000000
 -2880.056049879   0.000000000000
 -2880.055847649   0.000000000000
 -2880.055350039   0.000000000000
 -2880.054651940   0.000000000000
 -2880.051319734   0.000000000000
 -2880.050560527   0.000000000000
 -2880.050137017   0.000000000000
 -2880.049466461   0.000000000000
 -2880.049403080   0.000000000000
 -2880.020397305   0.000000000000
 -2880.017121911   0.000000000000
 -2880.016781368   0.000000000000
 -2880.016478095   0.000000000000
 -2880.014860060   0.000000000000
 -2879.920564191   0.000000000000
 -2879.918750341   0.000000000000
 -2879.918696974   0.000000000000
 -2879.915612682   0.000000000000
 -2879.913304393   0.000000000000
 -2879.912042305   0.000000000000
 -2879.910144996   0.000000000000
 -2879.910061434   0.000000000000
 -2879.907889291   0.000000000000
 -2879.905720953   0.000000000000
   CI-PROBLEM SOLVED
   DENSITIES MADE
   E(CAS)= -2880.100298370 Eh DE=   -1.147183e-04
   --- Energy gap subspaces: Ext-Act = 0.220   Act-Int = -0.036
   N(occ)=  1.20000 1.20000 1.20000 1.20000 1.20000
   ||g|| =     3.529537e-02 Max(G)=    6.549725e-03 Rot=452,17
   --- Orbital Update [SuperCI(PT)]
   --- Canonicalize Internal Space
   --- Canonicalize External Space
   --- SX_PT (Skipped TA=0 IT=0): ||X|| =      0.011631748 Max(X)(128,123) =      0.005675560 
   --- SFit(Active Orbitals)

MACRO-ITERATION  12: 
   --- Inactive Energy E0 = -2864.34085646 Eh
CI-ITERATION   0: 
 -2880.178744664   0.000000000000 (    0.38)
 -2880.176618388   0.000000000000
 -2880.173488760   0.000000000000
 -2880.171219525   0.000000000000
 -2880.167781997   0.000000000000
   CI-PROBLEM SOLVED
   DENSITIES MADE
CI-ITERATION   0: 
 -2880.083869535   0.000000000000 (    0.05)
 -2880.083517140   0.000000000000
 -2880.082669317   0.000000000000
 -2880.081860606   0.000000000000
 -2880.081169819   0.000000000000
 -2880.079878007   0.000000000000
 -2880.079672756   0.000000000000
 -2880.078678297   0.000000000000
 -2880.078234235   0.000000000000
 -2880.074331644   0.000000000000
 -2880.074326214   0.000000000000
 -2880.069711947   0.000000000000
 -2880.068889141   0.000000000000
 -2880.068512868   0.000000000000
 -2880.066637717   0.000000000000
 -2880.065078932   0.000000000000
 -2880.063424648   0.000000000000
 -2880.062793551   0.000000000000
 -2880.061471030   0.000000000000
 -2880.060326664   0.000000000000
 -2880.060299965   0.000000000000
 -2880.056270698   0.000000000000
 -2880.056066668   0.000000000000
 -2880.055610158   0.000000000000
 -2880.054909917   0.000000000000
 -2880.051419836   0.000000000000
 -2880.050701449   0.000000000000
 -2880.050287092   0.000000000000
 -2880.049607496   0.000000000000
 -2880.049536627   0.000000000000
 -2880.020776290   0.000000000000
 -2880.017397743   0.000000000000
 -2880.017081633   0.000000000000
 -2880.016726591   0.000000000000
 -2880.015065628   0.000000000000
 -2879.921360067   0.000000000000
 -2879.919161069   0.000000000000
 -2879.919117183   0.000000000000
 -2879.916402326   0.000000000000
 -2879.913849972   0.000000000000
 -2879.912511259   0.000000000000
 -2879.910623684   0.000000000000
 -2879.910493245   0.000000000000
 -2879.908253502   0.000000000000
 -2879.906146908   0.000000000000
   CI-PROBLEM SOLVED
   DENSITIES MADE
   E(CAS)= -2880.100393456 Eh DE=   -9.508634e-05
   --- Energy gap subspaces: Ext-Act = 0.224   Act-Int = -0.040
   N(occ)=  1.20000 1.20000 1.20000 1.20000 1.20000
   ||g|| =     1.081824e-02 Max(G)=   -4.248240e-03 Rot=129,124
   --- Orbital Update [SuperCI(PT)]
   --- Canonicalize Internal Space
   --- Canonicalize External Space
   --- SX_PT (Skipped TA=0 IT=0): ||X|| =      0.005708899 Max(X)(128,123) =      0.003127316 
   --- SFit(Active Orbitals)

MACRO-ITERATION  13: 
   --- Inactive Energy E0 = -2864.35549459 Eh
CI-ITERATION   0: 
 -2880.178707501   0.000000000000 (    0.00)
 -2880.176443998   0.000000000000
 -2880.173256211   0.000000000000
 -2880.171000722   0.000000000000
 -2880.167632699   0.000000000000
   CI-PROBLEM SOLVED
   DENSITIES MADE
CI-ITERATION   0: 
 -2880.084170333   0.000000000000 (    0.68)
 -2880.083738181   0.000000000000
 -2880.082909948   0.000000000000
 -2880.081972767   0.000000000000
 -2880.081352235   0.000000000000
 -2880.080024719   0.000000000000
 -2880.079858906   0.000000000000
 -2880.078744452   0.000000000000
 -2880.078301642   0.000000000000
 -2880.074369294   0.000000000000
 -2880.074361433   0.000000000000
 -2880.069787357   0.000000000000
 -2880.068993735   0.000000000000
 -2880.068577601   0.000000000000
 -2880.066858674   0.000000000000
 -2880.065193069   0.000000000000
 -2880.063550085   0.000000000000
 -2880.062866746   0.000000000000
 -2880.061498199   0.000000000000
 -2880.060395156   0.000000000000
 -2880.060336412   0.000000000000
 -2880.056428734   0.000000000000
 -2880.056218288   0.000000000000
 -2880.055817537   0.000000000000
 -2880.055114388   0.000000000000
 -2880.051466763   0.000000000000
 -2880.050788708   0.000000000000
 -2880.050383088   0.000000000000
 -2880.049686345   0.000000000000
 -2880.049607683   0.000000000000
 -2880.021117092   0.000000000000
 -2880.017625438   0.000000000000
 -2880.017330657   0.000000000000
 -2880.016907371   0.000000000000
 -2880.015217015   0.000000000000
 -2879.922263001   0.000000000000
 -2879.919599109   0.000000000000
 -2879.919593445   0.000000000000
 -2879.917248819   0.000000000000
 -2879.914346989   0.000000000000
 -2879.912944712   0.000000000000
 -2879.911050644   0.000000000000
 -2879.910845732   0.000000000000
 -2879.908506863   0.000000000000
 -2879.906483631   0.000000000000
   CI-PROBLEM SOLVED
   DENSITIES MADE
   E(CAS)= -2880.100420257 Eh DE=   -2.680114e-05
   --- Energy gap subspaces: Ext-Act = 0.226   Act-Int = -0.041
   N(occ)=  1.20000 1.20000 1.20000 1.20000 1.20000
   ||g|| =     5.004338e-03 Max(G)=   -9.168987e-04 Rot=452,17
   --- Orbital Update [SuperCI(PT)]
   --- Canonicalize Internal Space
   --- Canonicalize External Space
   --- SX_PT (Skipped TA=0 IT=0): ||X|| =      0.001762985 Max(X)(128,123) =     -0.001090571 
   --- SFit(Active Orbitals)

MACRO-ITERATION  14: 
   --- Inactive Energy E0 = -2864.35364493 Eh
CI-ITERATION   0: 
 -2880.178761312   0.000000000000 (    0.38)
 -2880.176467008   0.000000000000
 -2880.173290101   0.000000000000
 -2880.171025401   0.000000000000
 -2880.167645596   0.000000000000
   CI-PROBLEM SOLVED
   DENSITIES MADE
CI-ITERATION   0: 
 -2880.084141054   0.000000000000 (    0.05)
 -2880.083709433   0.000000000000
 -2880.082887361   0.000000000000
 -2880.081974856   0.000000000000
 -2880.081340101   0.000000000000
 -2880.079998970   0.000000000000
 -2880.079839846   0.000000000000
 -2880.078735529   0.000000000000
 -2880.078294294   0.000000000000
 -2880.074373461   0.000000000000
 -2880.074364502   0.000000000000
 -2880.069789044   0.000000000000
 -2880.068990206   0.000000000000
 -2880.068577379   0.000000000000
 -2880.066825251   0.000000000000
 -2880.065177592   0.000000000000
 -2880.063538226   0.000000000000
 -2880.062860533   0.000000000000
 -2880.061498000   0.000000000000
 -2880.060391241   0.000000000000
 -2880.060338463   0.000000000000
 -2880.056418106   0.000000000000
 -2880.056203995   0.000000000000
 -2880.055791570   0.000000000000
 -2880.055091932   0.000000000000
 -2880.051469343   0.000000000000
 -2880.050782302   0.000000000000
 -2880.050380553   0.000000000000
 -2880.049683368   0.000000000000
 -2880.049602538   0.000000000000
 -2880.021067849   0.000000000000
 -2880.017602763   0.000000000000
 -2880.017306590   0.000000000000
 -2880.016878777   0.000000000000
 -2880.015202535   0.000000000000
 -2879.922143836   0.000000000000
 -2879.919567281   0.000000000000
 -2879.919562016   0.000000000000
 -2879.917122567   0.000000000000
 -2879.914244640   0.000000000000
 -2879.912884332   0.000000000000
 -2879.911024317   0.000000000000
 -2879.910809807   0.000000000000
 -2879.908463306   0.000000000000
 -2879.906430731   0.000000000000
   CI-PROBLEM SOLVED
   DENSITIES MADE
   E(CAS)= -2880.100423168 Eh DE=   -2.910867e-06
   --- Energy gap subspaces: Ext-Act = 0.226   Act-Int = -0.041
   N(occ)=  1.20000 1.20000 1.20000 1.20000 1.20000
   ||g|| =     2.190152e-03 Max(G)=    3.664813e-04 Rot=129,124
   --- Orbital Update [SuperCI(PT)]
   --- Canonicalize Internal Space
   --- Canonicalize External Space
   --- SX_PT (Skipped TA=0 IT=0): ||X|| =      0.000654654 Max(X)(129,124) =     -0.000252385 
   --- SFit(Active Orbitals)

MACRO-ITERATION  15: 
   --- Inactive Energy E0 = -2864.35256920 Eh
CI-ITERATION   0: 
 -2880.178777718   0.000000000000 (    0.00)
 -2880.176486085   0.000000000000
 -2880.173311312   0.000000000000
 -2880.171043686   0.000000000000
 -2880.167658150   0.000000000000
   CI-PROBLEM SOLVED
   DENSITIES MADE
CI-ITERATION   0: 
 -2880.084119043   0.000000000000 (    0.00)
 -2880.083694551   0.000000000000
 -2880.082872117   0.000000000000
 -2880.081972383   0.000000000000
 -2880.081329114   0.000000000000
 -2880.079986363   0.000000000000
 -2880.079823953   0.000000000000
 -2880.078731989   0.000000000000
 -2880.078290559   0.000000000000
 -2880.074372198   0.000000000000
 -2880.074363043   0.000000000000
 -2880.069787572   0.000000000000
 -2880.068984876   0.000000000000
 -2880.068576203   0.000000000000
 -2880.066806121   0.000000000000
 -2880.065167705   0.000000000000
 -2880.063528646   0.000000000000
 -2880.062854803   0.000000000000
 -2880.061496375   0.000000000000
 -2880.060385334   0.000000000000
 -2880.060337889   0.000000000000
 -2880.056409526   0.000000000000
 -2880.056194553   0.000000000000
 -2880.055775069   0.000000000000
 -2880.055076835   0.000000000000
 -2880.051466188   0.000000000000
 -2880.050774688   0.000000000000
 -2880.050373331   0.000000000000
 -2880.049677995   0.000000000000
 -2880.049596637   0.000000000000
 -2880.021038968   0.000000000000
 -2880.017586464   0.000000000000
 -2880.017287603   0.000000000000
 -2880.016862186   0.000000000000
 -2880.015190029   0.000000000000
 -2879.922065756   0.000000000000
 -2879.919535751   0.000000000000
 -2879.919530661   0.000000000000
 -2879.917042989   0.000000000000
 -2879.914194237   0.000000000000
 -2879.912847842   0.000000000000
 -2879.910995760   0.000000000000
 -2879.910779911   0.000000000000
 -2879.908440055   0.000000000000
 -2879.906396336   0.000000000000
   CI-PROBLEM SOLVED
   DENSITIES MADE
   E(CAS)= -2880.100423475 Eh DE=   -3.068308e-07
   --- Energy gap subspaces: Ext-Act = 0.226   Act-Int = -0.041
   N(occ)=  1.20000 1.20000 1.20000 1.20000 1.20000
   ||g|| =     1.029782e-03 Max(G)=    2.665956e-04 Rot=129,124
   --- Orbital Update [SuperCI(PT)]
[...]
      px      :     2.131202
      py      :     2.254146
      dz2     :     1.989486  d :     9.945133
      dxz     :     1.984754
      dyz     :     1.986207
      dx2y2   :     1.995735
      dxy     :     1.988951
      f0      :     0.000620  f :     0.004961
      f+1     :     0.000489
      f-1     :     0.000619
      f+2     :     0.000716
      f-2     :     0.001129
      f+3     :     0.000859
      f-3     :     0.000529
  7 Aus       :     2.547799  s :     2.547799
      pz      :     2.325615  p :     6.579175
      px      :     2.133478
      py      :     2.120082
      dz2     :     1.995709  d :     9.968016
      dxz     :     2.000849
      dyz     :     1.990363
      dx2y2   :     1.997163
      dxy     :     1.983932
      f0      :     0.001186  f :     0.004654
      f+1     :     0.001036
      f-1     :     0.000612
      f+2     :     0.000534
      f-2     :     0.000414
      f+3     :     0.000376
      f-3     :     0.000496
  8 Aus       :     2.681444  s :     2.681444
      pz      :     2.075577  p :     6.201893
      px      :     2.075120
      py      :     2.051196
      dz2     :     1.991613  d :     9.966977
      dxz     :     1.996007
      dyz     :     1.994890
      dx2y2   :     1.989550
      dxy     :     1.994917
      f0      :     0.000693  f :     0.003285
      f+1     :     0.000508
      f-1     :     0.000438
      f+2     :     0.000400
      f-2     :     0.000359
      f+3     :     0.000495
      f-3     :     0.000392
  9 Aus       :     2.547784  s :     2.547784
      pz      :     2.143619  p :     6.578906
      px      :     2.313704
      py      :     2.121583
      dz2     :     1.992856  d :     9.967863
      dxz     :     2.002330
      dyz     :     1.981387
      dx2y2   :     1.999247
      dxy     :     1.992043
      f0      :     0.000628  f :     0.004653
      f+1     :     0.000750
      f-1     :     0.000555
      f+2     :     0.000892
      f-2     :     0.000432
      f+3     :     0.000862
      f-3     :     0.000533
 10 Aus       :     2.408623  s :     2.408623
      pz      :     2.198973  p :     6.492529
      px      :     2.209921
      py      :     2.083635
      dz2     :     2.006370  d :    10.015184
      dxz     :     1.997730
      dyz     :     2.012309
      dx2y2   :     1.985085
      dxy     :     2.013690
      f0      :     0.000483  f :     0.004042
      f+1     :     0.000430
      f-1     :     0.000748
      f+2     :     0.000440
      f-2     :     0.000816
      f+3     :     0.000463
      f-3     :     0.000661
 11 Aus       :     2.541432  s :     2.541432
      pz      :     2.214993  p :     6.524724
      px      :     2.195215
      py      :     2.114517
      dz2     :     1.996104  d :     9.945168
      dxz     :     1.995863
      dyz     :     1.985791
      dx2y2   :     1.980783
      dxy     :     1.986627
      f0      :     0.000532  f :     0.004958
      f+1     :     0.000754
      f-1     :     0.000752
      f+2     :     0.000707
      f-2     :     0.001051
      f+3     :     0.000481
      f-3     :     0.000682
 12 Fes       :     6.299552  s :     6.299552
      pz      :     4.226116  p :    12.693470
      px      :     4.225206
      py      :     4.242148
      dz2     :     1.491638  d :     7.215708
      dxz     :     1.383740
      dyz     :     1.440622
      dx2y2   :     1.464088
      dxy     :     1.435620
      f0      :     0.000055  f :     0.000508
      f+1     :     0.000070
      f-1     :     0.000099
      f+2     :     0.000059
      f-2     :     0.000074
      f+3     :     0.000045
      f-3     :     0.000106

SPIN
  0 Aus       :     0.002404  s :     0.002404
      pz      :     0.000527  p :     0.002839
      px      :     0.001470
      py      :     0.000842
      dz2     :     0.000667  d :     0.006721
      dxz     :     0.000943
      dyz     :     0.000720
      dx2y2   :     0.002374
      dxy     :     0.002017
      f0      :     0.000007  f :     0.000097
      f+1     :     0.000016
      f-1     :     0.000005
      f+2     :     0.000005
      f-2     :     0.000008
      f+3     :     0.000012
      f-3     :     0.000044
  1 Aus       :     0.001105  s :     0.001105
      pz      :     0.000806  p :     0.001726
      px      :     0.000832
      py      :     0.000088
      dz2     :     0.000703  d :     0.005072
      dxz     :     0.002524
      dyz     :     0.000740
      dx2y2   :     0.000488
      dxy     :     0.000617
      f0      :     0.000011  f :     0.000108
      f+1     :     0.000029
      f-1     :     0.000008
      f+2     :     0.000014
      f-2     :     0.000036
      f+3     :     0.000004
      f-3     :     0.000006
  2 Aus       :     0.000515  s :     0.000515
      pz      :     0.001129  p :     0.003423
      px      :     0.001055
      py      :     0.001239
      dz2     :     0.001064  d :     0.007160
      dxz     :     0.002160
      dyz     :     0.000490
      dx2y2   :     0.001218
      dxy     :     0.002228
      f0      :     0.000017  f :     0.000143
      f+1     :     0.000015
      f-1     :     0.000004
      f+2     :     0.000030
      f-2     :     0.000026
      f+3     :     0.000013
      f-3     :     0.000038
  3 Aus       :     0.002181  s :     0.002181
      pz      :     0.000633  p :     0.001496
      px      :     0.000697
      py      :     0.000166
      dz2     :     0.000053  d :     0.000482
      dxz     :     0.000065
      dyz     :     0.000150
      dx2y2   :     0.000047
      dxy     :     0.000167
      f0      :     0.000000  f :     0.000002
      f+1     :     0.000000
      f-1     :     0.000000
      f+2     :     0.000000
      f-2     :     0.000000
      f+3     :     0.000000
      f-3     :     0.000000
  4 Aus       :     0.002402  s :     0.002402
      pz      :     0.001446  p :     0.002834
      px      :     0.000546
      py      :     0.000843
      dz2     :     0.002629  d :     0.006696
      dxz     :     0.000871
      dyz     :     0.002120
      dx2y2   :     0.000370
      dxy     :     0.000705
      f0      :     0.000017  f :     0.000096
      f+1     :     0.000008
      f-1     :     0.000050
      f+2     :     0.000011
      f-2     :     0.000007
      f+3     :     0.000002
      f-3     :     0.000001
  5 Aus       :     0.000516  s :     0.000516
      pz      :     0.001161  p :     0.003416
      px      :     0.001019
      py      :     0.001236
      dz2     :     0.001383  d :     0.007188
      dxz     :     0.002300
      dyz     :     0.002028
      dx2y2   :     0.000836
      dxy     :     0.000641
      f0      :     0.000011  f :     0.000144
      f+1     :     0.000048
      f-1     :     0.000031
      f+2     :     0.000016
      f-2     :     0.000030
      f+3     :     0.000004
      f-3     :     0.000004
  6 Aus       :     0.000615  s :     0.000615
      pz      :     0.000819  p :     0.002026
      px      :     0.000775
      py      :     0.000431
      dz2     :     0.001520  d :     0.007918
      dxz     :     0.001572
      dyz     :     0.002143
      dx2y2   :     0.000817
      dxy     :     0.001866
      f0      :     0.000016  f :     0.000142
      f+1     :     0.000022
      f-1     :     0.000017
      f+2     :     0.000015
      f-2     :     0.000050
      f+3     :     0.000009
      f-3     :     0.000014
  7 Aus       :     0.002403  s :     0.002403
      pz      :     0.000883  p :     0.002832
      px      :     0.001252
      py      :     0.000696
      dz2     :     0.001467  d :     0.006663
      dxz     :     0.000807
      dyz     :     0.000542
      dx2y2   :     0.001388
      dxy     :     0.002460
      f0      :     0.000007  f :     0.000095
      f+1     :     0.000019
      f-1     :     0.000007
      f+2     :     0.000002
      f-2     :     0.000009
      f+3     :     0.000011
      f-3     :     0.000040
  8 Aus       :     0.002179  s :     0.002179
      pz      :     0.000558  p :     0.001497
      px      :     0.000636
      py      :     0.000303
      dz2     :     0.000178  d :     0.000482
      dxz     :     0.000057
      dyz     :     0.000073
      dx2y2   :     0.000095
      dxy     :     0.000079
      f0      :     0.000000  f :     0.000002
      f+1     :     0.000000
      f-1     :     0.000001
      f+2     :     0.000000
      f-2     :     0.000000
      f+3     :     0.000000
      f-3     :     0.000001
  9 Aus       :     0.002403  s :     0.002403
      pz      :     0.001239  p :     0.002840
      px      :     0.000878
      py      :     0.000723
      dz2     :     0.001942  d :     0.006733
      dxz     :     0.000938
      dyz     :     0.002614
      dx2y2   :     0.000768
      dxy     :     0.000471
      f0      :     0.000015  f :     0.000097
      f+1     :     0.000005
      f-1     :     0.000048
      f+2     :     0.000016
      f-2     :     0.000007
      f+3     :     0.000002
      f-3     :     0.000002
 10 Aus       :     0.001107  s :     0.001107
      pz      :     0.000562  p :     0.001725
      px      :     0.000628
      py      :     0.000535
      dz2     :     0.000823  d :     0.005060
      dxz     :     0.000225
      dyz     :     0.000847
      dx2y2   :     0.002343
      dxy     :     0.000822
      f0      :     0.000005  f :     0.000107
      f+1     :     0.000001
      f-1     :     0.000031
      f+2     :     0.000007
      f-2     :     0.000001
      f+3     :     0.000010
      f-3     :     0.000053
 11 Aus       :     0.000614  s :     0.000614
      pz      :     0.000547  p :     0.002027
      px      :     0.000545
      py      :     0.000935
      dz2     :     0.000836  d :     0.007914
      dxz     :     0.000164
      dyz     :     0.002275
      dx2y2   :     0.002434
      dxy     :     0.002205
      f0      :     0.000011  f :     0.000142
      f+1     :     0.000002
      f-1     :     0.000031
      f+2     :     0.000018
      f-2     :     0.000003
      f+3     :     0.000025
      f-3     :     0.000051
 12 Fes       :     0.000338  s :     0.000338
      pz      :     0.000595  p :     0.001699
      px      :     0.000627
      py      :     0.000477
      dz2     :     0.573319  d :     2.881574
      dxz     :     0.580334
      dyz     :     0.576415
      dx2y2   :     0.574574
      dxy     :     0.576931
      f0      :     0.000000  f :     0.000002
      f+1     :     0.000000
      f-1     :     0.000000
      f+2     :     0.000000
      f-2     :     0.000000
      f+3     :     0.000000
      f-3     :     0.000000


                      *****************************
                      * MAYER POPULATION ANALYSIS *
                      *****************************

  NA   - Mulliken gross atomic population
  ZA   - Total nuclear charge
  QA   - Mulliken gross atomic charge
  VA   - Mayer's total valence
  BVA  - Mayer's bonded valence
  FA   - Mayer's free valence

  ATOM       NA         ZA         QA         VA         BVA        FA
  0 Au    19.1573    19.0000    -0.1573     1.6989     1.6884     0.0105
  1 Au    18.6848    19.0000     0.3152     1.2790     1.2725     0.0065
  2 Au    18.5355    19.0000     0.4645     1.2464     1.2397     0.0068
  3 Au    18.5830    19.0000     0.4170     1.1049     1.1015     0.0034
  4 Au    19.1560    19.0000    -0.1560     1.6983     1.6878     0.0105
  5 Au    18.5363    19.0000     0.4637     1.2468     1.2400     0.0068
  6 Au    18.9947    19.0000     0.0053     1.6849     1.6775     0.0074
  7 Au    19.1568    19.0000    -0.1568     1.6993     1.6888     0.0104
  8 Au    18.5823    19.0000     0.4177     1.1045     1.1011     0.0034
  9 Au    19.1575    19.0000    -0.1575     1.6995     1.6889     0.0105
 10 Au    18.6849    19.0000     0.3151     1.2787     1.2722     0.0065
 11 Au    18.9940    19.0000     0.0060     1.6837     1.6763     0.0074
 12 Fe    27.7771    26.0000    -1.7771     8.8023     4.1978     4.6044

  Mayer bond orders larger than 0.100000
B(  0-Au,  1-Au) :   0.2385 B(  0-Au,  2-Au) :   0.2855 B(  0-Au,  3-Au) :   0.3051 
B(  0-Au,  4-Au) :   0.1849 B(  0-Au, 11-Au) :   0.1712 B(  0-Au, 12-Fe) :   0.4093 
B(  1-Au,  2-Au) :   0.1147 B(  1-Au,  4-Au) :   0.2398 B(  1-Au,  5-Au) :   0.1152 
B(  1-Au, 12-Fe) :   0.4210 B(  2-Au,  9-Au) :   0.2855 B(  2-Au, 10-Au) :   0.1150 
B(  2-Au, 12-Fe) :   0.3078 B(  3-Au,  4-Au) :   0.3043 B(  3-Au, 11-Au) :   0.3080 
B(  4-Au,  5-Au) :   0.2848 B(  4-Au, 11-Au) :   0.1714 B(  4-Au, 12-Fe) :   0.4087 
B(  5-Au,  7-Au) :   0.2854 B(  5-Au, 10-Au) :   0.1149 B(  5-Au, 12-Fe) :   0.3080 
B(  6-Au,  7-Au) :   0.1719 B(  6-Au,  8-Au) :   0.3080 B(  6-Au,  9-Au) :   0.1715 
B(  6-Au, 11-Au) :   0.4058 B(  6-Au, 12-Fe) :   0.4981 B(  7-Au,  8-Au) :   0.3043 
B(  7-Au,  9-Au) :   0.1852 B(  7-Au, 10-Au) :   0.2398 B(  7-Au, 12-Fe) :   0.4084 
B(  8-Au,  9-Au) :   0.3050 B(  9-Au, 10-Au) :   0.2387 B(  9-Au, 12-Fe) :   0.4093 
B( 10-Au, 12-Fe) :   0.4206 B( 11-Au, 12-Fe) :   0.4977 


-------------------------------------------------------------
 Forming the transition density       ... done in 12.936404 sec
-------------------------------------------------------------



==========================================
CASSCF UV, CD spectra and dipole moments
==========================================
-------------------
ABSORPTION SPECTRUM
-------------------

Center of mass           = ( 15.9306, 13.6283, 16.2341)
Nuclear contribution to the dipole moment =    -0.590683,    1.176579,   -0.636274 au

Calculating the Dipole integrals                  ... done
Transforming integrals                            ... done
Calculating the Linear Momentum integrals         ... done
Transforming integrals                            ... done
Calculating the Angular Momentum integrals        ... done
Transforming integrals                            ... done

------------------------------------------------------------------------------------------
                                ABSORPTION SPECTRUM
------------------------------------------------------------------------------------------
  States           Energy   Wavelength   fosc          T2        TX         TY        TZ  
                   (cm-1)     (nm)                   (D**2)      (D)        (D)       (D) 
------------------------------------------------------------------------------------------
  0( 0)-> 1( 0) 5     502.4   19904.2   0.000001099   0.00464   0.05008  -0.00099  -0.04619
  0( 0)-> 2( 0) 5    1199.6   8336.3   0.000000113   0.00020   0.00566  -0.01154   0.00591
  0( 0)-> 3( 0) 5    1696.8   5893.5   0.000000254   0.00032   0.00989   0.01018   0.01081
  0( 0)-> 4( 0) 5    2440.5   4097.6   0.000000000   0.00000  -0.00021  -0.00021  -0.00035
------------------------------------------------------------------------------------------



------------------------------------------------------------------------------
                             CD SPECTRUM
------------------------------------------------------------------------------
      States        Energy   Wavelength   R*T        RX        RY        RZ   
                    (cm-1)      (nm)   (1e40*sgs)   (au)      (au)      (au)  
------------------------------------------------------------------------------
  0( 0)-> 1( 0) 5     502.4   19904.2    -0.01732   0.51754   0.53653   0.55165
  0( 0)-> 2( 0) 5    1199.6   8336.3     0.00346   0.00318   0.00172   0.00346
  0( 0)-> 3( 0) 5    1696.8   5893.5     0.01086  -0.19598   0.00246   0.18244
  0( 0)-> 4( 0) 5    2440.5   4097.6     0.00759  -0.24285   0.51437  -0.27236
------------------------------------------------------------------------------

------------------------------------------------------------------------------
                                 DIPOLE MOMENTS
------------------------------------------------------------------------------
  Root  Block           TX        TY        TZ           |T|
                      (Debye)   (Debye)   (Debye)      (Debye)
------------------------------------------------------------------------------
    0    0           -0.41742   0.88355  -0.46602      1.08262

--------------
CASSCF TIMINGS
--------------

Total time                       ...    13779.4 sec
Sum of individual times          ...    13719.0 sec ( 99.6%)

Calculation of AO operators
   F(Core) operator              ...     6701.3 sec ( 48.6%)
   G(Act) operator               ...     6301.2 sec ( 45.7%)
   J(AO) operators               ...        0.0 sec (  0.0%)
Calculation of MO transformed quantities
   J(MO) operators               ...      529.1 sec (  3.8%)
   (pq|rs) integrals             ...        0.0 sec (  0.0%)
   AO->MO one electron integrals ...        6.4 sec (  0.0%)
Configuration interaction steps
   CI-setup phase                ...        0.0 sec (  0.0%)
   CI-solution phase             ...      115.6 sec (  0.8%)
   Generation of densities       ...       27.0 sec (  0.2%)
Orbital improvement steps
   Orbital gradient              ...        2.2 sec (  0.0%)
   O(1) converger                ...       23.3 sec (  0.2%)
Properties                       ...       12.9 sec (  0.1%)
   SOC integral calculation      ...        0.0 sec (  0.0%)
   SSC RMEs (incl. integrals)    ...        0.0 sec (  0.0%)
   SOC RMEs                      ...        0.0 sec (  0.0%)

Maximum memory used throughout the entire CASSCF-calculation: 311.0 MB

-------------------------   --------------------
FINAL SINGLE POINT ENERGY     -2880.100423617704
-------------------------   --------------------


                            ***************************************
                            *     ORCA property calculations      *
                            ***************************************

                                    ---------------------
                                    Active property flags
                                    ---------------------
   (+) Dipole Moment


------------------------------------------------------------------------------
                       ORCA ELECTRIC PROPERTIES CALCULATION
------------------------------------------------------------------------------

Dipole Moment Calculation                       ... on
Quadrupole Moment Calculation                   ... off
Polarizability Calculation                      ... off
GBWName                                         ... casscf.gbw
Electron density                                ... casscf.scfp
The origin for moment calculation is the CENTER OF MASS  = (15.930556, 13.628251 16.234116)

-------------
DIPOLE MOMENT
-------------
                                X             Y             Z
Electronic contribution:      0.40784      -0.78914       0.43160
Nuclear contribution   :     -0.59068       1.17658      -0.63627
                        -----------------------------------------
Total Dipole Moment    :     -0.18284       0.38744      -0.20467
                        -----------------------------------------
Magnitude (a.u.)       :      0.47479
Magnitude (Debye)      :      1.20683



--------------------
Rotational spectrum 
--------------------
 
Rotational constants in cm-1:     0.001733     0.001082     0.000967 
Rotational constants in MHz :    51.944645    32.447054    28.985232 

 Dipole components along the rotational axes: 
x,y,z [a.u.] :     0.000656    -0.474791     0.000082 
x,y,z [Debye]:     0.001667    -1.206824     0.000208 

 

Timings for individual modules:

Sum of individual times         ...    13873.396 sec (= 231.223 min)
GTO integral calculation        ...       43.058 sec (=   0.718 min)   0.3 %
SCF iterations                  ...       33.964 sec (=   0.566 min)   0.2 %
CASSCF iterations               ...    13796.374 sec (= 229.940 min)  99.4 %
                             ****ORCA TERMINATED NORMALLY****
TOTAL RUN TIME: 0 days 3 hours 51 minutes 14 seconds 624 msec
