
                                 *****************
                                 * O   R   C   A *
                                 *****************

                                            #,                                       
                                            ###                                      
                                            ####                                     
                                            #####                                    
                                            ######                                   
                                           ########,                                 
                                     ,,################,,,,,                         
                               ,,#################################,,                 
                          ,,##########################################,,             
                       ,#########################################, ''#####,          
                    ,#############################################,,   '####,        
                  ,##################################################,,,,####,       
                ,###########''''           ''''###############################       
              ,#####''   ,,,,##########,,,,          '''####'''          '####       
            ,##' ,,,,###########################,,,                        '##       
           ' ,,###''''                  '''############,,,                           
         ,,##''                                '''############,,,,        ,,,,,,###''
      ,#''                                            '''#######################'''  
     '                                                          ''''####''''         
             ,#######,   #######,   ,#######,      ##                                
            ,#'     '#,  ##    ##  ,#'     '#,    #''#        ######   ,####,        
            ##       ##  ##   ,#'  ##            #'  '#       #        #'  '#        
            ##       ##  #######   ##           ,######,      #####,   #    #        
            '#,     ,#'  ##    ##  '#,     ,#' ,#      #,         ##   #,  ,#        
             '#######'   ##     ##  '#######'  #'      '#     #####' # '####'        



                  #######################################################
                  #                        -***-                        #
                  #          Department of theory and spectroscopy      #
                  #    Directorship and core code : Frank Neese         #
                  #        Max Planck Institute fuer Kohlenforschung    #
                  #                Kaiser Wilhelm Platz 1               #
                  #                 D-45470 Muelheim/Ruhr               #
                  #                      Germany                        #
                  #                                                     #
                  #                  All rights reserved                #
                  #                        -***-                        #
                  #######################################################


                         Program Version 5.0.3 -  RELEASE  -


 With contributions from (in alphabetic order):
   Daniel Aravena         : Magnetic Suceptibility
   Michael Atanasov       : Ab Initio Ligand Field Theory (pilot matlab implementation)
   Alexander A. Auer      : GIAO ZORA, VPT2 properties, NMR spectrum
   Ute Becker             : Parallelization
   Giovanni Bistoni       : ED, misc. LED, open-shell LED, HFLD
   Martin Brehm           : Molecular dynamics
   Dmytro Bykov           : SCF Hessian
   Vijay G. Chilkuri      : MRCI spin determinant printing, contributions to CSF-ICE
   Dipayan Datta          : RHF DLPNO-CCSD density
   Achintya Kumar Dutta   : EOM-CC, STEOM-CC
   Dmitry Ganyushin       : Spin-Orbit,Spin-Spin,Magnetic field MRCI
   Miquel Garcia          : C-PCM and meta-GGA Hessian, CC/C-PCM, Gaussian charge scheme
   Yang Guo               : DLPNO-NEVPT2, F12-NEVPT2, CIM, IAO-localization
   Andreas Hansen         : Spin unrestricted coupled pair/coupled cluster methods
   Benjamin Helmich-Paris : MC-RPA, TRAH-SCF, COSX integrals
   Lee Huntington         : MR-EOM, pCC
   Robert Izsak           : Overlap fitted RIJCOSX, COSX-SCS-MP3, EOM
   Marcus Kettner         : VPT2
   Christian Kollmar      : KDIIS, OOCD, Brueckner-CCSD(T), CCSD density, CASPT2, CASPT2-K
   Simone Kossmann        : Meta GGA functionals, TD-DFT gradient, OOMP2, MP2 Hessian
   Martin Krupicka        : Initial AUTO-CI
   Lucas Lang             : DCDCAS
   Marvin Lechner         : AUTO-CI (C++ implementation), FIC-MRCC
   Dagmar Lenk            : GEPOL surface, SMD
   Dimitrios Liakos       : Extrapolation schemes; Compound Job, initial MDCI parallelization
   Dimitrios Manganas     : Further ROCIS development; embedding schemes
   Dimitrios Pantazis     : SARC Basis sets
   Anastasios Papadopoulos: AUTO-CI, single reference methods and gradients
   Taras Petrenko         : DFT Hessian,TD-DFT gradient, ASA, ECA, R-Raman, ABS, FL, XAS/XES, NRVS
   Peter Pinski           : DLPNO-MP2, DLPNO-MP2 Gradient
   Christoph Reimann      : Effective Core Potentials
   Marius Retegan         : Local ZFS, SOC
   Christoph Riplinger    : Optimizer, TS searches, QM/MM, DLPNO-CCSD(T), (RO)-DLPNO pert. Triples
   Tobias Risthaus        : Range-separated hybrids, TD-DFT gradient, RPA, STAB
   Michael Roemelt        : Original ROCIS implementation
   Masaaki Saitow         : Open-shell DLPNO-CCSD energy and density
   Barbara Sandhoefer     : DKH picture change effects
   Avijit Sen             : IP-ROCIS
   Kantharuban Sivalingam : CASSCF convergence, NEVPT2, FIC-MRCI
   Bernardo de Souza      : ESD, SOC TD-DFT
   Georgi Stoychev        : AutoAux, RI-MP2 NMR, DLPNO-MP2 response
   Willem Van den Heuvel  : Paramagnetic NMR
   Boris Wezisla          : Elementary symmetry handling
   Frank Wennmohs         : Technical directorship


 We gratefully acknowledge several colleagues who have allowed us to
 interface, adapt or use parts of their codes:
   Stefan Grimme, W. Hujo, H. Kruse, P. Pracht,  : VdW corrections, initial TS optimization,
                  C. Bannwarth, S. Ehlert          DFT functionals, gCP, sTDA/sTD-DF
   Ed Valeev, F. Pavosevic, A. Kumar             : LibInt (2-el integral package), F12 methods
   Garnet Chan, S. Sharma, J. Yang, R. Olivares  : DMRG
   Ulf Ekstrom                                   : XCFun DFT Library
   Mihaly Kallay                                 : mrcc  (arbitrary order and MRCC methods)
   Jiri Pittner, Ondrej Demel                    : Mk-CCSD
   Frank Weinhold                                : gennbo (NPA and NBO analysis)
   Christopher J. Cramer and Donald G. Truhlar   : smd solvation model
   Lars Goerigk                                  : TD-DFT with DH, B97 family of functionals
   V. Asgeirsson, H. Jonsson                     : NEB implementation
   FAccTs GmbH                                   : IRC, NEB, NEB-TS, DLPNO-Multilevel, CI-OPT
                                                   MM, QMMM, 2- and 3-layer-ONIOM, Crystal-QMMM,
                                                   LR-CPCM, SF, NACMEs, symmetry and pop. for TD-DFT,
                                                   nearIR, NL-DFT gradient (VV10), updates on ESD,
                                                   ML-optimized integration grids
   S Lehtola, MJT Oliveira, MAL Marques          : LibXC Library
   Liviu Ungur et al                             : ANISO software


 Your calculation uses the libint2 library for the computation of 2-el integrals
 For citations please refer to: http://libint.valeyev.net

 Your ORCA version has been built with support for libXC version: 5.1.0
 For citations please refer to: https://tddft.org/programs/libxc/

 This ORCA versions uses:
   CBLAS   interface :  Fast vector & matrix operations
   LAPACKE interface :  Fast linear algebra routines
   SCALAPACK package :  Parallel linear algebra routines
   Shared memory     :  Shared parallel matrices
   BLAS/LAPACK       :  OpenBLAS 0.3.15  USE64BITINT DYNAMIC_ARCH NO_AFFINITY Haswell SINGLE_THREADED
        Core in use  :  Haswell
   Copyright (c) 2011-2014, The OpenBLAS Project




***************************************
The coordinates will be read from file: pbe.xyz
***************************************


================================================================================

cite the ECPs for Au [Def2-ECP] as follows:
Ce-Yb(ecp-28): M. Dolg, H. Stoll, H.Preuss, J. Chem. Phys., 1989, 90, 1730-1734.
Y-Cd(ecp-28), Hf-Hg(ecp-46): D. Andrae,U. Haeussermann, M. Dolg, H. Stoll, H. Preuss, Theor. Chim. Acta, 1990, 77, 123-141.
In-Sb(ecp-28), Tl-Bi(ecp-46): B. Metz, H. Stoll, M. Dolg, J. Chem. Phys., 2000, 113, 2563-2569.
Te-Xe(ecp-28), Po-Rn(ecp-46): K. A. Peterson, D. Figgen, E. Goll, H. Stoll, M. Dolg, J. Chem. Phys., 2003, 119, 11113-11123.
Rb(ecp-28), Cs(ecp-46): T. Leininger, A. Nicklass, W. Kuechle, H. Stoll, M. Dolg, A. Bergner, Chem. Phys. Lett., 1996, 255, 274-280.
Sr(ecp-28), Ba(ecp-46): M. Kaupp, P. V. Schleyer, H. Stoll and H. Preuss, J. Chem. Phys., 1991, 94, 1360-1366.
La(ecp-46): M. Dolg, H. Stoll, A. Savin, H. Preuss, Theor. Chim. Acta, 1989, 75, 173-194.
Lu(ecp-28): X. Cao, M. Dolg, J. Chem. Phys., 2001, 115, 7348-7355.

ECP parameters for Au [Def2-ECP] have been obtained from:
TURBOMOLE (7.0.2)

----- Orbital basis set information -----
Your calculation utilizes the basis: def2-TZVP
   F. Weigend and R. Ahlrichs, Phys. Chem. Chem. Phys. 7, 3297 (2005).

----- AuxJ basis set information -----
Your calculation utilizes the auxiliary basis: def2/J
   F. Weigend, Phys. Chem. Chem. Phys. 8, 1057 (2006).

----- AuxC basis set information -----
Your calculation utilizes the auxiliary basis: def2-TZVP/C
  H-La, Hf-Rn : A. Hellweg, C. Hattig, S. Hofener and W. Klopper, Theor. Chem. Acc. 117, 587 (2007).
        Ce-Lu : J. Chmela and M. E. Harding, Mol. Phys. (2018).

================================================================================
                                        WARNINGS
                       Please study these warnings very carefully!
================================================================================


INFO   : the flag for use of the SHARK integral package has been found!

================================================================================
                                       INPUT FILE
================================================================================
NAME = casscf.inp
|  1> !CASSCF def2-TZVP def2-TZVP/C
|  2> !MOREAD RIJCOSX
|  3> %maxcore 6000
|  4> %moinp "pbe.qro"
|  5> %pal nprocs 2 end 
|  6> 
|  7> %casscf
|  8>  mult 5,3
|  9>  bweight 1,1
| 10>  nroots 5,45
| 11>  nel 6
| 12>  norb 5
| 13> end
| 14> 
| 15> 
| 16> *xyzfile 0 5 pbe.xyz
| 17> 
| 18> 
| 19>                          ****END OF INPUT****
================================================================================

                       ****************************
                       * Single Point Calculation *
                       ****************************

---------------------------------
CARTESIAN COORDINATES (ANGSTROEM)
---------------------------------
  Au    10.403558    5.440320    7.810247
  Au     8.553476    3.466189    8.573691
  Au    10.245123    4.481904   10.536539
  Au     7.577303    4.191161   11.285099
  Au     8.861205    6.583079   11.999990
  Au     6.010365    4.741350    8.961433
  Au     8.079530    8.524694   10.362126
  Au     7.372447    9.826476    8.027754
  Au     9.124053    7.749233    7.525863
  Au     6.306813    7.339358    8.342165
  Cr     8.344437    6.025103    9.427401

----------------------------
CARTESIAN COORDINATES (A.U.)
----------------------------
  NO LB      ZA    FRAG     MASS         X           Y           Z
   0 Au   19.0000*   0   196.966   19.659875   10.280715   14.759227
   1 Au   19.0000*   0   196.966   16.163727    6.550148   16.201927
   2 Au   19.0000*   0   196.966   19.360477    8.469571   19.911172
   3 Au   19.0000*   0   196.966   14.319028    7.920147   21.325747
   4 Au   19.0000*   0   196.966   16.745251   12.440217   22.676694
   5 Au   19.0000*   0   196.966   11.357944    8.959853   16.934655
   6 Au   19.0000*   0   196.966   15.268098   16.109337   19.581581
   7 Au   19.0000*   0   196.966   13.931906   18.569349   15.170256
   8 Au   19.0000*   0   196.966   17.241962   14.643928   14.221820
   9 Au   19.0000*   0   196.966   11.918149   13.869376   15.764407
  10 Cr   24.0000    0    52.000   15.768700   11.385795   17.815207
* core charge reduced due to ECP

--------------------------------
INTERNAL COORDINATES (ANGSTROEM)
--------------------------------
 Au     0   0   0     0.000000000000     0.00000000     0.00000000
 Au     1   0   0     2.811199461883     0.00000000     0.00000000
 Au     2   1   0     2.783184578328    62.30538328     0.00000000
 Au     3   2   1     2.786061304684    64.49366709   136.14943670
 Au     4   3   2     2.807266499849    62.71388625   224.60001793
 Au     4   3   2     2.856120731970   106.65728894   325.60633129
 Au     5   4   3     2.657720665399   109.33052127   103.20451722
 Au     7   5   4     2.764760226220   159.97329071   318.43910397
 Au     1   2   3     2.655011327872   108.82192782   256.12147718
 Au     6   4   3     2.687195490654   108.25262474   293.18668503
 Cr    10   6   4     2.656485113068    60.80125135    32.94660669

---------------------------
INTERNAL COORDINATES (A.U.)
---------------------------
 Au     0   0   0     0.000000000000     0.00000000     0.00000000
 Au     1   0   0     5.312397090785     0.00000000     0.00000000
 Au     2   1   0     5.259456633192    62.30538328     0.00000000
 Au     3   2   1     5.264892858168    64.49366709   136.14943670
 Au     4   3   2     5.304964869646    62.71388625   224.60001793
 Au     4   3   2     5.397285988839   106.65728894   325.60633129
 Au     5   4   3     5.022364198067   109.33052127   103.20451722
 Au     7   5   4     5.224639653513   159.97329071   318.43910397
 Au     1   2   3     5.017244292136   108.82192782   256.12147718
 Au     6   4   3     5.078063545645   108.25262474   293.18668503
 Cr    10   6   4     5.020029342537    60.80125135    32.94660669

---------------------
BASIS SET INFORMATION
---------------------
There are 2 groups of distinct atoms

 Group   1 Type Au  : 8s7p6d1f contracted to 6s4p3d1f pattern {311111/4111/411/1}
 Group   2 Type Cr  : 17s11p7d1f contracted to 6s4p4d1f pattern {842111/6311/4111/1}

Atom   0Au   basis set group =>   1
Atom   1Au   basis set group =>   1
Atom   2Au   basis set group =>   1
Atom   3Au   basis set group =>   1
Atom   4Au   basis set group =>   1
Atom   5Au   basis set group =>   1
Atom   6Au   basis set group =>   1
Atom   7Au   basis set group =>   1
Atom   8Au   basis set group =>   1
Atom   9Au   basis set group =>   1
Atom  10Cr   basis set group =>   2
---------------------------------
AUXILIARY/J BASIS SET INFORMATION
---------------------------------
There are 2 groups of distinct atoms

 Group   1 Type Au  : 11s5p5d3f3g contracted to 8s5p5d2f3g pattern {41111111/11111/11111/21/111}
 Group   2 Type Cr  : 19s5p5d3f3g contracted to 8s5p5d2f3g pattern {121111111/11111/11111/21/111}

Atom   0Au   basis set group =>   1
Atom   1Au   basis set group =>   1
Atom   2Au   basis set group =>   1
Atom   3Au   basis set group =>   1
Atom   4Au   basis set group =>   1
Atom   5Au   basis set group =>   1
Atom   6Au   basis set group =>   1
Atom   7Au   basis set group =>   1
Atom   8Au   basis set group =>   1
Atom   9Au   basis set group =>   1
Atom  10Cr   basis set group =>   2
---------------------------------
AUXILIARY/C BASIS SET INFORMATION
---------------------------------
There are 2 groups of distinct atoms

 Group   1 Type Au  : 8s8p7d5f3g2h contracted to 8s8p7d5f3g2h pattern {11111111/11111111/1111111/11111/111/11}
 Group   2 Type Cr  : 11s9p8d6f5g2h contracted to 9s8p8d6f5g2h pattern {311111111/21111111/11111111/111111/11111/11}

Atom   0Au   basis set group =>   1
Atom   1Au   basis set group =>   1
Atom   2Au   basis set group =>   1
Atom   3Au   basis set group =>   1
Atom   4Au   basis set group =>   1
Atom   5Au   basis set group =>   1
Atom   6Au   basis set group =>   1
Atom   7Au   basis set group =>   1
Atom   8Au   basis set group =>   1
Atom   9Au   basis set group =>   1
Atom  10Cr   basis set group =>   2
-------------------------
ECP PARAMETER INFORMATION
-------------------------

 Group 1, Type Au ECP Def2-ECP (replacing 60 core electrons, lmax=3)

Atom   0Au   ECP group =>   1
Atom   1Au   ECP group =>   1
Atom   2Au   ECP group =>   1
Atom   3Au   ECP group =>   1
Atom   4Au   ECP group =>   1
Atom   5Au   ECP group =>   1
Atom   6Au   ECP group =>   1
Atom   7Au   ECP group =>   1
Atom   8Au   ECP group =>   1
Atom   9Au   ECP group =>   1



           ************************************************************
           *        Program running with 2 parallel MPI-processes     *
           *              working on a common directory               *
           ************************************************************
------------------------------------------------------------------------------
                           ORCA GTO INTEGRAL CALCULATION
                           -- RI-GTO INTEGRALS CHOSEN --
------------------------------------------------------------------------------
------------------------------------------------------------------------------
                   ___                                                        
                  /   \      - P O W E R E D   B Y -                         
                 /     \                                                     
                 |  |  |   _    _      __       _____    __    __             
                 |  |  |  | |  | |    /  \     |  _  \  |  |  /  |          
                  \  \/   | |  | |   /    \    | | | |  |  | /  /          
                 / \  \   | |__| |  /  /\  \   | |_| |  |  |/  /          
                |  |  |   |  __  | /  /__\  \  |    /   |      \           
                |  |  |   | |  | | |   __   |  |    \   |  |\   \          
                \     /   | |  | | |  |  |  |  | |\  \  |  | \   \       
                 \___/    |_|  |_| |__|  |__|  |_| \__\ |__|  \__/        
                                                                              
                      - O R C A' S   B I G   F R I E N D -                    
                                      &                                       
                       - I N T E G R A L  F E E D E R -                       
                                                                              
 v1 FN, 2020, v2 2021                                                         
------------------------------------------------------------------------------


Reading SHARK input file casscf.SHARKINP.tmp ... ok
----------------------
SHARK INTEGRAL PACKAGE
----------------------

Number of atoms                             ...     11
Number of basis functions                   ...    445
Number of shells                            ...    155
Maximum angular momentum                    ...      3
Integral batch strategy                     ... SHARK/LIBINT Hybrid
RI-J (if used) integral strategy            ... SPLIT-RIJ (Revised 2003 algorithm where possible)
Printlevel                                  ...      1
Contraction scheme used                     ... SEGMENTED contraction
Coulomb Range Separation                    ... NOT USED
Exchange Range Separation                   ... NOT USED
Finite Nucleus Model                        ... NOT USED
Auxiliary Coulomb fitting basis             ... AVAILABLE
   # of basis functions in Aux-J            ...    979
   # of shells in Aux-J                     ...    253
   Maximum angular momentum in Aux-J        ...      4
Auxiliary J/K fitting basis                 ... NOT available
Auxiliary Correlation fitting basis         ... AVAILABLE
   # of basis functions in Aux-C            ...   1692
   # of shells in Aux-C                     ...    368
   Maximum angular momentum in Aux-C        ...      5
Auxiliary 'external' fitting basis          ... NOT available
Integral threshold                          ...     1.000000e-10
Primitive cut-off                           ...     1.000000e-11
Primitive pair pre-selection threshold      ...     1.000000e-11

Calculating pre-screening integrals         ... done (  0.4 sec) Dimension = 155
Organizing shell pair data                  ... done (  0.5 sec)
Shell pair information
Total number of shell pairs                 ...     12090
Shell pairs after pre-screening             ...     10025
Total number of primitive shell pairs       ...     33105
Primitive shell pairs kept                  ...     20282
          la=0 lb=0:   1567 shell pairs
          la=1 lb=0:   2296 shell pairs
          la=1 lb=1:    850 shell pairs
          la=2 lb=0:   1989 shell pairs
          la=2 lb=1:   1392 shell pairs
          la=2 lb=2:    579 shell pairs
          la=3 lb=0:    541 shell pairs
          la=3 lb=1:    404 shell pairs
          la=3 lb=2:    350 shell pairs
          la=3 lb=3:     57 shell pairs

Calculating one electron integrals          ... done (  0.3 sec)
Calculating ECP integrals                   ... done (  9.7 sec)
Calculating RI/J V-Matrix + Cholesky decomp.... done (  0.3 sec)
Calculating RI/C V-Matrix + Cholesky decomp.... done (  2.2 sec)
Calculating Nuclear repulsion               ... done (  0.0 sec) ENN=   3138.270678506287 Eh

SHARK setup successfully completed in  14.5 seconds

Maximum memory used throughout the entire GTOINT-calculation: 52.1 MB


           ************************************************************
           *        Program running with 2 parallel MPI-processes     *
           *              working on a common directory               *
           ************************************************************
-------------------------------------------------------------------------------
                                 ORCA SCF
-------------------------------------------------------------------------------

------------
SCF SETTINGS
------------
Hamiltonian:
 Ab initio Hamiltonian  Method          .... Hartree-Fock(GTOs)
 RI-approximation to the Coulomb term is turned on
   Number of AuxJ basis functions       .... 979
   RIJ-COSX (HFX calculated with COS-X)).... on


General Settings:
 Integral files         IntName         .... casscf
 Hartree-Fock type      HFTyp           .... CASSCF
 Total Charge           Charge          ....    0
 Multiplicity           Mult            ....    5
 Number of Electrons    NEL             ....  214
 Basis Dimension        Dim             ....  445
 Nuclear Repulsion      ENuc            ....   3138.2706785063 Eh


Diagonalization of the overlap matrix:
Smallest eigenvalue                        ... 2.502e-04
Time for diagonalization                   ...    0.067 sec
Threshold for overlap eigenvalues          ... 1.000e-08
Number of eigenvalues below threshold      ... 0
Time for construction of square roots      ...    0.178 sec
Total time needed                          ...    0.245 sec

---------------------
INITIAL GUESS: MOREAD
---------------------
Guess MOs are being read from file: pbe.qro
Input Geometry matches current geometry (good)
Input basis set matches current basis set (good)
MOs were renormalized
Gram-Schmidt orthogonalization of all MOs with pivot on actives
                      ------------------
                      INITIAL GUESS DONE (   1.5 sec)
                      ------------------
--------------------
COSX GRID GENERATION
--------------------

GRIDX 1
-------
General Integration Accuracy     IntAcc      ... 3.816
Radial Grid Type                 RadialGrid  ... OptM3 with GC (2021)
Angular Grid (max. ang.)         AngularGrid ... 1 (Lebedev-50)
Angular grid pruning method      GridPruning ... 4 (adaptive)
Weight generation scheme         WeightScheme... Becke
Basis function cutoff            BFCut       ... 1.0000e-10
Integration weight cutoff        WCut        ... 1.0000e-14
Angular grids for H and He will be reduced by one unit
Partially contracted basis set               ... on
Rotationally invariant grid construction     ... off

Total number of grid points                  ...    13084
Total number of batches                      ...      212
Average number of points per batch           ...       61
Average number of grid points per atom       ...     1189
UseSFitting                                  ... on

GRIDX 2
-------
General Integration Accuracy     IntAcc      ... 4.020
Radial Grid Type                 RadialGrid  ... OptM3 with GC (2021)
Angular Grid (max. ang.)         AngularGrid ... 2 (Lebedev-110)
Angular grid pruning method      GridPruning ... 4 (adaptive)
Weight generation scheme         WeightScheme... Becke
Basis function cutoff            BFCut       ... 1.0000e-10
Integration weight cutoff        WCut        ... 1.0000e-14
Angular grids for H and He will be reduced by one unit
Partially contracted basis set               ... on
Rotationally invariant grid construction     ... off

Total number of grid points                  ...    39420
Total number of batches                      ...      622
Average number of points per batch           ...       63
Average number of grid points per atom       ...     3584
UseSFitting                                  ... on

GRIDX 3
-------
General Integration Accuracy     IntAcc      ... 4.338
Radial Grid Type                 RadialGrid  ... OptM3 with GC (2021)
Angular Grid (max. ang.)         AngularGrid ... 3 (Lebedev-194)
Angular grid pruning method      GridPruning ... 4 (adaptive)
Weight generation scheme         WeightScheme... Becke
Basis function cutoff            BFCut       ... 1.0000e-10
Integration weight cutoff        WCut        ... 1.0000e-14
Angular grids for H and He will be reduced by one unit
Partially contracted basis set               ... on
Rotationally invariant grid construction     ... off

Total number of grid points                  ...    72577
Total number of batches                      ...     1140
Average number of points per batch           ...       63
Average number of grid points per atom       ...     6598
UseSFitting                                  ... on

Time for X-Grid setup             =    6.008 sec



 ... the calculation is a CASSCF calculation -I'm leaving here GOOD LUCK!!!



           ************************************************************
           *        Program running with 2 parallel MPI-processes     *
           *              working on a common directory               *
           ************************************************************
-------------------------------------------------------------------------------
                              ORCA-CASSCF
-------------------------------------------------------------------------------

Setting up the integral package       ... done
Setting up the integral package (RI)  ... done
Building the CAS space                ... done (5 configurations for Mult=5)
Building the CAS space                ... done (35 configurations for Mult=3)

SYSTEM-SPECIFIC SETTINGS:
Number of active electrons          ...    6
Number of active orbitals           ...    5
Total number of electrons           ...  214
Total number of orbitals            ...  445
Total number aux. functions         ... 1692

Determined orbital ranges:
   Internal       0 -  103 ( 104 orbitals)
   Active       104 -  108 (   5 orbitals)
   External     109 -  444 ( 336 orbitals)
Number of rotation parameters      ...  37144

CI-STEP:
CI strategy                         ... General CI
Number of multiplicity blocks       ...    2
BLOCK  1 WEIGHT=   0.5000
  Multiplicity                      ...    5
  #(Configurations)                 ...    5
  #(CSFs)                           ...    5
  #(Roots)                          ...    5
    ROOT=0 WEIGHT=    0.100000
    ROOT=1 WEIGHT=    0.100000
    ROOT=2 WEIGHT=    0.100000
    ROOT=3 WEIGHT=    0.100000
    ROOT=4 WEIGHT=    0.100000

BLOCK  2 WEIGHT=   0.5000
  Multiplicity                      ...    3
  #(Configurations)                 ...   35
  #(CSFs)                           ...   45
  #(Roots)                          ...   45
    ROOT=0 WEIGHT=    0.011111
    ROOT=1 WEIGHT=    0.011111
    ROOT=2 WEIGHT=    0.011111
    ROOT=3 WEIGHT=    0.011111
    ROOT=4 WEIGHT=    0.011111
    ROOT=5 WEIGHT=    0.011111
    ROOT=6 WEIGHT=    0.011111
    ROOT=7 WEIGHT=    0.011111
    ROOT=8 WEIGHT=    0.011111
    ROOT=9 WEIGHT=    0.011111
    ROOT=10 WEIGHT=    0.011111
    ROOT=11 WEIGHT=    0.011111
    ROOT=12 WEIGHT=    0.011111
    ROOT=13 WEIGHT=    0.011111
    ROOT=14 WEIGHT=    0.011111
    ROOT=15 WEIGHT=    0.011111
    ROOT=16 WEIGHT=    0.011111
    ROOT=17 WEIGHT=    0.011111
    ROOT=18 WEIGHT=    0.011111
    ROOT=19 WEIGHT=    0.011111
    ROOT=20 WEIGHT=    0.011111
    ROOT=21 WEIGHT=    0.011111
    ROOT=22 WEIGHT=    0.011111
    ROOT=23 WEIGHT=    0.011111
    ROOT=24 WEIGHT=    0.011111
    ROOT=25 WEIGHT=    0.011111
    ROOT=26 WEIGHT=    0.011111
    ROOT=27 WEIGHT=    0.011111
    ROOT=28 WEIGHT=    0.011111
    ROOT=29 WEIGHT=    0.011111
    ROOT=30 WEIGHT=    0.011111
    ROOT=31 WEIGHT=    0.011111
    ROOT=32 WEIGHT=    0.011111
    ROOT=33 WEIGHT=    0.011111
    ROOT=34 WEIGHT=    0.011111
    ROOT=35 WEIGHT=    0.011111
    ROOT=36 WEIGHT=    0.011111
    ROOT=37 WEIGHT=    0.011111
    ROOT=38 WEIGHT=    0.011111
    ROOT=39 WEIGHT=    0.011111
    ROOT=40 WEIGHT=    0.011111
    ROOT=41 WEIGHT=    0.011111
    ROOT=42 WEIGHT=    0.011111
    ROOT=43 WEIGHT=    0.011111
    ROOT=44 WEIGHT=    0.011111

  PrintLevel                        ...    1
  N(GuessMat)                       ...       512
  MaxDim(CI)                        ...        10
  MaxIter(CI)                       ...        64
  Energy Tolerance CI               ...  1.00e-08
  Residual Tolerance CI             ...  1.00e-08
  Shift(CI)                         ...  1.00e-04

INTEGRAL-TRANSFORMATION-STEP:
  Algorithm                         ... RI-MO

ORBITAL-IMPROVEMENT-STEP:
  Algorithm                         ... SuperCI(PT)
  Default Parametrization           ... CAYLEY
  Act-Act rotations                 ... depends on algorithm used

  Note: SuperCI(PT) will ignore FreezeIE, FreezeAct and FreezeGrad. In general Default settings are encouraged.
        In conjunction with ShiftUp, ShiftDn or GradScaling the performance of SuperCI(PT) is less optimal.  

  MaxRot                            ... 2.00e-01 
  Max. no of vectors (DIIS)         ... 15
  DThresh (cut-off) metric          ... 1.00e-06
  Switch step at gradient           ...  3.00e-02 
  Switch step at iteration          ...        50   
  Switch step to                    ... SuperCI(PT)    

SCF-SETTINGS:
  Incremental                       ... off
  RIJCOSX approximation             ... on
  UseFinalGrid                      ... on
  RI-JK approximation               ... off
  AO integral handling              ... DIRECT
  Integral Neglect Thresh           ...  1.00e-10
  Primitive cutoff TCut             ...  1.00e-11
  Energy convergence tolerance      ...  1.00e-07
  Orbital gradient convergence      ...  1.00e-03
  Max. number of iterations         ...        75  


FINAL ORBITALS:
  Active   Orbitals                 ... natural 
  Internal Orbitals                 ... canonical 
  External Orbitals                 ... canonical 

------------------
CAS-SCF ITERATIONS
------------------


MACRO-ITERATION   1: 
   --- Inactive Energy E0 = -2383.84798304 Eh
CI-ITERATION   0: 
 -2391.017810472   0.000000000000 (    0.00)
 -2390.960051483   0.000000000000
 -2390.837657951   0.000000000000
 -2390.831464441   0.000000000000
 -2390.825992429   0.000000000000
   CI-PROBLEM SOLVED
   DENSITIES MADE
CI-ITERATION   0: 
 -2390.974281396   0.000000000000 (    0.00)
 -2390.950892503   0.000000000000
 -2390.950433820   0.000000000000
 -2390.946168824   0.000000000000
 -2390.941972063   0.000000000000
 -2390.940815604   0.000000000000
 -2390.940124393   0.000000000000
 -2390.935641948   0.000000000000
 -2390.935346070   0.000000000000
 -2390.926752735   0.000000000000
 -2390.919917635   0.000000000000
 -2390.904289311   0.000000000000
 -2390.903587000   0.000000000000
 -2390.900967534   0.000000000000
 -2390.897950783   0.000000000000
 -2390.893236191   0.000000000000
 -2390.888838833   0.000000000000
 -2390.885288263   0.000000000000
 -2390.884336148   0.000000000000
 -2390.879950548   0.000000000000
 -2390.873895752   0.000000000000
 -2390.860878452   0.000000000000
 -2390.840103639   0.000000000000
 -2390.831616924   0.000000000000
 -2390.812324783   0.000000000000
 -2390.810121538   0.000000000000
 -2390.803009239   0.000000000000
 -2390.800242337   0.000000000000
 -2390.792813832   0.000000000000
 -2390.787201698   0.000000000000
 -2390.782038097   0.000000000000
 -2390.781166189   0.000000000000
 -2390.766718335   0.000000000000
 -2390.765393328   0.000000000000
 -2390.760977919   0.000000000000
 -2390.692757676   0.000000000000
 -2390.681167700   0.000000000000
 -2390.660480813   0.000000000000
 -2390.647553196   0.000000000000
 -2390.617647805   0.000000000000
 -2390.605711759   0.000000000000
 -2390.577979974   0.000000000000
 -2390.445730784   0.000000000000
 -2390.436933795   0.000000000000
 -2390.405701687   0.000000000000
   CI-PROBLEM SOLVED
   DENSITIES MADE

                 <<<<<<<<<<<<<<<<<<INITIAL CI STATE CHECK>>>>>>>>>>>>>>>>>>

BLOCK  1 MULT= 5 NROOTS= 5 
ROOT   0:  E=   -2391.0178104724 Eh
      0.99998 [     4]: 21111
ROOT   1:  E=   -2390.9600514827 Eh  1.572 eV  12676.6 cm**-1
      0.99941 [     3]: 12111
ROOT   2:  E=   -2390.8376579515 Eh  4.902 eV  39538.9 cm**-1
      0.99140 [     0]: 11112
      0.00703 [     1]: 11121
ROOT   3:  E=   -2390.8314644406 Eh  5.071 eV  40898.2 cm**-1
      0.97767 [     2]: 11211
      0.02195 [     1]: 11121
ROOT   4:  E=   -2390.8259924295 Eh  5.220 eV  42099.2 cm**-1
      0.97101 [     1]: 11121
      0.02130 [     2]: 11211
      0.00766 [     0]: 11112

BLOCK  2 MULT= 3 NROOTS=45 
ROOT   0:  E=   -2390.9742813957 Eh
      0.96732 [    28]: 21111
      0.01052 [    27]: 21102
      0.00954 [    29]: 21120
      0.00582 [    33]: 22101
      0.00348 [    34]: 22110
ROOT   1:  E=   -2390.9508925028 Eh  0.636 eV   5133.3 cm**-1
      0.89643 [    28]: 21111
      0.04089 [    34]: 22110
      0.02489 [    30]: 21201
      0.02028 [    26]: 21021
      0.00584 [    22]: 20112
      0.00336 [    23]: 20121
      0.00303 [    16]: 12021
ROOT   2:  E=   -2390.9504338203 Eh  0.649 eV   5233.9 cm**-1
      0.46357 [    30]: 21201
      0.37497 [    26]: 21021
      0.04541 [    28]: 21111
      0.04382 [    32]: 22011
      0.03872 [    18]: 12111
      0.01227 [    24]: 20211
      0.00856 [    25]: 21012
      0.00837 [    31]: 21210
ROOT   3:  E=   -2390.9461688245 Eh  0.765 eV   6170.0 cm**-1
      0.55491 [    33]: 22101
      0.23013 [    34]: 22110
      0.15854 [    28]: 21111
      0.02153 [    27]: 21102
      0.01848 [    23]: 20121
      0.00401 [    21]: 12210
      0.00358 [    22]: 20112
      0.00345 [    32]: 22011
ROOT   4:  E=   -2390.9419720634 Eh  0.879 eV   7091.1 cm**-1
      0.40134 [    25]: 21012
      0.29738 [    31]: 21210
      0.16493 [    18]: 12111
      0.10096 [    32]: 22011
      0.02234 [    30]: 21201
      0.00445 [    27]: 21102
      0.00283 [    24]: 20211
ROOT   5:  E=   -2390.9408156045 Eh  0.911 eV   7344.9 cm**-1
      0.59351 [    32]: 22011
      0.09199 [    27]: 21102
      0.08410 [    18]: 12111
      0.08287 [    29]: 21120
      0.06192 [    30]: 21201
      0.02930 [    31]: 21210
      0.01365 [    24]: 20211
      0.01262 [    34]: 22110
      0.01169 [    33]: 22101
      0.00553 [    28]: 21111
      0.00502 [    25]: 21012
      0.00372 [    26]: 21021
ROOT   6:  E=   -2390.9401243930 Eh  0.929 eV   7496.6 cm**-1
      0.36317 [    27]: 21102
      0.29972 [    29]: 21120
      0.13884 [    32]: 22011
      0.05542 [    34]: 22110
      0.05460 [    28]: 21111
      0.02100 [    31]: 21210
      0.02088 [    18]: 12111
      0.01230 [    30]: 21201
      0.01212 [    33]: 22101
      0.00927 [    25]: 21012
      0.00354 [    22]: 20112
      0.00274 [    24]: 20211
ROOT   7:  E=   -2390.9356419481 Eh  1.051 eV   8480.4 cm**-1
      0.54531 [    28]: 21111
      0.22627 [    18]: 12111
      0.07897 [    34]: 22110
      0.03482 [    31]: 21210
      0.03401 [    33]: 22101
      0.02465 [    25]: 21012
      0.02402 [    26]: 21021
      0.01587 [    29]: 21120
      0.00667 [    32]: 22011
ROOT   8:  E=   -2390.9353460704 Eh  1.059 eV   8545.3 cm**-1
      0.43697 [    18]: 12111
      0.25052 [    28]: 21111
      0.09734 [    31]: 21210
      0.06523 [    25]: 21012
      0.04782 [    26]: 21021
      0.03613 [    34]: 22110
      0.03481 [    32]: 22011
      0.02560 [    33]: 22101
ROOT   9:  E=   -2390.9267527349 Eh  1.293 eV  10431.3 cm**-1
      0.47214 [    34]: 22110
      0.29888 [    33]: 22101
      0.06611 [    27]: 21102
      0.05175 [    28]: 21111
      0.03445 [    29]: 21120
      0.03405 [    22]: 20112
      0.02118 [    23]: 20121
      0.01249 [    20]: 12201
      0.00384 [    16]: 12021
ROOT  10:  E=   -2390.9199176354 Eh  1.479 eV  11931.5 cm**-1
      0.43911 [    26]: 21021
      0.29655 [    30]: 21201
      0.11180 [    24]: 20211
      0.07422 [    18]: 12111
      0.02842 [    25]: 21012
      0.02195 [    32]: 22011
      0.01292 [    31]: 21210
      0.00595 [    11]: 11121
      0.00570 [    19]: 12120
ROOT  11:  E=   -2390.9042893107 Eh  1.905 eV  15361.5 cm**-1
      0.19434 [    16]: 12021
      0.14511 [    18]: 12111
      0.10813 [    20]: 12201
      0.09709 [    15]: 12012
      0.09556 [    29]: 21120
      0.09111 [    31]: 21210
      0.07816 [    25]: 21012
      0.06583 [    27]: 21102
      0.03708 [    22]: 20112
      0.03002 [    23]: 20121
      0.02905 [    24]: 20211
      0.01052 [    21]: 12210
      0.00646 [    30]: 21201
      0.00547 [    26]: 21021
ROOT  12:  E=   -2390.9035869998 Eh  1.924 eV  15515.6 cm**-1
      0.34836 [    18]: 12111
      0.13334 [    31]: 21210
      0.11723 [    25]: 21012
      0.08370 [    16]: 12021
      0.06656 [    15]: 12012
      0.06025 [    20]: 12201
      0.05645 [    29]: 21120
      0.03694 [    24]: 20211
      0.03555 [    27]: 21102
      0.02135 [    23]: 20121
      0.02002 [    22]: 20112
      0.00555 [    21]: 12210
      0.00324 [    30]: 21201
      0.00308 [    17]: 12102
      0.00273 [    26]: 21021
ROOT  13:  E=   -2390.9009675345 Eh  1.995 eV  16090.5 cm**-1
      0.44058 [    18]: 12111
      0.34979 [    17]: 12102
      0.05609 [    31]: 21210
      0.04746 [    25]: 21012
      0.02246 [    26]: 21021
      0.01770 [    30]: 21201
      0.01526 [    15]: 12012
      0.01477 [    16]: 12021
      0.01460 [    19]: 12120
      0.00483 [    20]: 12201
      0.00381 [    22]: 20112
      0.00369 [    23]: 20121
ROOT  14:  E=   -2390.8979507833 Eh  2.077 eV  16752.6 cm**-1
      0.31562 [    23]: 20121
      0.28592 [    22]: 20112
      0.12186 [    16]: 12021
      0.06492 [    20]: 12201
      0.05642 [    15]: 12012
      0.04868 [    27]: 21102
      0.04596 [    29]: 21120
      0.01570 [    18]: 12111
      0.01179 [    17]: 12102
      0.00811 [    21]: 12210
      0.00493 [    13]: 11211
      0.00358 [    25]: 21012
      0.00353 [    24]: 20211
      0.00348 [    31]: 21210
ROOT  15:  E=   -2390.8932361910 Eh  2.205 eV  17787.4 cm**-1
      0.40018 [    15]: 12012
      0.32623 [    20]: 12201
      0.21538 [    21]: 12210
      0.00996 [    29]: 21120
      0.00927 [    17]: 12102
      0.00732 [    16]: 12021
      0.00599 [    13]: 11211
      0.00537 [    34]: 22110
      0.00474 [    19]: 12120
      0.00300 [     9]: 11022
      0.00275 [    23]: 20121
ROOT  16:  E=   -2390.8888388333 Eh  2.325 eV  18752.5 cm**-1
      0.42861 [    18]: 12111
      0.23947 [    24]: 20211
      0.18860 [    19]: 12120
      0.10333 [    17]: 12102
      0.00866 [    32]: 22011
      0.00554 [    30]: 21201
      0.00454 [    25]: 21012
      0.00332 [    10]: 11112
      0.00297 [    29]: 21120
      0.00284 [    21]: 12210
ROOT  17:  E=   -2390.8852882630 Eh  2.422 eV  19531.7 cm**-1
      0.32162 [    29]: 21120
      0.26074 [    27]: 21102
      0.17475 [    22]: 20112
      0.07968 [    23]: 20121
      0.05292 [    16]: 12021
      0.03825 [    20]: 12201
      0.02381 [    34]: 22110
      0.00998 [    24]: 20211
      0.00966 [    33]: 22101
      0.00428 [    12]: 11202
      0.00413 [    18]: 12111
      0.00397 [    15]: 12012
      0.00369 [    21]: 12210
      0.00331 [    31]: 21210
ROOT  18:  E=   -2390.8843361484 Eh  2.448 eV  19740.7 cm**-1
      0.46266 [    24]: 20211
      0.13961 [    19]: 12120
      0.10846 [    18]: 12111
      0.10471 [    17]: 12102
      0.06711 [    30]: 21201
      0.04013 [    26]: 21021
      0.03351 [    32]: 22011
      0.00850 [    11]: 11121
      0.00758 [    31]: 21210
      0.00601 [    10]: 11112
      0.00598 [    25]: 21012
      0.00399 [    27]: 21102
      0.00352 [    29]: 21120
      0.00352 [    15]: 12012
ROOT  19:  E=   -2390.8799505476 Eh  2.567 eV  20703.2 cm**-1
      0.32816 [    18]: 12111
      0.19490 [    31]: 21210
      0.19257 [    25]: 21012
      0.16549 [    17]: 12102
      0.06115 [    24]: 20211
      0.01367 [    19]: 12120
      0.01047 [    30]: 21201
      0.00817 [    26]: 21021
      0.00749 [    32]: 22011
      0.00679 [    16]: 12021
ROOT  20:  E=   -2390.8738957517 Eh  2.732 eV  22032.1 cm**-1
      0.49262 [    23]: 20121
      0.41225 [    22]: 20112
      0.03499 [    33]: 22101
      0.03129 [    34]: 22110
      0.00776 [    16]: 12021
      0.00528 [    29]: 21120
      0.00375 [    28]: 21111
ROOT  21:  E=   -2390.8608784522 Eh  3.086 eV  24889.1 cm**-1
      0.40360 [    16]: 12021
      0.34514 [    20]: 12201
      0.15185 [    21]: 12210
      0.02484 [    15]: 12012
      0.02108 [    13]: 11211
      0.01453 [     9]: 11022
      0.00754 [    33]: 22101
      0.00695 [    12]: 11202
      0.00648 [    27]: 21102
      0.00418 [    28]: 21111
      0.00281 [    23]: 20121
ROOT  22:  E=   -2390.8401036385 Eh  3.651 eV  29448.6 cm**-1
      0.54978 [    21]: 12210
      0.29471 [    15]: 12012
      0.06562 [    16]: 12021
      0.02933 [     9]: 11022
      0.01199 [    13]: 11211
      0.01092 [    14]: 11220
      0.00898 [    28]: 21111
      0.00736 [    19]: 12120
      0.00602 [    17]: 12102
      0.00355 [     7]: 10212
      0.00351 [    34]: 22110
ROOT  23:  E=   -2390.8316169244 Eh  3.882 eV  31311.2 cm**-1
      0.58450 [    19]: 12120
      0.22848 [    17]: 12102
      0.11384 [    18]: 12111
      0.02830 [    11]: 11121
      0.01835 [    10]: 11112
      0.01038 [    21]: 12210
      0.00461 [    31]: 21210
      0.00340 [     6]: 10122
      0.00273 [    15]: 12012
ROOT  24:  E=   -2390.8123247832 Eh  4.407 eV  35545.4 cm**-1
      0.97899 [    10]: 11112
      0.00875 [    13]: 11211
      0.00372 [    24]: 20211
ROOT  25:  E=   -2390.8101215383 Eh  4.467 eV  36028.9 cm**-1
      0.97120 [    13]: 11211
      0.00941 [    11]: 11121
      0.00915 [    10]: 11112
      0.00255 [    22]: 20112
ROOT  26:  E=   -2390.8030092386 Eh  4.661 eV  37589.9 cm**-1
      0.97500 [    11]: 11121
      0.00984 [    13]: 11211
      0.00806 [    10]: 11112
      0.00339 [    26]: 21021
ROOT  27:  E=   -2390.8002423373 Eh  4.736 eV  38197.2 cm**-1
      0.83976 [    10]: 11112
      0.15153 [    11]: 11121
      0.00360 [    18]: 12111
ROOT  28:  E=   -2390.7928138325 Eh  4.938 eV  39827.5 cm**-1
      0.74313 [    13]: 11211
      0.16580 [    12]: 11202
      0.02743 [    11]: 11121
      0.02071 [    14]: 11220
      0.01185 [    10]: 11112
      0.01113 [     9]: 11022
      0.00386 [    20]: 12201
      0.00370 [    21]: 12210
      0.00363 [    22]: 20112
ROOT  29:  E=   -2390.7872016984 Eh  5.091 eV  41059.2 cm**-1
      0.54973 [    10]: 11112
      0.39087 [    11]: 11121
      0.01876 [    13]: 11211
      0.01681 [    12]: 11202
      0.00918 [     9]: 11022
      0.00440 [     6]: 10122
      0.00317 [    24]: 20211
ROOT  30:  E=   -2390.7820380966 Eh  5.231 eV  42192.5 cm**-1
      0.46723 [    12]: 11202
      0.24959 [     9]: 11022
      0.19387 [    13]: 11211
      0.04603 [    10]: 11112
      0.01332 [    20]: 12201
      0.01319 [    16]: 12021
      0.00546 [    11]: 11121
      0.00252 [    27]: 21102
ROOT  31:  E=   -2390.7811661892 Eh  5.255 eV  42383.9 cm**-1
      0.50738 [    10]: 11112
      0.40626 [    11]: 11121
      0.01617 [    13]: 11211
      0.01540 [     9]: 11022
      0.01448 [    12]: 11202
      0.01425 [    19]: 12120
      0.00910 [    17]: 12102
      0.00678 [     6]: 10122
      0.00529 [    18]: 12111
ROOT  32:  E=   -2390.7667183347 Eh  5.648 eV  45554.8 cm**-1
      0.64436 [    13]: 11211
      0.25098 [     9]: 11022
      0.03323 [    14]: 11220
      0.01888 [    12]: 11202
      0.01312 [    15]: 12012
      0.01227 [    21]: 12210
      0.01091 [    16]: 12021
      0.00367 [    11]: 11121
      0.00332 [    20]: 12201
ROOT  33:  E=   -2390.7653933285 Eh  5.684 eV  45845.6 cm**-1
      0.31223 [    13]: 11211
      0.27030 [     9]: 11022
      0.20817 [    14]: 11220
      0.17664 [    12]: 11202
      0.00698 [    11]: 11121
      0.00633 [    20]: 12201
      0.00618 [    15]: 12012
      0.00426 [    21]: 12210
ROOT  34:  E=   -2390.7609779191 Eh  5.804 eV  46814.7 cm**-1
      0.96082 [    11]: 11121
      0.01063 [    19]: 12120
      0.00967 [    13]: 11211
      0.00610 [    10]: 11112
ROOT  35:  E=   -2390.6927576758 Eh  7.661 eV  61787.3 cm**-1
      0.71062 [    14]: 11220
      0.13955 [     9]: 11022
      0.11803 [    12]: 11202
      0.00924 [    13]: 11211
      0.00824 [     3]: 02112
      0.00626 [    21]: 12210
ROOT  36:  E=   -2390.6811677005 Eh  7.976 eV  64331.0 cm**-1
      0.78942 [     3]: 02112
      0.19502 [     4]: 02121
      0.00577 [    14]: 11220
      0.00388 [    12]: 11202
ROOT  37:  E=   -2390.6604808132 Eh  8.539 eV  68871.3 cm**-1
      0.96268 [     5]: 02211
      0.02713 [     4]: 02121
      0.00297 [     3]: 02112
      0.00285 [    10]: 11112
ROOT  38:  E=   -2390.6475531961 Eh  8.891 eV  71708.6 cm**-1
      0.76696 [     4]: 02121
      0.19250 [     3]: 02112
      0.02972 [     5]: 02211
      0.00522 [     0]: 01122
      0.00312 [    13]: 11211
ROOT  39:  E=   -2390.6176478047 Eh  9.704 eV  78272.0 cm**-1
      0.87122 [     7]: 10212
      0.11911 [     8]: 10221
ROOT  40:  E=   -2390.6057117594 Eh 10.029 eV  80891.7 cm**-1
      0.97955 [     6]: 10122
      0.00838 [    11]: 11121
      0.00319 [    19]: 12120
ROOT  41:  E=   -2390.5779799736 Eh 10.784 eV  86978.1 cm**-1
      0.86961 [     8]: 10221
      0.11817 [     7]: 10212
      0.00414 [    13]: 11211
ROOT  42:  E=   -2390.4457307838 Eh 14.383 eV 116003.5 cm**-1
      0.97366 [     1]: 01212
      0.01790 [     0]: 01122
      0.00717 [     2]: 01221
ROOT  43:  E=   -2390.4369337955 Eh 14.622 eV 117934.2 cm**-1
      0.97514 [     0]: 01122
      0.01769 [     1]: 01212
      0.00405 [     4]: 02121
ROOT  44:  E=   -2390.4057016870 Eh 15.472 eV 124788.8 cm**-1
      0.98948 [     2]: 01221
      0.00741 [     1]: 01212

                 <<<<<<<<<<<<<<<<<<INITIAL CI STATE CHECK>>>>>>>>>>>>>>>>>>

   E(CAS)= -2390.849974998 Eh DE=    0.000000e+00
   --- Energy gap subspaces: Ext-Act = 0.176   Act-Int = 0.138
   N(occ)=  1.20000 1.20000 1.20000 1.20000 1.20000
   ||g|| =     2.422636e+00 Max(G)=    2.680552e-01 Rot=388,1
   --- Orbital Update [SuperCI(PT)]
   --- Canonicalize Internal Space
   --- Canonicalize External Space
   --- SX_PT (Skipped TA=0 IT=0): ||X|| =      0.696173411 Max(X)(113,105) =     -0.176341646 
   --- SFit(Active Orbitals)

MACRO-ITERATION   2: 
   --- Inactive Energy E0 = -2382.39071162 Eh
CI-ITERATION   0: 
 -2391.019473755   0.000000000000 (    0.00)
 -2391.003300763   0.000000000000
 -2390.994937239   0.000000000000
 -2390.831305371   0.000000000000
 -2390.729435679   0.000000000000
   CI-PROBLEM SOLVED
   DENSITIES MADE
CI-ITERATION   0: 
 -2391.081873048   0.000000000000 (    0.02)
 -2391.080692423   0.000000000000
 -2391.075282331   0.000000000000
 -2391.073931707   0.000000000000
 -2391.055717189   0.000000000000
 -2391.047022045   0.000000000000
 -2391.039538107   0.000000000000
 -2391.014601864   0.000000000000
 -2391.008719665   0.000000000000
 -2390.997008628   0.000000000000
 -2390.990278081   0.000000000000
 -2390.983296022   0.000000000000
 -2390.982132583   0.000000000000
 -2390.979106347   0.000000000000
 -2390.977238035   0.000000000000
 -2390.973726105   0.000000000000
 -2390.965194084   0.000000000000
 -2390.957345305   0.000000000000
 -2390.952394798   0.000000000000
 -2390.943386486   0.000000000000
 -2390.921461704   0.000000000000
 -2390.902728879   0.000000000000
 -2390.897908476   0.000000000000
 -2390.880042660   0.000000000000
 -2390.814135501   0.000000000000
 -2390.800938306   0.000000000000
 -2390.786388955   0.000000000000
 -2390.781007150   0.000000000000
 -2390.776345848   0.000000000000
 -2390.769478062   0.000000000000
 -2390.741357390   0.000000000000
 -2390.715134197   0.000000000000
 -2390.703156484   0.000000000000
 -2390.697527305   0.000000000000
 -2390.688980004   0.000000000000
 -2390.679706310   0.000000000000
 -2390.674545233   0.000000000000
 -2390.673007440   0.000000000000
 -2390.661584184   0.000000000000
 -2390.638399201   0.000000000000
 -2390.611229336   0.000000000000
 -2390.599333953   0.000000000000
 -2390.369418843   0.000000000000
 -2390.345789227   0.000000000000
 -2390.310300004   0.000000000000
   CI-PROBLEM SOLVED
   DENSITIES MADE
   E(CAS)= -2390.875827386 Eh DE=   -2.585239e-02
   --- Energy gap subspaces: Ext-Act = -0.003   Act-Int = -0.293
   N(occ)=  1.20000 1.20000 1.20000 1.20000 1.20000
   ||g|| =     2.541328e+00 Max(G)=    5.061029e-01 Rot=110,105
   --- Orbital Update [SuperCI(PT)]
   --- Canonicalize Internal Space
   --- Canonicalize External Space
   --- SX_PT (Skipped TA=0 IT=0): ||X|| =      3.477664482 Max(X)(109,104) =     -2.684290183 
   --- SFit(Active Orbitals)

MACRO-ITERATION   3: 
   --- Inactive Energy E0 = -2383.54022777 Eh
CI-ITERATION   0: 
 -2391.208457850   0.000000000000 (    0.00)
 -2391.206226933   0.000000000000
 -2391.195571756   0.000000000000
 -2391.194290047   0.000000000000
 -2391.187952291   0.000000000000
   CI-PROBLEM SOLVED
   DENSITIES MADE
CI-ITERATION   0: 
 -2391.193360495   0.000000000000 (    0.50)
 -2391.184620141   0.000000000000
 -2391.184571763   0.000000000000
 -2391.175515665   0.000000000000
 -2391.173215103   0.000000000000
 -2391.171698487   0.000000000000
 -2391.169865588   0.000000000000
 -2391.168366026   0.000000000000
 -2391.161758163   0.000000000000
 -2391.161208510   0.000000000000
 -2391.160400256   0.000000000000
 -2391.159452114   0.000000000000
 -2391.156472264   0.000000000000
 -2391.152687783   0.000000000000
 -2391.149455692   0.000000000000
 -2391.148331736   0.000000000000
 -2391.141748467   0.000000000000
 -2391.140533313   0.000000000000
 -2391.137796509   0.000000000000
 -2391.136699612   0.000000000000
 -2391.135080520   0.000000000000
 -2391.132632540   0.000000000000
 -2391.125476723   0.000000000000
 -2391.123809093   0.000000000000
 -2391.120690788   0.000000000000
 -2391.118726037   0.000000000000
 -2391.117363906   0.000000000000
 -2391.113124498   0.000000000000
 -2391.109917758   0.000000000000
 -2391.105550788   0.000000000000
 -2391.097044156   0.000000000000
 -2391.095935477   0.000000000000
 -2391.087701050   0.000000000000
 -2391.072078737   0.000000000000
 -2391.066512546   0.000000000000
 -2391.062826432   0.000000000000
 -2391.053942304   0.000000000000
 -2391.048912875   0.000000000000
 -2391.045694519   0.000000000000
 -2391.007597572   0.000000000000
 -2391.003348846   0.000000000000
 -2390.997376077   0.000000000000
 -2390.981841460   0.000000000000
 -2390.981319953   0.000000000000
 -2390.956156297   0.000000000000
   CI-PROBLEM SOLVED
   DENSITIES MADE
   E(CAS)= -2391.154676761 Eh DE=   -2.788494e-01
   --- Energy gap subspaces: Ext-Act = 0.241   Act-Int = 0.046
   N(occ)=  1.20000 1.20000 1.20000 1.20000 1.20000
   ||g|| =     5.647766e-01 Max(G)=    9.938933e-02 Rot=112,106
   --- Orbital Update [SuperCI(PT)]
   --- Canonicalize Internal Space
   --- Canonicalize External Space
   --- SX_PT (Skipped TA=0 IT=0): ||X|| =      0.312072986 Max(X)(110,106) =      0.104233099 
   --- SFit(Active Orbitals)

MACRO-ITERATION   4: 
   --- Inactive Energy E0 = -2383.42642942 Eh
CI-ITERATION   0: 
 -2391.286632071   0.000000000000 (    0.00)
 -2391.280946982   0.000000000000
 -2391.231345165   0.000000000000
 -2391.227443306   0.000000000000
 -2391.225457857   0.000000000000
   CI-PROBLEM SOLVED
   DENSITIES MADE
CI-ITERATION   0: 
 -2391.256862975   0.000000000000 (    0.00)
 -2391.244711935   0.000000000000
 -2391.242895633   0.000000000000
 -2391.238409974   0.000000000000
 -2391.226515151   0.000000000000
 -2391.220267913   0.000000000000
 -2391.219128446   0.000000000000
 -2391.216597622   0.000000000000
 -2391.214464703   0.000000000000
 -2391.210102699   0.000000000000
 -2391.209964018   0.000000000000
 -2391.206902158   0.000000000000
 -2391.206093783   0.000000000000
 -2391.203781612   0.000000000000
 -2391.203473946   0.000000000000
 -2391.202481355   0.000000000000
 -2391.199724257   0.000000000000
 -2391.199322737   0.000000000000
 -2391.194149615   0.000000000000
 -2391.193095858   0.000000000000
 -2391.186007044   0.000000000000
 -2391.184683470   0.000000000000
 -2391.179383561   0.000000000000
 -2391.174045091   0.000000000000
 -2391.171558926   0.000000000000
 -2391.165735475   0.000000000000
 -2391.155355502   0.000000000000
 -2391.153681768   0.000000000000
 -2391.149009886   0.000000000000
 -2391.145413155   0.000000000000
 -2391.138945557   0.000000000000
 -2391.136928232   0.000000000000
 -2391.130524675   0.000000000000
 -2391.121842415   0.000000000000
 -2391.108483502   0.000000000000
 -2391.104096970   0.000000000000
 -2391.094682875   0.000000000000
 -2391.081371791   0.000000000000
 -2391.076664850   0.000000000000
 -2391.065618854   0.000000000000
 -2391.054984678   0.000000000000
 -2391.034285134   0.000000000000
 -2390.950743831   0.000000000000
 -2390.943932461   0.000000000000
 -2390.925685047   0.000000000000
   CI-PROBLEM SOLVED
   DENSITIES MADE
   E(CAS)= -2391.202322662 Eh DE=   -4.764590e-02
   --- Energy gap subspaces: Ext-Act = 0.259   Act-Int = 0.126
   N(occ)=  1.20000 1.20000 1.20000 1.20000 1.20000
   ||g|| =     3.802289e-01 Max(G)=   -5.914525e-02 Rot=206,104
   --- Orbital Update [SuperCI(PT)]
   --- Canonicalize Internal Space
   --- Canonicalize External Space
   --- SX_PT (Skipped TA=0 IT=0): ||X|| =      0.185964638 Max(X)(218,104) =     -0.036269956 
   --- SFit(Active Orbitals)

MACRO-ITERATION   5: 
   --- Inactive Energy E0 = -2383.07007911 Eh
CI-ITERATION   0: 
 -2391.299048515   0.000000000000 (    0.00)
 -2391.288749268   0.000000000000
 -2391.270073365   0.000000000000
 -2391.264396252   0.000000000000
 -2391.262873723   0.000000000000
   CI-PROBLEM SOLVED
   DENSITIES MADE
CI-ITERATION   0: 
 -2391.278168185   0.000000000000 (    0.00)
 -2391.275278334   0.000000000000
 -2391.267808873   0.000000000000
 -2391.256017316   0.000000000000
 -2391.247175960   0.000000000000
 -2391.245353198   0.000000000000
 -2391.244765719   0.000000000000
 -2391.242955436   0.000000000000
 -2391.239876545   0.000000000000
 -2391.235646446   0.000000000000
 -2391.231643600   0.000000000000
 -2391.228884788   0.000000000000
 -2391.224659138   0.000000000000
 -2391.223179282   0.000000000000
 -2391.218596217   0.000000000000
 -2391.218506304   0.000000000000
 -2391.218203087   0.000000000000
 -2391.213862135   0.000000000000
 -2391.213187121   0.000000000000
 -2391.211977842   0.000000000000
 -2391.208257743   0.000000000000
 -2391.203529047   0.000000000000
 -2391.202701699   0.000000000000
 -2391.197624829   0.000000000000
 -2391.192670042   0.000000000000
 -2391.192529707   0.000000000000
 -2391.184089552   0.000000000000
 -2391.171323860   0.000000000000
 -2391.167795481   0.000000000000
 -2391.162985161   0.000000000000
 -2391.154756646   0.000000000000
 -2391.153126821   0.000000000000
 -2391.150023618   0.000000000000
 -2391.140574029   0.000000000000
 -2391.136362413   0.000000000000
 -2391.103504060   0.000000000000
 -2391.096194381   0.000000000000
 -2391.086503992   0.000000000000
 -2391.063988565   0.000000000000
 -2391.053702746   0.000000000000
 -2391.043992584   0.000000000000
 -2391.019338688   0.000000000000
 -2390.984199961   0.000000000000
 -2390.978107465   0.000000000000
 -2390.957531892   0.000000000000
   CI-PROBLEM SOLVED
   DENSITIES MADE
   E(CAS)= -2391.224527007 Eh DE=   -2.220435e-02
   --- Energy gap subspaces: Ext-Act = 0.267   Act-Int = 0.076
   N(occ)=  1.20000 1.20000 1.20000 1.20000 1.20000
   ||g|| =     2.081314e-01 Max(G)=   -3.848556e-02 Rot=206,104
   --- Orbital Update [SuperCI(PT)]
   --- Canonicalize Internal Space
   --- Canonicalize External Space
   --- SX_PT (Skipped TA=0 IT=0): ||X|| =      0.127097543 Max(X)(113,105) =      0.041038206 
   --- SFit(Active Orbitals)

MACRO-ITERATION   6: 
   --- Inactive Energy E0 = -2383.06460368 Eh
CI-ITERATION   0: 
 -2391.315616928   0.000000000000 (    0.00)
 -2391.309320189   0.000000000000
 -2391.275011153   0.000000000000
 -2391.269578453   0.000000000000
 -2391.267578721   0.000000000000
   CI-PROBLEM SOLVED
   DENSITIES MADE
CI-ITERATION   0: 
 -2391.295883094   0.000000000000 (    0.00)
 -2391.286867617   0.000000000000
 -2391.280909189   0.000000000000
 -2391.270482949   0.000000000000
 -2391.265396625   0.000000000000
 -2391.251855519   0.000000000000
 -2391.251701468   0.000000000000
 -2391.250854045   0.000000000000
 -2391.249248560   0.000000000000
 -2391.247842595   0.000000000000
 -2391.241669793   0.000000000000
 -2391.236932556   0.000000000000
 -2391.234092062   0.000000000000
 -2391.232584117   0.000000000000
 -2391.231484349   0.000000000000
 -2391.229087073   0.000000000000
 -2391.227375651   0.000000000000
 -2391.226114369   0.000000000000
 -2391.223102452   0.000000000000
 -2391.222222336   0.000000000000
 -2391.221475210   0.000000000000
 -2391.216214404   0.000000000000
 -2391.215963953   0.000000000000
 -2391.208075235   0.000000000000
 -2391.199777131   0.000000000000
 -2391.198774769   0.000000000000
 -2391.185998722   0.000000000000
 -2391.180356355   0.000000000000
 -2391.173550981   0.000000000000
 -2391.166319890   0.000000000000
 -2391.162570845   0.000000000000
 -2391.158105935   0.000000000000
 -2391.156578883   0.000000000000
 -2391.152810342   0.000000000000
 -2391.145757402   0.000000000000
 -2391.105228249   0.000000000000
 -2391.083130914   0.000000000000
 -2391.073592757   0.000000000000
 -2391.066305137   0.000000000000
 -2391.059708112   0.000000000000
 -2391.048730690   0.000000000000
 -2391.037325168   0.000000000000
 -2390.956375218   0.000000000000
 -2390.951288494   0.000000000000
 -2390.927769465   0.000000000000
   CI-PROBLEM SOLVED
   DENSITIES MADE
   E(CAS)= -2391.232682663 Eh DE=   -8.155656e-03
   --- Energy gap subspaces: Ext-Act = 0.273   Act-Int = 0.096
   N(occ)=  1.20000 1.20000 1.20000 1.20000 1.20000
   ||g|| =     1.586106e-01 Max(G)=   -1.630865e-02 Rot=206,104
   --- Orbital Update [SuperCI(PT)]
   --- Canonicalize Internal Space
   --- Canonicalize External Space
   --- SX_PT (Skipped TA=0 IT=0): ||X|| =      0.060081954 Max(X)(108,103) =     -0.020330323 
   --- SFit(Active Orbitals)

MACRO-ITERATION   7: 
   --- Inactive Energy E0 = -2382.98660519 Eh
CI-ITERATION   0: 
 -2391.319094229   0.000000000000 (    0.00)
 -2391.311018750   0.000000000000
 -2391.279325467   0.000000000000
 -2391.273099826   0.000000000000
 -2391.271292507   0.000000000000
   CI-PROBLEM SOLVED
   DENSITIES MADE
CI-ITERATION   0: 
 -2391.300160853   0.000000000000 (    0.00)
 -2391.291028372   0.000000000000
 -2391.285365191   0.000000000000
 -2391.274524527   0.000000000000
 -2391.267794468   0.000000000000
 -2391.256649764   0.000000000000
 -2391.255531837   0.000000000000
 -2391.254730912   0.000000000000
 -2391.253021255   0.000000000000
 -2391.250721347   0.000000000000
 -2391.244587180   0.000000000000
 -2391.240425550   0.000000000000
 -2391.236989558   0.000000000000
 -2391.235418686   0.000000000000
 -2391.234314345   0.000000000000
 -2391.229939182   0.000000000000
 -2391.229195006   0.000000000000
 -2391.228044422   0.000000000000
 -2391.226483946   0.000000000000
 -2391.223656314   0.000000000000
 -2391.222086343   0.000000000000
 -2391.218116757   0.000000000000
 -2391.217552245   0.000000000000
 -2391.210600279   0.000000000000
 -2391.202270098   0.000000000000
 -2391.201291624   0.000000000000
 -2391.188190444   0.000000000000
 -2391.180606716   0.000000000000
 -2391.176051807   0.000000000000
 -2391.168017157   0.000000000000
 -2391.164687207   0.000000000000
 -2391.159937918   0.000000000000
 -2391.157384238   0.000000000000
 -2391.153825424   0.000000000000
 -2391.148401563   0.000000000000
 -2391.107377004   0.000000000000
 -2391.083460796   0.000000000000
 -2391.074583548   0.000000000000
 -2391.057850865   0.000000000000
 -2391.052797662   0.000000000000
 -2391.048061056   0.000000000000
 -2391.031463503   0.000000000000
 -2390.952826737   0.000000000000
 -2390.948646220   0.000000000000
 -2390.922697993   0.000000000000
   CI-PROBLEM SOLVED
   DENSITIES MADE
   E(CAS)= -2391.235020499 Eh DE=   -2.337836e-03
   --- Energy gap subspaces: Ext-Act = 0.276   Act-Int = 0.092
   N(occ)=  1.20000 1.20000 1.20000 1.20000 1.20000
   ||g|| =     6.038953e-02 Max(G)=   -1.349451e-02 Rot=206,104
   --- Orbital Update [SuperCI(PT)]
   --- Canonicalize Internal Space
   --- Canonicalize External Space
   --- SX_PT (Skipped TA=0 IT=0): ||X|| =      0.039937714 Max(X)(108,103) =     -0.015493496 
   --- SFit(Active Orbitals)

MACRO-ITERATION   8: 
   --- Inactive Energy E0 = -2382.98357350 Eh
CI-ITERATION   0: 
 -2391.321184963   0.000000000000 (    0.00)
 -2391.312669385   0.000000000000
 -2391.281150148   0.000000000000
 -2391.274297748   0.000000000000
 -2391.272732020   0.000000000000
   CI-PROBLEM SOLVED
   DENSITIES MADE
CI-ITERATION   0: 
 -2391.303028640   0.000000000000 (    0.00)
 -2391.293748233   0.000000000000
 -2391.288485674   0.000000000000
 -2391.277715118   0.000000000000
 -2391.269591434   0.000000000000
 -2391.259215760   0.000000000000
 -2391.257305051   0.000000000000
 -2391.256702580   0.000000000000
 -2391.254927802   0.000000000000
 -2391.252298707   0.000000000000
 -2391.246044594   0.000000000000
 -2391.242213988   0.000000000000
 -2391.238565642   0.000000000000
 -2391.236895090   0.000000000000
 -2391.236223780   0.000000000000
 -2391.231101069   0.000000000000
 -2391.230186276   0.000000000000
 -2391.228873623   0.000000000000
 -2391.227804635   0.000000000000
 -2391.224486443   0.000000000000
 -2391.222746242   0.000000000000
 -2391.219145338   0.000000000000
 -2391.218897358   0.000000000000
 -2391.211791366   0.000000000000
 -2391.203236330   0.000000000000
 -2391.202497131   0.000000000000
 -2391.188360551   0.000000000000
 -2391.180843835   0.000000000000
 -2391.175751509   0.000000000000
 -2391.169365414   0.000000000000
 -2391.166023494   0.000000000000
 -2391.158816531   0.000000000000
 -2391.158220111   0.000000000000
 -2391.155393846   0.000000000000
 -2391.147528221   0.000000000000
 -2391.108513999   0.000000000000
 -2391.082584849   0.000000000000
 -2391.074345641   0.000000000000
 -2391.053735013   0.000000000000
 -2391.050206145   0.000000000000
 -2391.046609065   0.000000000000
 -2391.029971762   0.000000000000
 -2390.946993214   0.000000000000
 -2390.943784075   0.000000000000
 -2390.915867208   0.000000000000
   CI-PROBLEM SOLVED
   DENSITIES MADE
   E(CAS)= -2391.236055008 Eh DE=   -1.034509e-03
   --- Energy gap subspaces: Ext-Act = 0.278   Act-Int = 0.094
   N(occ)=  1.20000 1.20000 1.20000 1.20000 1.20000
   ||g|| =     3.928064e-02 Max(G)=   -6.932008e-03 Rot=206,104
   --- Orbital Update [SuperCI(PT)]
   --- Canonicalize Internal Space
   --- Canonicalize External Space
   --- SX_PT (Skipped TA=0 IT=0): ||X|| =      0.024326787 Max(X)(108,103) =     -0.009282366 
   --- SFit(Active Orbitals)

MACRO-ITERATION   9: 
   --- Inactive Energy E0 = -2382.97454563 Eh
CI-ITERATION   0: 
 -2391.322016866   0.000000000000 (    0.00)
 -2391.312693496   0.000000000000
 -2391.282477142   0.000000000000
 -2391.275093623   0.000000000000
 -2391.273750489   0.000000000000
   CI-PROBLEM SOLVED
   DENSITIES MADE
CI-ITERATION   0: 
 -2391.304428618   0.000000000000 (    0.00)
 -2391.295350983   0.000000000000
 -2391.290280242   0.000000000000
 -2391.279615690   0.000000000000
 -2391.269631041   0.000000000000
 -2391.261073479   0.000000000000
 -2391.258502363   0.000000000000
 -2391.258015874   0.000000000000
 -2391.256134636   0.000000000000
 -2391.253071299   0.000000000000
 -2391.246747827   0.000000000000
 -2391.243180836   0.000000000000
 -2391.239313058   0.000000000000
 -2391.237621746   0.000000000000
 -2391.237070933   0.000000000000
 -2391.231686517   0.000000000000
 -2391.229777406   0.000000000000
 -2391.229024338   0.000000000000
 -2391.228016626   0.000000000000
 -2391.224731861   0.000000000000
 -2391.222290759   0.000000000000
 -2391.219313896   0.000000000000
 -2391.219027948   0.000000000000
 -2391.212201031   0.000000000000
 -2391.203743688   0.000000000000
 -2391.203113809   0.000000000000
 -2391.188122070   0.000000000000
 -2391.179976174   0.000000000000
 -2391.175271819   0.000000000000
 -2391.169757005   0.000000000000
 -2391.166566480   0.000000000000
 -2391.158875192   0.000000000000
 -2391.157036377   0.000000000000
 -2391.155346283   0.000000000000
 -2391.146858670   0.000000000000
 -2391.109248364   0.000000000000
 -2391.083234290   0.000000000000
 -2391.075405869   0.000000000000
 -2391.049988133   0.000000000000
 -2391.047263325   0.000000000000
 -2391.046910710   0.000000000000
 -2391.027366657   0.000000000000
 -2390.944051858   0.000000000000
 -2390.941470283   0.000000000000
 -2390.912476402   0.000000000000
   CI-PROBLEM SOLVED
   DENSITIES MADE
   E(CAS)= -2391.236471967 Eh DE=   -4.169581e-04
   --- Energy gap subspaces: Ext-Act = 0.279   Act-Int = 0.093
   N(occ)=  1.20000 1.20000 1.20000 1.20000 1.20000
   ||g|| =     1.922637e-02 Max(G)=    4.954877e-03 Rot=109,106
   --- Orbital Update [SuperCI(PT)]
   --- Canonicalize Internal Space
   --- Canonicalize External Space
   --- SX_PT (Skipped TA=0 IT=0): ||X|| =      0.014348767 Max(X)(108,103) =     -0.005398661 
   --- SFit(Active Orbitals)

MACRO-ITERATION  10: 
   --- Inactive Energy E0 = -2382.97459538 Eh
CI-ITERATION   0: 
 -2391.322737044   0.000000000000 (    0.00)
 -2391.312930621   0.000000000000
 -2391.283137791   0.000000000000
 -2391.275481340   0.000000000000
 -2391.274290285   0.000000000000
   CI-PROBLEM SOLVED
   DENSITIES MADE
CI-ITERATION   0: 
 -2391.305769756   0.000000000000 (    0.06)
 -2391.296783126   0.000000000000
 -2391.292211881   0.000000000000
 -2391.281604160   0.000000000000
 -2391.269579643   0.000000000000
 -2391.262403613   0.000000000000
 -2391.259384048   0.000000000000
 -2391.258944643   0.000000000000
 -2391.257057328   0.000000000000
 -2391.253686457   0.000000000000
 -2391.247366616   0.000000000000
 -2391.243883781   0.000000000000
 -2391.239885378   0.000000000000
 -2391.238373411   0.000000000000
 -2391.237834387   0.000000000000
 -2391.232025542   0.000000000000
 -2391.229529956   0.000000000000
 -2391.229043797   0.000000000000
 -2391.227725298   0.000000000000
 -2391.224535276   0.000000000000
 -2391.221947757   0.000000000000
 -2391.219817453   0.000000000000
 -2391.218980803   0.000000000000
 -2391.212367731   0.000000000000
 -2391.203873297   0.000000000000
 -2391.203541828   0.000000000000
 -2391.187160539   0.000000000000
 -2391.179154538   0.000000000000
 -2391.173223707   0.000000000000
 -2391.170165472   0.000000000000
 -2391.166955183   0.000000000000
 -2391.159368600   0.000000000000
 -2391.156347304   0.000000000000
 -2391.152895432   0.000000000000
 -2391.143674393   0.000000000000
 -2391.110237084   0.000000000000
 -2391.084918400   0.000000000000
 -2391.077318707   0.000000000000
 -2391.049241909   0.000000000000
 -2391.049124348   0.000000000000
 -2391.046811079   0.000000000000
 -2391.027328525   0.000000000000
 -2390.939888255   0.000000000000
 -2390.937807780   0.000000000000
 -2390.908638009   0.000000000000
   CI-PROBLEM SOLVED
   DENSITIES MADE
   E(CAS)= -2391.236728999 Eh DE=   -2.570328e-04
   --- Energy gap subspaces: Ext-Act = 0.281   Act-Int = 0.095
   N(occ)=  1.20000 1.20000 1.20000 1.20000 1.20000
   ||g|| =     1.340913e-02 Max(G)=    4.341846e-03 Rot=109,106
   --- Orbital Update [SuperCI(PT)]
   --- Canonicalize Internal Space
   --- Canonicalize External Space
   --- SX_PT (Skipped TA=0 IT=0): ||X|| =      0.007990751 Max(X)(113,105) =      0.002635902 
   --- SFit(Active Orbitals)

MACRO-ITERATION  11: 
   --- Inactive Energy E0 = -2382.97273904 Eh
CI-ITERATION   0: 
 -2391.322705119   0.000000000000 (    0.00)
 -2391.312489567   0.000000000000
 -2391.283435732   0.000000000000
 -2391.275848958   0.000000000000
 -2391.274651768   0.000000000000
   CI-PROBLEM SOLVED
   DENSITIES MADE
CI-ITERATION   0: 
 -2391.306059351   0.000000000000 (    0.00)
 -2391.297357070   0.000000000000
 -2391.293138809   0.000000000000
 -2391.282504361   0.000000000000
 -2391.268850710   0.000000000000
 -2391.263070289   0.000000000000
 -2391.259978182   0.000000000000
 -2391.259416044   0.000000000000
 -2391.257487914   0.000000000000
 -2391.253857687   0.000000000000
 -2391.247620141   0.000000000000
 -2391.244082076   0.000000000000
 -2391.239984550   0.000000000000
 -2391.238661654   0.000000000000
 -2391.238002497   0.000000000000
 -2391.232029374   0.000000000000
 -2391.229491685   0.000000000000
 -2391.228448124   0.000000000000
 -2391.227092041   0.000000000000
 -2391.224234580   0.000000000000
 -2391.221349928   0.000000000000
 -2391.219889679   0.000000000000
 -2391.218596488   0.000000000000
 -2391.212263927   0.000000000000
 -2391.203982454   0.000000000000
 -2391.203720044   0.000000000000
 -2391.186488847   0.000000000000
 -2391.178325026   0.000000000000
 -2391.172053549   0.000000000000
 -2391.169842092   0.000000000000
 -2391.166783919   0.000000000000
 -2391.159229855   0.000000000000
 -2391.156187360   0.000000000000
 -2391.150561442   0.000000000000
 -2391.141296860   0.000000000000
 -2391.111099352   0.000000000000
 -2391.087545433   0.000000000000
 -2391.079878370   0.000000000000
 -2391.052639234   0.000000000000
 -2391.049595953   0.000000000000
 -2391.047147915   0.000000000000
 -2391.027452133   0.000000000000
 -2390.938883292   0.000000000000
 -2390.936826845   0.000000000000
 -2390.908524857   0.000000000000
   CI-PROBLEM SOLVED
   DENSITIES MADE
   E(CAS)= -2391.236819025 Eh DE=   -9.002591e-05
   --- Energy gap subspaces: Ext-Act = 0.282   Act-Int = 0.095
   N(occ)=  1.20000 1.20000 1.20000 1.20000 1.20000
   ||g|| =     1.131398e-02 Max(G)=    3.929706e-03 Rot=109,106
   --- Orbital Update [SuperCI(PT)]
   --- Canonicalize Internal Space
   --- Canonicalize External Space
   --- SX_PT (Skipped TA=0 IT=0): ||X|| =      0.007085259 Max(X)(113,105) =      0.003331147 
   --- SFit(Active Orbitals)

MACRO-ITERATION  12: 
   --- Inactive Energy E0 = -2382.96713367 Eh
CI-ITERATION   0: 
 -2391.322954511   0.000000000000 (    0.00)
 -2391.312249999   0.000000000000
 -2391.283642539   0.000000000000
 -2391.276188295   0.000000000000
 -2391.274974200   0.000000000000
   CI-PROBLEM SOLVED
   DENSITIES MADE
CI-ITERATION   0: 
 -2391.306794674   0.000000000000 (    0.00)
 -2391.298116109   0.000000000000
 -2391.294387408   0.000000000000
 -2391.283750109   0.000000000000
 -2391.267992444   0.000000000000
 -2391.263861411   0.000000000000
 -2391.260685985   0.000000000000
 -2391.259983878   0.000000000000
 -2391.258040047   0.000000000000
 -2391.254198552   0.000000000000
 -2391.248166678   0.000000000000
 -2391.244457751   0.000000000000
 -2391.240228476   0.000000000000
 -2391.239124232   0.000000000000
 -2391.238279778   0.000000000000
 -2391.231959601   0.000000000000
 -2391.229450593   0.000000000000
 -2391.227684071   0.000000000000
 -2391.226403049   0.000000000000
 -2391.223645883   0.000000000000
 -2391.220738009   0.000000000000
 -2391.220117215   0.000000000000
 -2391.218246521   0.000000000000
 -2391.212051187   0.000000000000
 -2391.204161787   0.000000000000
 -2391.203650733   0.000000000000
 -2391.185439556   0.000000000000
 -2391.177388358   0.000000000000
 -2391.171379851   0.000000000000
 -2391.168954254   0.000000000000
 -2391.164935306   0.000000000000
 -2391.159183585   0.000000000000
 -2391.156205252   0.000000000000
 -2391.145891915   0.000000000000
 -2391.136541523   0.000000000000
 -2391.112108312   0.000000000000
 -2391.091244154   0.000000000000
 -2391.083415004   0.000000000000
 -2391.057673767   0.000000000000
 -2391.051733286   0.000000000000
 -2391.049087631   0.000000000000
 -2391.028866408   0.000000000000
 -2390.936163747   0.000000000000
 -2390.934099972   0.000000000000
 -2390.907333415   0.000000000000
   CI-PROBLEM SOLVED
   DENSITIES MADE
   E(CAS)= -2391.236932304 Eh DE=   -1.132787e-04
   --- Energy gap subspaces: Ext-Act = 0.283   Act-Int = 0.096
   N(occ)=  1.20000 1.20000 1.20000 1.20000 1.20000
   ||g|| =     8.673380e-03 Max(G)=    3.541731e-03 Rot=110,105
   --- Orbital Update [SuperCI(PT)]
   --- Canonicalize Internal Space
   --- Canonicalize External Space
   --- SX_PT (Skipped TA=0 IT=0): ||X|| =      0.005891215 Max(X)(113,105) =      0.003426070 
   --- SFit(Active Orbitals)

MACRO-ITERATION  13: 
   --- Inactive Energy E0 = -2382.96100553 Eh
CI-ITERATION   0: 
 -2391.323409899   0.000000000000 (    0.00)
 -2391.312550967   0.000000000000
 -2391.283546609   0.000000000000
 -2391.276237029   0.000000000000
 -2391.274978026   0.000000000000
   CI-PROBLEM SOLVED
   DENSITIES MADE
CI-ITERATION   0: 
 -2391.307661962   0.000000000000 (    0.00)
 -2391.298656826   0.000000000000
 -2391.295342614   0.000000000000
 -2391.284716489   0.000000000000
 -2391.267596985   0.000000000000
 -2391.264304514   0.000000000000
 -2391.261080029   0.000000000000
 -2391.260258075   0.000000000000
 -2391.258441209   0.000000000000
 -2391.254600479   0.000000000000
 -2391.248771600   0.000000000000
 -2391.244942893   0.000000000000
 -2391.240473590   0.000000000000
 -2391.239444339   0.000000000000
 -2391.238474770   0.000000000000
 -2391.231734867   0.000000000000
 -2391.229266176   0.000000000000
 -2391.227402992   0.000000000000
 -2391.226184611   0.000000000000
 -2391.222992701   0.000000000000
 -2391.220639796   0.000000000000
 -2391.220381265   0.000000000000
 -2391.218260996   0.000000000000
 -2391.211891529   0.000000000000
 -2391.204205440   0.000000000000
 -2391.203368349   0.000000000000
 -2391.184638931   0.000000000000
 -2391.177029400   0.000000000000
 -2391.171496281   0.000000000000
 -2391.168925144   0.000000000000
 -2391.160965887   0.000000000000
 -2391.159378761   0.000000000000
 -2391.156609289   0.000000000000
 -2391.140680739   0.000000000000
 -2391.131180081   0.000000000000
 -2391.112684860   0.000000000000
 -2391.094157544   0.000000000000
 -2391.086170710   0.000000000000
 -2391.061708782   0.000000000000
 -2391.055200028   0.000000000000
 -2391.052391172   0.000000000000
 -2391.031596269   0.000000000000
 -2390.932680803   0.000000000000
 -2390.930606254   0.000000000000
 -2390.905214754   0.000000000000
   CI-PROBLEM SOLVED
   DENSITIES MADE
   E(CAS)= -2391.237010151 Eh DE=   -7.784656e-05
   --- Energy gap subspaces: Ext-Act = 0.285   Act-Int = 0.097
   N(occ)=  1.20000 1.20000 1.20000 1.20000 1.20000
   ||g|| =     6.764208e-03 Max(G)=    2.697638e-03 Rot=110,105
   --- Orbital Update [SuperCI(PT)]
   --- Canonicalize Internal Space
   --- Canonicalize External Space
   --- SX_PT (Skipped TA=0 IT=0): ||X|| =      0.004638272 Max(X)(113,105) =      0.002781102 
   --- SFit(Active Orbitals)

MACRO-ITERATION  14: 
   --- Inactive Energy E0 = -2382.95292178 Eh
CI-ITERATION   0: 
 -2391.323829513   0.000000000000 (    0.20)
 -2391.312775727   0.000000000000
 -2391.283532573   0.000000000000
 -2391.276245509   0.000000000000
 -2391.274983230   0.000000000000
   CI-PROBLEM SOLVED
   DENSITIES MADE
CI-ITERATION   0: 
 -2391.308611307   0.000000000000 (    0.00)
 -2391.299216335   0.000000000000
 -2391.296256279   0.000000000000
 -2391.285729891   0.000000000000
 -2391.266946368   0.000000000000
 -2391.264963826   0.000000000000
 -2391.261490373   0.000000000000
 -2391.260599903   0.000000000000
 -2391.258904057   0.000000000000
 -2391.255099338   0.000000000000
 -2391.249497751   0.000000000000
 -2391.245759407   0.000000000000
 -2391.240743238   0.000000000000
 -2391.239596341   0.000000000000
 -2391.238576871   0.000000000000
 -2391.231419064   0.000000000000
 -2391.229187940   0.000000000000
 -2391.227012329   0.000000000000
 -2391.225860375   0.000000000000
 -2391.222324653   0.000000000000
 -2391.220814383   0.000000000000
 -2391.220208616   0.000000000000
 -2391.218228127   0.000000000000
 -2391.211625106   0.000000000000
 -2391.204255477   0.000000000000
 -2391.202986543   0.000000000000
 -2391.183862830   0.000000000000
 -2391.176723088   0.000000000000
 -2391.171741523   0.000000000000
 -2391.169160983   0.000000000000
 -2391.159685534   0.000000000000
 -2391.157010069   0.000000000000
 -2391.154785440   0.000000000000
 -2391.133736073   0.000000000000
 -2391.124107813   0.000000000000
 -2391.113324955   0.000000000000
 -2391.098238402   0.000000000000
 -2391.090172792   0.000000000000
 -2391.066955367   0.000000000000
 -2391.059813728   0.000000000000
 -2391.056820389   0.000000000000
 -2391.035192228   0.000000000000
 -2390.928612780   0.000000000000
 -2390.926637094   0.000000000000
 -2390.902669231   0.000000000000
   CI-PROBLEM SOLVED
   DENSITIES MADE
   E(CAS)= -2391.237082924 Eh DE=   -7.277351e-05
   --- Energy gap subspaces: Ext-Act = 0.287   Act-Int = 0.099
   N(occ)=  1.20000 1.20000 1.20000 1.20000 1.20000
   ||g|| =     6.214273e-03 Max(G)=    1.934396e-03 Rot=110,105
   --- Orbital Update [SuperCI(PT)]
   --- Canonicalize Internal Space
   --- Canonicalize External Space
   --- SX_PT (Skipped TA=0 IT=0): ||X|| =      0.003857821 Max(X)(113,105) =      0.002103402 
   --- SFit(Active Orbitals)

MACRO-ITERATION  15: 
   --- Inactive Energy E0 = -2382.94335003 Eh
CI-ITERATION   0: 
 -2391.324038995   0.000000000000 (    0.00)
 -2391.312493073   0.000000000000
 -2391.283810674   0.000000000000
 -2391.276425761   0.000000000000
 -2391.275200150   0.000000000000
   CI-PROBLEM SOLVED
   DENSITIES MADE
CI-ITERATION   0: 
 -2391.309378198   0.000000000000 (    0.00)
 -2391.299554976   0.000000000000
 -2391.296852458   0.000000000000
 -2391.286479220   0.000000000000
 -2391.265961725   0.000000000000
 -2391.265902283   0.000000000000
 -2391.261958946   0.000000000000
 -2391.261121472   0.000000000000
 -2391.259369274   0.000000000000
 -2391.255567868   0.000000000000
 -2391.250124886   0.000000000000
 -2391.246653643   0.000000000000
 -2391.240973142   0.000000000000
 -2391.239636057   0.000000000000
 -2391.238625705   0.000000000000
 -2391.231257579   0.000000000000
 -2391.229352215   0.000000000000
 -2391.226331144   0.000000000000
[...]
      dyz     :     1.994715
      dx2y2   :     1.979846
      dxy     :     2.012732
      f0      :     0.000439  f :     0.003696
      f+1     :     0.000564
      f-1     :     0.000507
      f+2     :     0.000387
      f-2     :     0.000626
      f+3     :     0.000561
      f-3     :     0.000611
  2 Aus       :     2.463813  s :     2.463813
      pz      :     2.205311  p :     6.446654
      px      :     2.112531
      py      :     2.128812
      dz2     :     2.000217  d :     9.990744
      dxz     :     1.996779
      dyz     :     1.995843
      dx2y2   :     2.002665
      dxy     :     1.995240
      f0      :     0.000556  f :     0.004082
      f+1     :     0.000613
      f-1     :     0.000501
      f+2     :     0.000568
      f-2     :     0.000687
      f+3     :     0.000685
      f-3     :     0.000472
  3 Aus       :     2.500270  s :     2.500270
      pz      :     2.148917  p :     6.430828
      px      :     2.163206
      py      :     2.118705
      dz2     :     2.007885  d :     9.985994
      dxz     :     2.004178
      dyz     :     1.979232
      dx2y2   :     1.997355
      dxy     :     1.997343
      f0      :     0.000456  f :     0.003671
      f+1     :     0.000675
      f-1     :     0.000487
      f+2     :     0.000524
      f-2     :     0.000462
      f+3     :     0.000667
      f-3     :     0.000400
  4 Aus       :     2.573623  s :     2.573623
      pz      :     2.055935  p :     6.357761
      px      :     2.063160
      py      :     2.238666
      dz2     :     1.984577  d :     9.961494
      dxz     :     1.993793
      dyz     :     1.996599
      dx2y2   :     1.993673
      dxy     :     1.992854
      f0      :     0.000641  f :     0.003987
      f+1     :     0.000408
      f-1     :     0.000772
      f+2     :     0.000491
      f-2     :     0.000765
      f+3     :     0.000559
      f-3     :     0.000351
  5 Aus       :     2.603382  s :     2.603382
      pz      :     2.085556  p :     6.301702
      px      :     2.084638
      py      :     2.131507
      dz2     :     1.991668  d :     9.965820
      dxz     :     1.996797
      dyz     :     1.990622
      dx2y2   :     1.993845
      dxy     :     1.992889
      f0      :     0.000364  f :     0.003710
      f+1     :     0.000568
      f-1     :     0.000446
      f+2     :     0.000491
      f-2     :     0.000330
      f+3     :     0.000653
      f-3     :     0.000858
  6 Aus       :     2.508830  s :     2.508830
      pz      :     2.256148  p :     6.487927
      px      :     2.080551
      py      :     2.151228
      dz2     :     1.998149  d :     9.972210
      dxz     :     2.000095
      dyz     :     1.992783
      dx2y2   :     1.985056
      dxy     :     1.996125
      f0      :     0.000574  f :     0.004513
      f+1     :     0.000489
      f-1     :     0.001014
      f+2     :     0.000745
      f-2     :     0.000866
      f+3     :     0.000445
      f-3     :     0.000380
  7 Aus       :     2.730696  s :     2.730696
      pz      :     2.048060  p :     6.170057
      px      :     2.033058
      py      :     2.088939
      dz2     :     1.987354  d :     9.951358
      dxz     :     1.993688
      dyz     :     1.992619
      dx2y2   :     1.994498
      dxy     :     1.983199
      f0      :     0.000382  f :     0.003132
      f+1     :     0.000300
      f-1     :     0.000616
      f+2     :     0.000262
      f-2     :     0.000426
      f+3     :     0.000638
      f-3     :     0.000507
  8 Aus       :     2.516332  s :     2.516332
      pz      :     2.069518  p :     6.485674
      px      :     2.179064
      py      :     2.237092
      dz2     :     2.000028  d :     9.970043
      dxz     :     1.995962
      dyz     :     1.980638
      dx2y2   :     1.995782
      dxy     :     1.997634
      f0      :     0.000516  f :     0.004460
      f+1     :     0.000454
      f-1     :     0.000615
      f+2     :     0.000342
      f-2     :     0.000632
      f+3     :     0.001126
      f-3     :     0.000775
  9 Aus       :     2.453622  s :     2.453622
      pz      :     2.075055  p :     6.517253
      px      :     2.104370
      py      :     2.337827
      dz2     :     1.999105  d :     9.987099
      dxz     :     1.997088
      dyz     :     1.993803
      dx2y2   :     2.005732
      dxy     :     1.991370
      f0      :     0.000482  f :     0.005089
      f+1     :     0.000457
      f-1     :     0.000720
      f+2     :     0.000710
      f-2     :     0.000526
      f+3     :     0.001172
      f-3     :     0.001022
 10 Crs       :     6.295949  s :     6.295949
      pz      :     4.225391  p :    12.667754
      px      :     4.218031
      py      :     4.224332
      dz2     :     1.285257  d :     5.854400
      dxz     :     1.175508
      dyz     :     0.921545
      dx2y2   :     1.244379
      dxy     :     1.227712
      f0      :     0.000291  f :     0.001934
      f+1     :     0.000189
      f-1     :     0.000277
      f+2     :     0.000357
      f-2     :     0.000301
      f+3     :     0.000187
      f-3     :     0.000334

SPIN
  0 Aus       :     0.000570  s :     0.000570
      pz      :     0.011068  p :     0.054244
      px      :     0.003340
      py      :     0.039837
      dz2     :     0.007452  d :     0.022383
      dxz     :     0.003061
      dyz     :     0.001089
      dx2y2   :     0.002731
      dxy     :     0.008049
      f0      :     0.000073  f :     0.000428
      f+1     :     0.000104
      f-1     :     0.000026
      f+2     :     0.000085
      f-2     :     0.000048
      f+3     :     0.000059
      f-3     :     0.000032
  1 Aus       :     0.045955  s :     0.045955
      pz      :     0.007617  p :     0.022057
      px      :     0.011552
      py      :     0.002888
      dz2     :     0.002996  d :     0.013188
      dxz     :     0.003933
      dyz     :     0.002460
      dx2y2   :     0.001467
      dxy     :     0.002331
      f0      :     0.000043  f :     0.000313
      f+1     :     0.000011
      f-1     :     0.000042
      f+2     :     0.000065
      f-2     :     0.000037
      f+3     :     0.000046
      f-3     :     0.000070
  2 Aus       :     0.022367  s :     0.022367
      pz      :     0.020662  p :     0.032618
      px      :     0.007214
      py      :     0.004741
      dz2     :     0.002133  d :     0.017232
      dxz     :     0.005473
      dyz     :     0.002699
      dx2y2   :     0.004158
      dxy     :     0.002770
      f0      :     0.000048  f :     0.000453
      f+1     :     0.000028
      f-1     :     0.000028
      f+2     :     0.000053
      f-2     :     0.000121
      f+3     :     0.000084
      f-3     :     0.000092
  3 Aus       :     0.048246  s :     0.048246
      pz      :     0.013298  p :     0.021644
      px      :     0.006463
      py      :     0.001883
      dz2     :     0.003984  d :     0.012612
      dxz     :     0.002927
      dyz     :     0.001473
      dx2y2   :     0.002708
      dxy     :     0.001521
      f0      :     0.000026  f :     0.000279
      f+1     :     0.000028
      f-1     :     0.000061
      f+2     :     0.000058
      f-2     :     0.000055
      f+3     :     0.000023
      f-3     :     0.000028
  4 Aus       :     0.000562  s :     0.000562
      pz      :     0.002868  p :     0.051287
      px      :     0.006772
      py      :     0.041648
      dz2     :     0.004628  d :     0.022273
      dxz     :     0.004965
      dyz     :     0.006641
      dx2y2   :     0.000448
      dxy     :     0.005591
      f0      :     0.000156  f :     0.000428
      f+1     :     0.000100
      f-1     :     0.000087
      f+2     :     0.000017
      f-2     :     0.000060
      f+3     :     0.000007
      f-3     :     0.000001
  5 Aus       :     0.000598  s :     0.000598
      pz      :     0.011628  p :     0.034862
      px      :     0.005480
      py      :     0.017754
      dz2     :     0.004844  d :     0.023248
      dxz     :     0.004700
      dyz     :     0.001881
      dx2y2   :     0.007073
      dxy     :     0.004749
      f0      :     0.000037  f :     0.000423
      f+1     :     0.000078
      f-1     :     0.000019
      f+2     :     0.000027
      f-2     :     0.000044
      f+3     :     0.000065
      f-3     :     0.000152
  6 Aus       :     0.038504  s :     0.038504
      pz      :     0.008265  p :     0.014445
      px      :     0.003139
      py      :     0.003041
      dz2     :     0.001474  d :     0.014847
      dxz     :     0.003621
      dyz     :     0.004961
      dx2y2   :     0.001060
      dxy     :     0.003731
      f0      :     0.000042  f :     0.000348
      f+1     :     0.000005
      f-1     :     0.000043
      f+2     :     0.000075
      f-2     :     0.000063
      f+3     :     0.000071
      f-3     :     0.000050
  7 Aus       :     0.005657  s :     0.005657
      pz      :     0.007942  p :     0.012633
      px      :     0.003026
      py      :     0.001665
      dz2     :     0.002002  d :     0.007083
      dxz     :     0.000686
      dyz     :     0.001754
      dx2y2   :     0.000594
      dxy     :     0.002046
      f0      :     0.000002  f :     0.000063
      f+1     :     0.000009
      f-1     :     0.000019
      f+2     :     0.000001
      f-2     :     0.000009
      f+3     :     0.000015
      f-3     :     0.000007
  8 Aus       :     0.041813  s :     0.041813
      pz      :     0.007081  p :     0.015018
      px      :     0.005532
      py      :     0.002406
      dz2     :     0.005319  d :     0.014545
      dxz     :     0.001904
      dyz     :     0.001186
      dx2y2   :     0.002708
      dxy     :     0.003427
      f0      :     0.000053  f :     0.000334
      f+1     :     0.000037
      f-1     :     0.000077
      f+2     :     0.000028
      f-2     :     0.000080
      f+3     :     0.000028
      f-3     :     0.000031
  9 Aus       :     0.019697  s :     0.019697
      pz      :     0.005435  p :     0.013474
      px      :     0.003414
      py      :     0.004626
      dz2     :     0.002222  d :     0.017689
      dxz     :     0.005190
      dyz     :     0.002626
      dx2y2   :     0.005160
      dxy     :     0.002490
      f0      :     0.000043  f :     0.000493
      f+1     :     0.000072
      f-1     :     0.000033
      f+2     :     0.000066
      f-2     :     0.000092
      f+3     :     0.000068
      f-3     :     0.000119
 10 Crs       :     0.000206  s :     0.000206
      pz      :     0.001526  p :     0.004101
      px      :     0.001803
      py      :     0.000773
      dz2     :     0.530617  d :     2.330777
      dxz     :     0.488764
      dyz     :     0.329317
      dx2y2   :     0.480960
      dxy     :     0.501118
      f0      :     0.000000  f :     0.000003
      f+1     :     0.000001
      f-1     :     0.000001
      f+2     :     0.000001
      f-2     :     0.000000
      f+3     :     0.000001
      f-3     :     0.000000


                      *****************************
                      * MAYER POPULATION ANALYSIS *
                      *****************************

  NA   - Mulliken gross atomic population
  ZA   - Total nuclear charge
  QA   - Mulliken gross atomic charge
  VA   - Mayer's total valence
  BVA  - Mayer's bonded valence
  FA   - Mayer's free valence

  ATOM       NA         ZA         QA         VA         BVA        FA
  0 Au    18.7874    19.0000     0.2126     1.3421     1.3079     0.0342
  1 Au    18.4769    19.0000     0.5231     1.1775     1.1107     0.0668
  2 Au    18.4466    19.0000     0.5534     1.1624     1.1119     0.0504
  3 Au    18.4853    19.0000     0.5147     1.1869     1.1171     0.0699
  4 Au    18.7938    19.0000     0.2062     1.3361     1.3036     0.0325
  5 Au    18.8286    19.0000     0.1714     1.2840     1.2600     0.0240
  6 Au    18.8763    19.0000     0.1237     1.6441     1.5853     0.0587
  7 Au    18.7080    19.0000     0.2920     1.1663     1.1505     0.0159
  8 Au    18.8890    19.0000     0.1110     1.6505     1.5857     0.0647
  9 Au    18.8485    19.0000     0.1515     1.6644     1.6322     0.0322
 10 Cr    26.8595    24.0000    -2.8595     8.5260     4.5994     3.9266

  Mayer bond orders larger than 0.100000
B(  0-Au,  1-Au) :   0.1558 B(  0-Au,  2-Au) :   0.1375 B(  0-Au,  8-Au) :   0.4319 
B(  0-Au, 10-Cr) :   0.4702 B(  1-Au,  2-Au) :   0.1090 B(  1-Au,  5-Au) :   0.1407 
B(  1-Au, 10-Cr) :   0.4517 B(  2-Au,  3-Au) :   0.1107 B(  2-Au,  4-Au) :   0.1348 
B(  2-Au,  9-Au) :   0.1080 B(  2-Au, 10-Cr) :   0.4135 B(  3-Au,  4-Au) :   0.1576 
B(  3-Au,  5-Au) :   0.1421 B(  3-Au, 10-Cr) :   0.4574 B(  4-Au,  6-Au) :   0.4288 
B(  4-Au, 10-Cr) :   0.4697 B(  5-Au,  9-Au) :   0.4186 B(  5-Au, 10-Cr) :   0.4551 
B(  6-Au,  7-Au) :   0.2404 B(  6-Au,  9-Au) :   0.1226 B(  6-Au, 10-Cr) :   0.5163 
B(  7-Au,  8-Au) :   0.2367 B(  7-Au,  9-Au) :   0.3010 B(  7-Au, 10-Cr) :   0.3691 
B(  8-Au,  9-Au) :   0.1182 B(  8-Au, 10-Cr) :   0.5259 B(  9-Au, 10-Cr) :   0.4705 



-------------------------------------------------------------
 Forming the transition density       ... done in 0.098772 sec
-------------------------------------------------------------



==========================================
CASSCF UV, CD spectra and dipole moments
==========================================
-------------------
ABSORPTION SPECTRUM
-------------------

Center of mass           = ( 15.6011, 11.7711, 17.6589)
Nuclear contribution to the dipole moment =     3.182324,   -7.314452,    2.967768 au

Calculating the Dipole integrals                  ... done
Transforming integrals                            ... done
Calculating the Linear Momentum integrals         ... done
Transforming integrals                            ... done
Calculating the Angular Momentum integrals        ... done
Transforming integrals                            ... done

------------------------------------------------------------------------------------------
                                ABSORPTION SPECTRUM
------------------------------------------------------------------------------------------
  States           Energy   Wavelength   fosc          T2        TX         TY        TZ  
                   (cm-1)     (nm)                   (D**2)      (D)        (D)       (D) 
------------------------------------------------------------------------------------------
  0( 0)-> 1( 0) 5    2516.0   3974.6   0.000557859   0.47084   0.08902  -0.19075  -0.65309
  0( 0)-> 2( 0) 5    8834.0   1132.0   0.000390747   0.09393   0.05503   0.30085  -0.01969
  0( 0)-> 3( 0) 5   10615.7    942.0   0.000646671   0.12936  -0.25053   0.25653   0.02796
  0( 0)-> 4( 0) 5   10906.4    916.9   0.001909698   0.37182  -0.41272   0.32834  -0.30608
------------------------------------------------------------------------------------------



------------------------------------------------------------------------------
                             CD SPECTRUM
------------------------------------------------------------------------------
      States        Energy   Wavelength   R*T        RX        RY        RZ   
                    (cm-1)      (nm)   (1e40*sgs)   (au)      (au)      (au)  
------------------------------------------------------------------------------
  0( 0)-> 1( 0) 5    2516.0   3974.6    -2.13377   0.04404  -0.34191   0.12348
  0( 0)-> 2( 0) 5    8834.0   1132.0    -1.99077   0.11657  -0.06977  -0.19514
  0( 0)-> 3( 0) 5   10615.7    942.0    13.45073   0.19523   0.45171   0.19851
  0( 0)-> 4( 0) 5   10906.4    916.9   -10.80722  -0.31905  -0.03319   0.58497
------------------------------------------------------------------------------

------------------------------------------------------------------------------
                                 DIPOLE MOMENTS
------------------------------------------------------------------------------
  Root  Block           TX        TY        TZ           |T|
                      (Debye)   (Debye)   (Debye)      (Debye)
------------------------------------------------------------------------------
    0    0            0.42805   0.03694   0.06403      0.43438

--------------
CASSCF TIMINGS
--------------

Total time                       ...     3622.6 sec
Sum of individual times          ...     3612.3 sec ( 99.7%)

Calculation of AO operators
   F(Core) operator              ...     1756.3 sec ( 48.5%)
   G(Act) operator               ...     1690.6 sec ( 46.7%)
   J(AO) operators               ...        0.0 sec (  0.0%)
Calculation of MO transformed quantities
   J(MO) operators               ...      115.2 sec (  3.2%)
   (pq|rs) integrals             ...        0.0 sec (  0.0%)
   AO->MO one electron integrals ...        0.8 sec (  0.0%)
Configuration interaction steps
   CI-setup phase                ...        0.0 sec (  0.0%)
   CI-solution phase             ...       39.2 sec (  1.1%)
   Generation of densities       ...        1.4 sec (  0.0%)
Orbital improvement steps
   Orbital gradient              ...        0.9 sec (  0.0%)
   O(1) converger                ...        7.8 sec (  0.2%)
Properties                       ...        0.1 sec (  0.0%)
   SOC integral calculation      ...        0.0 sec (  0.0%)
   SSC RMEs (incl. integrals)    ...        0.0 sec (  0.0%)
   SOC RMEs                      ...        0.0 sec (  0.0%)

Maximum memory used throughout the entire CASSCF-calculation: 256.9 MB

-------------------------   --------------------
FINAL SINGLE POINT ENERGY     -2391.237229563661
-------------------------   --------------------


                            ***************************************
                            *     ORCA property calculations      *
                            ***************************************

                                    ---------------------
                                    Active property flags
                                    ---------------------
   (+) Dipole Moment


------------------------------------------------------------------------------
                       ORCA ELECTRIC PROPERTIES CALCULATION
------------------------------------------------------------------------------

Dipole Moment Calculation                       ... on
Quadrupole Moment Calculation                   ... off
Polarizability Calculation                      ... off
GBWName                                         ... casscf.gbw
Electron density                                ... casscf.scfp
The origin for moment calculation is the CENTER OF MASS  = (15.601067, 11.771092 17.658876)

-------------
DIPOLE MOMENT
-------------
                                X             Y             Z
Electronic contribution:     -3.27642       7.08154      -2.93131
Nuclear contribution   :      3.18232      -7.31445       2.96777
                        -----------------------------------------
Total Dipole Moment    :     -0.09409      -0.23291       0.03646
                        -----------------------------------------
Magnitude (a.u.)       :      0.25383
Magnitude (Debye)      :      0.64519



--------------------
Rotational spectrum 
--------------------
 
Rotational constants in cm-1:     0.002241     0.001381     0.001346 
Rotational constants in MHz :    67.190558    41.411432    40.339302 

 Dipole components along the rotational axes: 
x,y,z [a.u.] :     0.203397     0.019762    -0.150565 
x,y,z [Debye]:     0.516994     0.050231    -0.382707 

 

Timings for individual modules:

Sum of individual times         ...     3653.735 sec (=  60.896 min)
GTO integral calculation        ...       14.708 sec (=   0.245 min)   0.4 %
SCF iterations                  ...        9.144 sec (=   0.152 min)   0.3 %
CASSCF iterations               ...     3629.883 sec (=  60.498 min)  99.3 %
                             ****ORCA TERMINATED NORMALLY****
TOTAL RUN TIME: 0 days 1 hours 0 minutes 54 seconds 164 msec
