
                                 *****************
                                 * O   R   C   A *
                                 *****************

                                            #,                                       
                                            ###                                      
                                            ####                                     
                                            #####                                    
                                            ######                                   
                                           ########,                                 
                                     ,,################,,,,,                         
                               ,,#################################,,                 
                          ,,##########################################,,             
                       ,#########################################, ''#####,          
                    ,#############################################,,   '####,        
                  ,##################################################,,,,####,       
                ,###########''''           ''''###############################       
              ,#####''   ,,,,##########,,,,          '''####'''          '####       
            ,##' ,,,,###########################,,,                        '##       
           ' ,,###''''                  '''############,,,                           
         ,,##''                                '''############,,,,        ,,,,,,###''
      ,#''                                            '''#######################'''  
     '                                                          ''''####''''         
             ,#######,   #######,   ,#######,      ##                                
            ,#'     '#,  ##    ##  ,#'     '#,    #''#        ######   ,####,        
            ##       ##  ##   ,#'  ##            #'  '#       #        #'  '#        
            ##       ##  #######   ##           ,######,      #####,   #    #        
            '#,     ,#'  ##    ##  '#,     ,#' ,#      #,         ##   #,  ,#        
             '#######'   ##     ##  '#######'  #'      '#     #####' # '####'        



                  #######################################################
                  #                        -***-                        #
                  #          Department of theory and spectroscopy      #
                  #    Directorship and core code : Frank Neese         #
                  #        Max Planck Institute fuer Kohlenforschung    #
                  #                Kaiser Wilhelm Platz 1               #
                  #                 D-45470 Muelheim/Ruhr               #
                  #                      Germany                        #
                  #                                                     #
                  #                  All rights reserved                #
                  #                        -***-                        #
                  #######################################################


                         Program Version 5.0.3 -  RELEASE  -


 With contributions from (in alphabetic order):
   Daniel Aravena         : Magnetic Suceptibility
   Michael Atanasov       : Ab Initio Ligand Field Theory (pilot matlab implementation)
   Alexander A. Auer      : GIAO ZORA, VPT2 properties, NMR spectrum
   Ute Becker             : Parallelization
   Giovanni Bistoni       : ED, misc. LED, open-shell LED, HFLD
   Martin Brehm           : Molecular dynamics
   Dmytro Bykov           : SCF Hessian
   Vijay G. Chilkuri      : MRCI spin determinant printing, contributions to CSF-ICE
   Dipayan Datta          : RHF DLPNO-CCSD density
   Achintya Kumar Dutta   : EOM-CC, STEOM-CC
   Dmitry Ganyushin       : Spin-Orbit,Spin-Spin,Magnetic field MRCI
   Miquel Garcia          : C-PCM and meta-GGA Hessian, CC/C-PCM, Gaussian charge scheme
   Yang Guo               : DLPNO-NEVPT2, F12-NEVPT2, CIM, IAO-localization
   Andreas Hansen         : Spin unrestricted coupled pair/coupled cluster methods
   Benjamin Helmich-Paris : MC-RPA, TRAH-SCF, COSX integrals
   Lee Huntington         : MR-EOM, pCC
   Robert Izsak           : Overlap fitted RIJCOSX, COSX-SCS-MP3, EOM
   Marcus Kettner         : VPT2
   Christian Kollmar      : KDIIS, OOCD, Brueckner-CCSD(T), CCSD density, CASPT2, CASPT2-K
   Simone Kossmann        : Meta GGA functionals, TD-DFT gradient, OOMP2, MP2 Hessian
   Martin Krupicka        : Initial AUTO-CI
   Lucas Lang             : DCDCAS
   Marvin Lechner         : AUTO-CI (C++ implementation), FIC-MRCC
   Dagmar Lenk            : GEPOL surface, SMD
   Dimitrios Liakos       : Extrapolation schemes; Compound Job, initial MDCI parallelization
   Dimitrios Manganas     : Further ROCIS development; embedding schemes
   Dimitrios Pantazis     : SARC Basis sets
   Anastasios Papadopoulos: AUTO-CI, single reference methods and gradients
   Taras Petrenko         : DFT Hessian,TD-DFT gradient, ASA, ECA, R-Raman, ABS, FL, XAS/XES, NRVS
   Peter Pinski           : DLPNO-MP2, DLPNO-MP2 Gradient
   Christoph Reimann      : Effective Core Potentials
   Marius Retegan         : Local ZFS, SOC
   Christoph Riplinger    : Optimizer, TS searches, QM/MM, DLPNO-CCSD(T), (RO)-DLPNO pert. Triples
   Tobias Risthaus        : Range-separated hybrids, TD-DFT gradient, RPA, STAB
   Michael Roemelt        : Original ROCIS implementation
   Masaaki Saitow         : Open-shell DLPNO-CCSD energy and density
   Barbara Sandhoefer     : DKH picture change effects
   Avijit Sen             : IP-ROCIS
   Kantharuban Sivalingam : CASSCF convergence, NEVPT2, FIC-MRCI
   Bernardo de Souza      : ESD, SOC TD-DFT
   Georgi Stoychev        : AutoAux, RI-MP2 NMR, DLPNO-MP2 response
   Willem Van den Heuvel  : Paramagnetic NMR
   Boris Wezisla          : Elementary symmetry handling
   Frank Wennmohs         : Technical directorship


 We gratefully acknowledge several colleagues who have allowed us to
 interface, adapt or use parts of their codes:
   Stefan Grimme, W. Hujo, H. Kruse, P. Pracht,  : VdW corrections, initial TS optimization,
                  C. Bannwarth, S. Ehlert          DFT functionals, gCP, sTDA/sTD-DF
   Ed Valeev, F. Pavosevic, A. Kumar             : LibInt (2-el integral package), F12 methods
   Garnet Chan, S. Sharma, J. Yang, R. Olivares  : DMRG
   Ulf Ekstrom                                   : XCFun DFT Library
   Mihaly Kallay                                 : mrcc  (arbitrary order and MRCC methods)
   Jiri Pittner, Ondrej Demel                    : Mk-CCSD
   Frank Weinhold                                : gennbo (NPA and NBO analysis)
   Christopher J. Cramer and Donald G. Truhlar   : smd solvation model
   Lars Goerigk                                  : TD-DFT with DH, B97 family of functionals
   V. Asgeirsson, H. Jonsson                     : NEB implementation
   FAccTs GmbH                                   : IRC, NEB, NEB-TS, DLPNO-Multilevel, CI-OPT
                                                   MM, QMMM, 2- and 3-layer-ONIOM, Crystal-QMMM,
                                                   LR-CPCM, SF, NACMEs, symmetry and pop. for TD-DFT,
                                                   nearIR, NL-DFT gradient (VV10), updates on ESD,
                                                   ML-optimized integration grids
   S Lehtola, MJT Oliveira, MAL Marques          : LibXC Library
   Liviu Ungur et al                             : ANISO software


 Your calculation uses the libint2 library for the computation of 2-el integrals
 For citations please refer to: http://libint.valeyev.net

 Your ORCA version has been built with support for libXC version: 5.1.0
 For citations please refer to: https://tddft.org/programs/libxc/

 This ORCA versions uses:
   CBLAS   interface :  Fast vector & matrix operations
   LAPACKE interface :  Fast linear algebra routines
   SCALAPACK package :  Parallel linear algebra routines
   Shared memory     :  Shared parallel matrices
   BLAS/LAPACK       :  OpenBLAS 0.3.15  USE64BITINT DYNAMIC_ARCH NO_AFFINITY Haswell SINGLE_THREADED
        Core in use  :  Haswell
   Copyright (c) 2011-2014, The OpenBLAS Project




***************************************
The coordinates will be read from file: pbe.xyz
***************************************


================================================================================

cite the ECPs for Au [Def2-ECP] as follows:
Ce-Yb(ecp-28): M. Dolg, H. Stoll, H.Preuss, J. Chem. Phys., 1989, 90, 1730-1734.
Y-Cd(ecp-28), Hf-Hg(ecp-46): D. Andrae,U. Haeussermann, M. Dolg, H. Stoll, H. Preuss, Theor. Chim. Acta, 1990, 77, 123-141.
In-Sb(ecp-28), Tl-Bi(ecp-46): B. Metz, H. Stoll, M. Dolg, J. Chem. Phys., 2000, 113, 2563-2569.
Te-Xe(ecp-28), Po-Rn(ecp-46): K. A. Peterson, D. Figgen, E. Goll, H. Stoll, M. Dolg, J. Chem. Phys., 2003, 119, 11113-11123.
Rb(ecp-28), Cs(ecp-46): T. Leininger, A. Nicklass, W. Kuechle, H. Stoll, M. Dolg, A. Bergner, Chem. Phys. Lett., 1996, 255, 274-280.
Sr(ecp-28), Ba(ecp-46): M. Kaupp, P. V. Schleyer, H. Stoll and H. Preuss, J. Chem. Phys., 1991, 94, 1360-1366.
La(ecp-46): M. Dolg, H. Stoll, A. Savin, H. Preuss, Theor. Chim. Acta, 1989, 75, 173-194.
Lu(ecp-28): X. Cao, M. Dolg, J. Chem. Phys., 2001, 115, 7348-7355.

ECP parameters for Au [Def2-ECP] have been obtained from:
TURBOMOLE (7.0.2)

----- Orbital basis set information -----
Your calculation utilizes the basis: def2-TZVP
   F. Weigend and R. Ahlrichs, Phys. Chem. Chem. Phys. 7, 3297 (2005).

----- AuxJ basis set information -----
Your calculation utilizes the auxiliary basis: def2/J
   F. Weigend, Phys. Chem. Chem. Phys. 8, 1057 (2006).

----- AuxC basis set information -----
Your calculation utilizes the auxiliary basis: def2-TZVP/C
  H-La, Hf-Rn : A. Hellweg, C. Hattig, S. Hofener and W. Klopper, Theor. Chem. Acc. 117, 587 (2007).
        Ce-Lu : J. Chmela and M. E. Harding, Mol. Phys. (2018).

================================================================================
                                        WARNINGS
                       Please study these warnings very carefully!
================================================================================


IMPORTANT NOTE: CASSCF must signal convergence for a subsequent CASPT2/NEVPT2! 
                Set maxiter=1 to run CASPT2/NEVPT2 with arbitrary orbitals.


INFO   : the flag for use of the SHARK integral package has been found!

================================================================================
                                       INPUT FILE
================================================================================
NAME = nevpt2.inp
|  1> !SC-NEVPT2 def2-TZVP def2-TZVP/C
|  2> !MOREAD RIJCOSX def2/J
|  3> %maxcore 4000
|  4> %moinp "casscf.gbw"
|  5> %pal nprocs 8 end 
|  6> 
|  7> %casscf
|  8>  mult 5,3
|  9>  bweight 1,1
| 10>  nroots 5,45
| 11>  nel 6
| 12>  norb 5
| 13>  ptsettings
| 14>   d4tpre 1e-14 # default = 1e-10
| 15>   d3tpre 1e-14
| 16>  end
| 17>  rel           
| 18>    dosoc true   
| 19>    gtensor true 
| 20>  end           
| 21> end
| 22> 
| 23> 
| 24> *xyzfile 0 5 pbe.xyz
| 25> 
| 26> 
| 27>                          ****END OF INPUT****
================================================================================

                       ****************************
                       * Single Point Calculation *
                       ****************************

---------------------------------
CARTESIAN COORDINATES (ANGSTROEM)
---------------------------------
  Au    10.403558    5.440320    7.810247
  Au     8.553476    3.466189    8.573691
  Au    10.245123    4.481904   10.536539
  Au     7.577303    4.191161   11.285099
  Au     8.861205    6.583079   11.999990
  Au     6.010365    4.741350    8.961433
  Au     8.079530    8.524694   10.362126
  Au     7.372447    9.826476    8.027754
  Au     9.124053    7.749233    7.525863
  Au     6.306813    7.339358    8.342165
  Cr     8.344437    6.025103    9.427401

----------------------------
CARTESIAN COORDINATES (A.U.)
----------------------------
  NO LB      ZA    FRAG     MASS         X           Y           Z
   0 Au   19.0000*   0   196.966   19.659875   10.280715   14.759227
   1 Au   19.0000*   0   196.966   16.163727    6.550148   16.201927
   2 Au   19.0000*   0   196.966   19.360477    8.469571   19.911172
   3 Au   19.0000*   0   196.966   14.319028    7.920147   21.325747
   4 Au   19.0000*   0   196.966   16.745251   12.440217   22.676694
   5 Au   19.0000*   0   196.966   11.357944    8.959853   16.934655
   6 Au   19.0000*   0   196.966   15.268098   16.109337   19.581581
   7 Au   19.0000*   0   196.966   13.931906   18.569349   15.170256
   8 Au   19.0000*   0   196.966   17.241962   14.643928   14.221820
   9 Au   19.0000*   0   196.966   11.918149   13.869376   15.764407
  10 Cr   24.0000    0    52.000   15.768700   11.385795   17.815207
* core charge reduced due to ECP

--------------------------------
INTERNAL COORDINATES (ANGSTROEM)
--------------------------------
 Au     0   0   0     0.000000000000     0.00000000     0.00000000
 Au     1   0   0     2.811199461883     0.00000000     0.00000000
 Au     2   1   0     2.783184578328    62.30538328     0.00000000
 Au     3   2   1     2.786061304684    64.49366709   136.14943670
 Au     4   3   2     2.807266499849    62.71388625   224.60001793
 Au     4   3   2     2.856120731970   106.65728894   325.60633129
 Au     5   4   3     2.657720665399   109.33052127   103.20451722
 Au     7   5   4     2.764760226220   159.97329071   318.43910397
 Au     1   2   3     2.655011327872   108.82192782   256.12147718
 Au     6   4   3     2.687195490654   108.25262474   293.18668503
 Cr    10   6   4     2.656485113068    60.80125135    32.94660669

---------------------------
INTERNAL COORDINATES (A.U.)
---------------------------
 Au     0   0   0     0.000000000000     0.00000000     0.00000000
 Au     1   0   0     5.312397090785     0.00000000     0.00000000
 Au     2   1   0     5.259456633192    62.30538328     0.00000000
 Au     3   2   1     5.264892858168    64.49366709   136.14943670
 Au     4   3   2     5.304964869646    62.71388625   224.60001793
 Au     4   3   2     5.397285988839   106.65728894   325.60633129
 Au     5   4   3     5.022364198067   109.33052127   103.20451722
 Au     7   5   4     5.224639653513   159.97329071   318.43910397
 Au     1   2   3     5.017244292136   108.82192782   256.12147718
 Au     6   4   3     5.078063545645   108.25262474   293.18668503
 Cr    10   6   4     5.020029342537    60.80125135    32.94660669

---------------------
BASIS SET INFORMATION
---------------------
There are 2 groups of distinct atoms

 Group   1 Type Au  : 8s7p6d1f contracted to 6s4p3d1f pattern {311111/4111/411/1}
 Group   2 Type Cr  : 17s11p7d1f contracted to 6s4p4d1f pattern {842111/6311/4111/1}

Atom   0Au   basis set group =>   1
Atom   1Au   basis set group =>   1
Atom   2Au   basis set group =>   1
Atom   3Au   basis set group =>   1
Atom   4Au   basis set group =>   1
Atom   5Au   basis set group =>   1
Atom   6Au   basis set group =>   1
Atom   7Au   basis set group =>   1
Atom   8Au   basis set group =>   1
Atom   9Au   basis set group =>   1
Atom  10Cr   basis set group =>   2
---------------------------------
AUXILIARY/J BASIS SET INFORMATION
---------------------------------
There are 2 groups of distinct atoms

 Group   1 Type Au  : 11s5p5d3f3g contracted to 8s5p5d2f3g pattern {41111111/11111/11111/21/111}
 Group   2 Type Cr  : 19s5p5d3f3g contracted to 8s5p5d2f3g pattern {121111111/11111/11111/21/111}

Atom   0Au   basis set group =>   1
Atom   1Au   basis set group =>   1
Atom   2Au   basis set group =>   1
Atom   3Au   basis set group =>   1
Atom   4Au   basis set group =>   1
Atom   5Au   basis set group =>   1
Atom   6Au   basis set group =>   1
Atom   7Au   basis set group =>   1
Atom   8Au   basis set group =>   1
Atom   9Au   basis set group =>   1
Atom  10Cr   basis set group =>   2
---------------------------------
AUXILIARY/C BASIS SET INFORMATION
---------------------------------
There are 2 groups of distinct atoms

 Group   1 Type Au  : 8s8p7d5f3g2h contracted to 8s8p7d5f3g2h pattern {11111111/11111111/1111111/11111/111/11}
 Group   2 Type Cr  : 11s9p8d6f5g2h contracted to 9s8p8d6f5g2h pattern {311111111/21111111/11111111/111111/11111/11}

Atom   0Au   basis set group =>   1
Atom   1Au   basis set group =>   1
Atom   2Au   basis set group =>   1
Atom   3Au   basis set group =>   1
Atom   4Au   basis set group =>   1
Atom   5Au   basis set group =>   1
Atom   6Au   basis set group =>   1
Atom   7Au   basis set group =>   1
Atom   8Au   basis set group =>   1
Atom   9Au   basis set group =>   1
Atom  10Cr   basis set group =>   2
-------------------------
ECP PARAMETER INFORMATION
-------------------------

 Group 1, Type Au ECP Def2-ECP (replacing 60 core electrons, lmax=3)

Atom   0Au   ECP group =>   1
Atom   1Au   ECP group =>   1
Atom   2Au   ECP group =>   1
Atom   3Au   ECP group =>   1
Atom   4Au   ECP group =>   1
Atom   5Au   ECP group =>   1
Atom   6Au   ECP group =>   1
Atom   7Au   ECP group =>   1
Atom   8Au   ECP group =>   1
Atom   9Au   ECP group =>   1



           ************************************************************
           *        Program running with 8 parallel MPI-processes     *
           *              working on a common directory               *
           ************************************************************
------------------------------------------------------------------------------
                           ORCA GTO INTEGRAL CALCULATION
                           -- RI-GTO INTEGRALS CHOSEN --
------------------------------------------------------------------------------
------------------------------------------------------------------------------
                   ___                                                        
                  /   \      - P O W E R E D   B Y -                         
                 /     \                                                     
                 |  |  |   _    _      __       _____    __    __             
                 |  |  |  | |  | |    /  \     |  _  \  |  |  /  |          
                  \  \/   | |  | |   /    \    | | | |  |  | /  /          
                 / \  \   | |__| |  /  /\  \   | |_| |  |  |/  /          
                |  |  |   |  __  | /  /__\  \  |    /   |      \           
                |  |  |   | |  | | |   __   |  |    \   |  |\   \          
                \     /   | |  | | |  |  |  |  | |\  \  |  | \   \       
                 \___/    |_|  |_| |__|  |__|  |_| \__\ |__|  \__/        
                                                                              
                      - O R C A' S   B I G   F R I E N D -                    
                                      &                                       
                       - I N T E G R A L  F E E D E R -                       
                                                                              
 v1 FN, 2020, v2 2021                                                         
------------------------------------------------------------------------------


Reading SHARK input file nevpt2.SHARKINP.tmp ... ok
----------------------
SHARK INTEGRAL PACKAGE
----------------------

Number of atoms                             ...     11
Number of basis functions                   ...    445
Number of shells                            ...    155
Maximum angular momentum                    ...      3
Integral batch strategy                     ... SHARK/LIBINT Hybrid
RI-J (if used) integral strategy            ... SPLIT-RIJ (Revised 2003 algorithm where possible)
Printlevel                                  ...      1
Contraction scheme used                     ... SEGMENTED contraction
Coulomb Range Separation                    ... NOT USED
Exchange Range Separation                   ... NOT USED
Finite Nucleus Model                        ... NOT USED
Auxiliary Coulomb fitting basis             ... AVAILABLE
   # of basis functions in Aux-J            ...    979
   # of shells in Aux-J                     ...    253
   Maximum angular momentum in Aux-J        ...      4
Auxiliary J/K fitting basis                 ... NOT available
Auxiliary Correlation fitting basis         ... AVAILABLE
   # of basis functions in Aux-C            ...   1692
   # of shells in Aux-C                     ...    368
   Maximum angular momentum in Aux-C        ...      5
Auxiliary 'external' fitting basis          ... NOT available
Integral threshold                          ...     1.000000e-10
Primitive cut-off                           ...     1.000000e-11
Primitive pair pre-selection threshold      ...     1.000000e-11

Calculating pre-screening integrals         ... done (  0.1 sec) Dimension = 155
Organizing shell pair data                  ... done (  0.2 sec)
Shell pair information
Total number of shell pairs                 ...     12090
Shell pairs after pre-screening             ...     10025
Total number of primitive shell pairs       ...     33105
Primitive shell pairs kept                  ...     20282
          la=0 lb=0:   1567 shell pairs
          la=1 lb=0:   2296 shell pairs
          la=1 lb=1:    850 shell pairs
          la=2 lb=0:   1989 shell pairs
          la=2 lb=1:   1392 shell pairs
          la=2 lb=2:    579 shell pairs
          la=3 lb=0:    541 shell pairs
          la=3 lb=1:    404 shell pairs
          la=3 lb=2:    350 shell pairs
          la=3 lb=3:     57 shell pairs

Calculating one electron integrals          ... done (  0.0 sec)
Calculating ECP integrals                   ... done (  3.8 sec)
Calculating RI/J V-Matrix + Cholesky decomp.... done (  0.0 sec)
Calculating RI/C V-Matrix + Cholesky decomp.... done (  0.1 sec)
Calculating Nuclear repulsion               ... done (  0.0 sec) ENN=   3138.270678506287 Eh

SHARK setup successfully completed in   4.4 seconds

Maximum memory used throughout the entire GTOINT-calculation: 30.0 MB


           ************************************************************
           *        Program running with 8 parallel MPI-processes     *
           *              working on a common directory               *
           ************************************************************
-------------------------------------------------------------------------------
                                 ORCA SCF
-------------------------------------------------------------------------------

------------
SCF SETTINGS
------------
Hamiltonian:
 Ab initio Hamiltonian  Method          .... Hartree-Fock(GTOs)
 RI-approximation to the Coulomb term is turned on
   Number of AuxJ basis functions       .... 979
   RIJ-COSX (HFX calculated with COS-X)).... on


General Settings:
 Integral files         IntName         .... nevpt2
 Hartree-Fock type      HFTyp           .... CASSCF
 Total Charge           Charge          ....    0
 Multiplicity           Mult            ....    5
 Number of Electrons    NEL             ....  214
 Basis Dimension        Dim             ....  445
 Nuclear Repulsion      ENuc            ....   3138.2706785063 Eh


Diagonalization of the overlap matrix:
Smallest eigenvalue                        ... 2.502e-04
Time for diagonalization                   ...    0.035 sec
Threshold for overlap eigenvalues          ... 1.000e-08
Number of eigenvalues below threshold      ... 0
Time for construction of square roots      ...    0.022 sec
Total time needed                          ...    0.059 sec

---------------------
INITIAL GUESS: MOREAD
---------------------
Guess MOs are being read from file: casscf.gbw
Input Geometry matches current geometry (good)
Input basis set matches current basis set (good)
MOs were renormalized
Gram-Schmidt orthogonalization of all MOs with pivot on actives
                      ------------------
                      INITIAL GUESS DONE (   0.7 sec)
                      ------------------
--------------------
COSX GRID GENERATION
--------------------

GRIDX 1
-------
General Integration Accuracy     IntAcc      ... 3.816
Radial Grid Type                 RadialGrid  ... OptM3 with GC (2021)
Angular Grid (max. ang.)         AngularGrid ... 1 (Lebedev-50)
Angular grid pruning method      GridPruning ... 4 (adaptive)
Weight generation scheme         WeightScheme... Becke
Basis function cutoff            BFCut       ... 1.0000e-10
Integration weight cutoff        WCut        ... 1.0000e-14
Angular grids for H and He will be reduced by one unit
Partially contracted basis set               ... on
Rotationally invariant grid construction     ... off

Total number of grid points                  ...    13084
Total number of batches                      ...      212
Average number of points per batch           ...       61
Average number of grid points per atom       ...     1189
UseSFitting                                  ... on

GRIDX 2
-------
General Integration Accuracy     IntAcc      ... 4.020
Radial Grid Type                 RadialGrid  ... OptM3 with GC (2021)
Angular Grid (max. ang.)         AngularGrid ... 2 (Lebedev-110)
Angular grid pruning method      GridPruning ... 4 (adaptive)
Weight generation scheme         WeightScheme... Becke
Basis function cutoff            BFCut       ... 1.0000e-10
Integration weight cutoff        WCut        ... 1.0000e-14
Angular grids for H and He will be reduced by one unit
Partially contracted basis set               ... on
Rotationally invariant grid construction     ... off

Total number of grid points                  ...    39420
Total number of batches                      ...      622
Average number of points per batch           ...       63
Average number of grid points per atom       ...     3584
UseSFitting                                  ... on

GRIDX 3
-------
General Integration Accuracy     IntAcc      ... 4.338
Radial Grid Type                 RadialGrid  ... OptM3 with GC (2021)
Angular Grid (max. ang.)         AngularGrid ... 3 (Lebedev-194)
Angular grid pruning method      GridPruning ... 4 (adaptive)
Weight generation scheme         WeightScheme... Becke
Basis function cutoff            BFCut       ... 1.0000e-10
Integration weight cutoff        WCut        ... 1.0000e-14
Angular grids for H and He will be reduced by one unit
Partially contracted basis set               ... on
Rotationally invariant grid construction     ... off

Total number of grid points                  ...    72577
Total number of batches                      ...     1140
Average number of points per batch           ...       63
Average number of grid points per atom       ...     6598
UseSFitting                                  ... on

Time for X-Grid setup             =    0.719 sec



 ... the calculation is a CASSCF calculation -I'm leaving here GOOD LUCK!!!



           ************************************************************
           *        Program running with 8 parallel MPI-processes     *
           *              working on a common directory               *
           ************************************************************
-------------------------------------------------------------------------------
                              ORCA-CASSCF
-------------------------------------------------------------------------------

Setting up the integral package       ... done
Setting up the integral package (RI)  ... done
Building the CAS space                ... done (5 configurations for Mult=5)
Building the CAS space                ... done (35 configurations for Mult=3)

 CASSCF (estimated) memory needed     ... 81.6 MB
 NEVPT2 (estimated) memory needed     ... 243.1 MB


SYSTEM-SPECIFIC SETTINGS:
Number of active electrons          ...    6
Number of active orbitals           ...    5
Total number of electrons           ...  214
Total number of orbitals            ...  445
Total number aux. functions         ... 1692

Determined orbital ranges:
   Internal       0 -  103 ( 104 orbitals)
   Active       104 -  108 (   5 orbitals)
   External     109 -  444 ( 336 orbitals)
Number of rotation parameters      ...  37144

CI-STEP:
CI strategy                         ... General CI
Number of multiplicity blocks       ...    2
BLOCK  1 WEIGHT=   0.5000
  Multiplicity                      ...    5
  #(Configurations)                 ...    5
  #(CSFs)                           ...    5
  #(Roots)                          ...    5
    ROOT=0 WEIGHT=    0.100000
    ROOT=1 WEIGHT=    0.100000
    ROOT=2 WEIGHT=    0.100000
    ROOT=3 WEIGHT=    0.100000
    ROOT=4 WEIGHT=    0.100000

BLOCK  2 WEIGHT=   0.5000
  Multiplicity                      ...    3
  #(Configurations)                 ...   35
  #(CSFs)                           ...   45
  #(Roots)                          ...   45
    ROOT=0 WEIGHT=    0.011111
    ROOT=1 WEIGHT=    0.011111
    ROOT=2 WEIGHT=    0.011111
    ROOT=3 WEIGHT=    0.011111
    ROOT=4 WEIGHT=    0.011111
    ROOT=5 WEIGHT=    0.011111
    ROOT=6 WEIGHT=    0.011111
    ROOT=7 WEIGHT=    0.011111
    ROOT=8 WEIGHT=    0.011111
    ROOT=9 WEIGHT=    0.011111
    ROOT=10 WEIGHT=    0.011111
    ROOT=11 WEIGHT=    0.011111
    ROOT=12 WEIGHT=    0.011111
    ROOT=13 WEIGHT=    0.011111
    ROOT=14 WEIGHT=    0.011111
    ROOT=15 WEIGHT=    0.011111
    ROOT=16 WEIGHT=    0.011111
    ROOT=17 WEIGHT=    0.011111
    ROOT=18 WEIGHT=    0.011111
    ROOT=19 WEIGHT=    0.011111
    ROOT=20 WEIGHT=    0.011111
    ROOT=21 WEIGHT=    0.011111
    ROOT=22 WEIGHT=    0.011111
    ROOT=23 WEIGHT=    0.011111
    ROOT=24 WEIGHT=    0.011111
    ROOT=25 WEIGHT=    0.011111
    ROOT=26 WEIGHT=    0.011111
    ROOT=27 WEIGHT=    0.011111
    ROOT=28 WEIGHT=    0.011111
    ROOT=29 WEIGHT=    0.011111
    ROOT=30 WEIGHT=    0.011111
    ROOT=31 WEIGHT=    0.011111
    ROOT=32 WEIGHT=    0.011111
    ROOT=33 WEIGHT=    0.011111
    ROOT=34 WEIGHT=    0.011111
    ROOT=35 WEIGHT=    0.011111
    ROOT=36 WEIGHT=    0.011111
    ROOT=37 WEIGHT=    0.011111
    ROOT=38 WEIGHT=    0.011111
    ROOT=39 WEIGHT=    0.011111
    ROOT=40 WEIGHT=    0.011111
    ROOT=41 WEIGHT=    0.011111
    ROOT=42 WEIGHT=    0.011111
    ROOT=43 WEIGHT=    0.011111
    ROOT=44 WEIGHT=    0.011111

  PrintLevel                        ...    1
  N(GuessMat)                       ...       512
  MaxDim(CI)                        ...        10
  MaxIter(CI)                       ...        64
  Energy Tolerance CI               ...  1.00e-08
  Residual Tolerance CI             ...  1.00e-08
  Shift(CI)                         ...  1.00e-04

INTEGRAL-TRANSFORMATION-STEP:
  Algorithm                         ... RI-MO

ORBITAL-IMPROVEMENT-STEP:
  Algorithm                         ... SuperCI(PT)
  Default Parametrization           ... CAYLEY
  Act-Act rotations                 ... depends on algorithm used

  Note: SuperCI(PT) will ignore FreezeIE, FreezeAct and FreezeGrad. In general Default settings are encouraged.
        In conjunction with ShiftUp, ShiftDn or GradScaling the performance of SuperCI(PT) is less optimal.  

  MaxRot                            ... 2.00e-01 
  Max. no of vectors (DIIS)         ... 15
  DThresh (cut-off) metric          ... 1.00e-06
  Switch step at gradient           ...  3.00e-02 
  Switch step at iteration          ...        50   
  Switch step to                    ... SuperCI(PT)    

SCF-SETTINGS:
  Incremental                       ... off
  RIJCOSX approximation             ... on
  UseFinalGrid                      ... on
  RI-JK approximation               ... off
  AO integral handling              ... DIRECT
  Integral Neglect Thresh           ...  1.00e-10
  Primitive cutoff TCut             ...  1.00e-11
  Energy convergence tolerance      ...  1.00e-07
  Orbital gradient convergence      ...  1.00e-03
  Max. number of iterations         ...        75  

PT2-SETTINGS:
  A PT2 calculation will be performed on top of the CASSCF wave function (PT2 = SC-NEVPT2)   
 CI step strategy                   ... General CI
  D4C handling                      ... on the fly 
  CI truncation for D4C at          ...  1.00e-14
  CI truncation for D3  at          ...  1.00e-14
  Orbitals                          ... canonical for each state 
  Last  frozen  orbital             ... 4
  First deleted orbital             ... 445
  RI Step                           ... store IJV(array) (MC_ONDISK during integral transformation) 

PROPERTIES-SETTINGS:
  Spin orbit coupling               ... true
  GTensor                           ... true
  QDPT diagonal energies            ... NEVPT2 energies 

FINAL ORBITALS:
  Active   Orbitals                 ... natural 
  Internal Orbitals                 ... canonical 
  External Orbitals                 ... canonical 

------------------
CAS-SCF ITERATIONS
------------------


MACRO-ITERATION   1: 
   --- Inactive Energy E0 = -2382.90503134 Eh
CI-ITERATION   0: 
 -2391.324585303   0.000000000000 (    0.00)
 -2391.313121711   0.000000000000
 -2391.284334860   0.000000000000
 -2391.276216393   0.000000000000
 -2391.274892296   0.000000000000
   CI-PROBLEM SOLVED
   DENSITIES MADE
CI-ITERATION   0: 
 -2391.311610045   0.000000000000 (    0.00)
 -2391.298678586   0.000000000000
 -2391.295985716   0.000000000000
 -2391.286714082   0.000000000000
 -2391.268381635   0.000000000000
 -2391.264424475   0.000000000000
 -2391.262073501   0.000000000000
 -2391.261196821   0.000000000000
 -2391.260576572   0.000000000000
 -2391.258279388   0.000000000000
 -2391.252221760   0.000000000000
 -2391.249824968   0.000000000000
 -2391.241845364   0.000000000000
 -2391.238784465   0.000000000000
 -2391.237685197   0.000000000000
 -2391.231280336   0.000000000000
 -2391.228482588   0.000000000000
 -2391.226167975   0.000000000000
 -2391.225131020   0.000000000000
 -2391.221226885   0.000000000000
 -2391.220515214   0.000000000000
 -2391.219100668   0.000000000000
 -2391.218059932   0.000000000000
 -2391.210400061   0.000000000000
 -2391.204089055   0.000000000000
 -2391.201501737   0.000000000000
 -2391.184332470   0.000000000000
 -2391.177564496   0.000000000000
 -2391.174467515   0.000000000000
 -2391.169987673   0.000000000000
 -2391.159452653   0.000000000000
 -2391.157284874   0.000000000000
 -2391.121516282   0.000000000000
 -2391.118642930   0.000000000000
 -2391.114178493   0.000000000000
 -2391.111193330   0.000000000000
 -2391.098783888   0.000000000000
 -2391.089634673   0.000000000000
 -2391.088453975   0.000000000000
 -2391.082728911   0.000000000000
 -2391.080421486   0.000000000000
 -2391.055120266   0.000000000000
 -2390.913060763   0.000000000000
 -2390.911676437   0.000000000000
 -2390.889570398   0.000000000000
   CI-PROBLEM SOLVED
   DENSITIES MADE

                 <<<<<<<<<<<<<<<<<<INITIAL CI STATE CHECK>>>>>>>>>>>>>>>>>>

BLOCK  1 MULT= 5 NROOTS= 5 
ROOT   0:  E=   -2391.3245853028 Eh
      0.84813 [     1]: 11121
      0.12056 [     4]: 21111
      0.01680 [     3]: 12111
      0.01433 [     0]: 11112
ROOT   1:  E=   -2391.3131217113 Eh  0.312 eV   2516.0 cm**-1
      0.71197 [     3]: 12111
      0.27587 [     4]: 21111
      0.00744 [     0]: 11112
      0.00465 [     1]: 11121
ROOT   2:  E=   -2391.2843348595 Eh  1.095 eV   8834.0 cm**-1
      0.89473 [     2]: 11211
      0.05712 [     4]: 21111
      0.02649 [     3]: 12111
      0.01815 [     1]: 11121
      0.00350 [     0]: 11112
ROOT   3:  E=   -2391.2762163928 Eh  1.316 eV  10615.7 cm**-1
      0.94205 [     0]: 11112
      0.02901 [     1]: 11121
      0.01562 [     4]: 21111
      0.01324 [     2]: 11211
ROOT   4:  E=   -2391.2748922959 Eh  1.352 eV  10906.4 cm**-1
      0.53083 [     4]: 21111
      0.24465 [     3]: 12111
      0.10006 [     1]: 11121
      0.09178 [     2]: 11211
      0.03268 [     0]: 11112

BLOCK  2 MULT= 3 NROOTS=45 
ROOT   0:  E=   -2391.3116100449 Eh
      0.42226 [    11]: 11121
      0.22519 [    23]: 20121
      0.18004 [     4]: 02121
      0.09368 [    28]: 21111
      0.03882 [    18]: 12111
      0.00938 [    10]: 11112
      0.00739 [    19]: 12120
      0.00441 [    17]: 12102
      0.00365 [    33]: 22101
      0.00310 [     6]: 10122
      0.00271 [     3]: 02112
      0.00264 [    22]: 20112
ROOT   1:  E=   -2391.2986785856 Eh  0.352 eV   2838.1 cm**-1
      0.45937 [    33]: 22101
      0.31199 [    20]: 12201
      0.09576 [    30]: 21201
      0.05598 [    18]: 12111
      0.02701 [     5]: 02211
      0.01419 [    13]: 11211
      0.01047 [    10]: 11112
      0.00569 [    28]: 21111
      0.00387 [    21]: 12210
      0.00300 [     3]: 02112
      0.00269 [    27]: 21102
ROOT   2:  E=   -2391.2959857158 Eh  0.425 eV   3429.1 cm**-1
      0.65909 [    17]: 12102
      0.20631 [    27]: 21102
      0.02450 [     3]: 02112
      0.02422 [    10]: 11112
      0.01731 [    33]: 22101
      0.01556 [    20]: 12201
      0.00979 [    13]: 11211
      0.00752 [    11]: 11121
      0.00672 [    15]: 12012
      0.00624 [    18]: 12111
      0.00596 [     5]: 02211
      0.00468 [     4]: 02121
ROOT   3:  E=   -2391.2867140818 Eh  0.677 eV   5464.0 cm**-1
      0.44252 [    33]: 22101
      0.33591 [    20]: 12201
      0.10199 [    30]: 21201
      0.02471 [    18]: 12111
      0.02213 [     5]: 02211
      0.02031 [    17]: 12102
      0.01760 [    27]: 21102
      0.01374 [    13]: 11211
      0.00450 [    28]: 21111
      0.00285 [    21]: 12210
      0.00263 [     4]: 02121
ROOT   4:  E=   -2391.2683816351 Eh  1.176 eV   9487.5 cm**-1
      0.34368 [    13]: 11211
      0.18063 [    24]: 20211
      0.16612 [    28]: 21111
      0.15671 [     5]: 02211
      0.02638 [    11]: 11121
      0.02542 [    18]: 12111
      0.02141 [    34]: 22110
      0.01712 [    21]: 12210
      0.01086 [     4]: 02121
      0.00940 [    10]: 11112
      0.00696 [    23]: 20121
      0.00528 [    20]: 12201
      0.00527 [    22]: 20112
      0.00461 [    31]: 21210
      0.00404 [     8]: 10221
      0.00347 [     7]: 10212
      0.00339 [     3]: 02112
      0.00254 [    19]: 12120
ROOT   5:  E=   -2391.2644244749 Eh  1.284 eV  10356.0 cm**-1
      0.31764 [    10]: 11112
      0.19428 [    22]: 20112
      0.18431 [    18]: 12111
      0.10819 [     3]: 02112
      0.07180 [    28]: 21111
      0.02123 [    11]: 11121
      0.01740 [    17]: 12102
      0.01366 [    33]: 22101
      0.01213 [    20]: 12201
      0.01040 [    19]: 12120
      0.00854 [     4]: 02121
      0.00753 [    34]: 22110
      0.00690 [     0]: 01122
      0.00669 [    29]: 21120
      0.00568 [     5]: 02211
      0.00395 [    30]: 21201
ROOT   6:  E=   -2391.2620735009 Eh  1.348 eV  10872.0 cm**-1
      0.45048 [    28]: 21111
      0.14988 [    13]: 11211
      0.08827 [    18]: 12111
      0.05677 [    24]: 20211
      0.05567 [     5]: 02211
      0.05094 [    11]: 11121
      0.05062 [    34]: 22110
      0.01910 [     3]: 02112
      0.01661 [    23]: 20121
      0.01442 [    10]: 11112
      0.01224 [    17]: 12102
      0.01204 [     4]: 02121
      0.00604 [    19]: 12120
      0.00516 [     8]: 10221
      0.00250 [     0]: 01122
ROOT   7:  E=   -2391.2611968208 Eh  1.372 eV  11064.4 cm**-1
      0.40701 [    28]: 21111
      0.10752 [    11]: 11121
      0.10162 [    18]: 12111
      0.08730 [    13]: 11211
      0.06691 [     4]: 02121
      0.05159 [    10]: 11112
      0.03357 [    22]: 20112
      0.02178 [     3]: 02112
      0.01771 [    30]: 21201
      0.01741 [     2]: 01221
      0.01598 [    23]: 20121
      0.01333 [     0]: 01122
      0.00979 [     6]: 10122
      0.00937 [     8]: 10221
      0.00759 [    27]: 21102
      0.00473 [     9]: 11022
      0.00429 [    29]: 21120
      0.00349 [    33]: 22101
      0.00323 [    17]: 12102
      0.00321 [    19]: 12120
      0.00276 [    12]: 11202
ROOT   8:  E=   -2391.2605765723 Eh  1.389 eV  11200.6 cm**-1
      0.43378 [    18]: 12111
      0.18482 [    11]: 11121
      0.07371 [    13]: 11211
      0.05721 [    10]: 11112
      0.04265 [    28]: 21111
      0.03786 [    22]: 20112
      0.02857 [     3]: 02112
      0.01944 [     0]: 01122
      0.01738 [    23]: 20121
      0.01634 [    29]: 21120
      0.01520 [     2]: 01221
      0.01261 [    33]: 22101
      0.00924 [    20]: 12201
      0.00890 [    24]: 20211
      0.00812 [     8]: 10221
      0.00572 [    34]: 22110
      0.00529 [     5]: 02211
      0.00477 [    27]: 21102
      0.00427 [     6]: 10122
      0.00365 [    30]: 21201
ROOT   9:  E=   -2391.2582793880 Eh  1.451 eV  11704.7 cm**-1
      0.26308 [    29]: 21120
      0.21177 [    14]: 11220
      0.12966 [    10]: 11112
      0.08211 [    19]: 12120
      0.07255 [    11]: 11121
      0.05289 [     0]: 01122
      0.03410 [    31]: 21210
      0.03073 [     6]: 10122
      0.02696 [     2]: 01221
      0.01820 [     9]: 11022
      0.01600 [    27]: 21102
      0.01271 [    23]: 20121
      0.00983 [    13]: 11211
      0.00763 [     4]: 02121
      0.00534 [     8]: 10221
      0.00384 [     1]: 01212
      0.00380 [    18]: 12111
      0.00351 [    25]: 21012
      0.00293 [    21]: 12210
ROOT  10:  E=   -2391.2522217602 Eh  1.616 eV  13034.2 cm**-1
      0.27279 [    10]: 11112
      0.26235 [    14]: 11220
      0.10985 [     9]: 11022
      0.06699 [     0]: 01122
      0.05407 [    27]: 21102
      0.04325 [     6]: 10122
      0.02705 [    25]: 21012
      0.02221 [     2]: 01221
      0.02135 [    28]: 21111
      0.01906 [    13]: 11211
      0.01625 [    31]: 21210
      0.01584 [    22]: 20112
      0.01301 [    11]: 11121
      0.01296 [     1]: 01212
      0.00734 [    18]: 12111
      0.00556 [     7]: 10212
      0.00531 [     3]: 02112
      0.00458 [    26]: 21021
      0.00402 [    17]: 12102
      0.00389 [    12]: 11202
      0.00310 [    15]: 12012
ROOT  11:  E=   -2391.2498249679 Eh  1.681 eV  13560.3 cm**-1
      0.54540 [    11]: 11121
      0.12845 [     2]: 01221
      0.07573 [    28]: 21111
      0.05412 [    13]: 11211
      0.03360 [     8]: 10221
      0.03168 [    14]: 11220
      0.02479 [    31]: 21210
      0.01955 [     4]: 02121
      0.01647 [    23]: 20121
      0.00985 [    26]: 21021
      0.00786 [    10]: 11112
      0.00741 [    18]: 12111
      0.00700 [    30]: 21201
      0.00459 [    34]: 22110
      0.00458 [    19]: 12120
      0.00455 [    29]: 21120
      0.00452 [    21]: 12210
      0.00404 [     1]: 01212
      0.00311 [     3]: 02112
ROOT  12:  E=   -2391.2418453640 Eh  1.898 eV  15311.6 cm**-1
      0.30275 [     2]: 01221
      0.22560 [    26]: 21021
      0.10799 [     8]: 10221
      0.09508 [    28]: 21111
      0.07110 [    16]: 12021
      0.05458 [    13]: 11211
      0.03642 [    11]: 11121
      0.03414 [    10]: 11112
      0.02198 [    18]: 12111
      0.00858 [     9]: 11022
      0.00755 [    14]: 11220
      0.00657 [    23]: 20121
      0.00572 [    29]: 21120
      0.00494 [     4]: 02121
      0.00267 [     3]: 02112
      0.00251 [    27]: 21102
ROOT  13:  E=   -2391.2387844649 Eh  1.982 eV  15983.4 cm**-1
      0.37967 [    13]: 11211
      0.24165 [    11]: 11121
      0.09724 [    28]: 21111
      0.05840 [    30]: 21201
      0.03145 [    14]: 11220
      0.02659 [    18]: 12111
      0.02202 [     5]: 02211
      0.02199 [     4]: 02121
      0.01588 [     2]: 01221
      0.01378 [    24]: 20211
      0.01209 [    23]: 20121
      0.01101 [     0]: 01122
      0.01006 [    10]: 11112
      0.00986 [     3]: 02112
      0.00805 [    20]: 12201
      0.00638 [    12]: 11202
      0.00532 [     9]: 11022
      0.00453 [     6]: 10122
      0.00418 [    27]: 21102
      0.00408 [    26]: 21021
      0.00389 [    25]: 21012
      0.00268 [    29]: 21120
ROOT  14:  E=   -2391.2376851975 Eh  2.012 eV  16224.6 cm**-1
      0.34513 [    10]: 11112
      0.11553 [     9]: 11022
      0.10243 [    29]: 21120
      0.07548 [    27]: 21102
      0.07516 [     0]: 01122
      0.05981 [    18]: 12111
      0.05820 [    13]: 11211
      0.04774 [    14]: 11220
      0.02445 [    19]: 12120
      0.01228 [    25]: 21012
      0.01139 [    17]: 12102
      0.01027 [    31]: 21210
      0.00941 [    32]: 22011
      0.00927 [    21]: 12210
      0.00895 [     6]: 10122
      0.00537 [    28]: 21111
      0.00459 [    24]: 20211
      0.00440 [    11]: 11121
      0.00367 [     4]: 02121
      0.00305 [    30]: 21201
ROOT  15:  E=   -2391.2312803361 Eh  2.186 eV  17630.3 cm**-1
      0.15126 [    14]: 11220
      0.13633 [    31]: 21210
      0.11334 [    10]: 11112
      0.10784 [     1]: 01212
      0.07926 [    13]: 11211
      0.07463 [    21]: 12210
      0.06032 [    28]: 21111
      0.05925 [     0]: 01122
      0.03959 [     7]: 10212
      0.03383 [    29]: 21120
      0.01821 [     2]: 01221
      0.01728 [    12]: 11202
      0.01642 [    19]: 12120
      0.01224 [    24]: 20211
      0.01036 [     6]: 10122
      0.00989 [    18]: 12111
      0.00854 [    20]: 12201
      0.00843 [    11]: 11121
      0.00630 [     9]: 11022
      0.00599 [    27]: 21102
      0.00538 [    30]: 21201
      0.00448 [    32]: 22011
      0.00448 [     4]: 02121
      0.00394 [    25]: 21012
      0.00392 [    22]: 20112
ROOT  16:  E=   -2391.2284825876 Eh  2.262 eV  18244.4 cm**-1
      0.27260 [    28]: 21111
      0.20706 [    13]: 11211
      0.11357 [    18]: 12111
      0.08970 [    11]: 11121
      0.04499 [     4]: 02121
      0.03683 [    29]: 21120
      0.03305 [    34]: 22110
      0.03198 [    14]: 11220
      0.03138 [    26]: 21021
      0.02761 [    10]: 11112
      0.02314 [     2]: 01221
      0.01867 [     0]: 01122
      0.01079 [    23]: 20121
      0.00897 [    25]: 21012
      0.00739 [    16]: 12021
      0.00610 [    17]: 12102
      0.00593 [    33]: 22101
      0.00497 [    31]: 21210
      0.00476 [    21]: 12210
      0.00376 [    24]: 20211
      0.00373 [     8]: 10221
      0.00262 [    15]: 12012
ROOT  17:  E=   -2391.2261679754 Eh  2.325 eV  18752.4 cm**-1
      0.39479 [    18]: 12111
      0.15620 [    28]: 21111
      0.11720 [    34]: 22110
      0.08356 [     3]: 02112
      0.06106 [    10]: 11112
      0.03141 [    11]: 11121
      0.01948 [    25]: 21012
      0.01930 [    13]: 11211
      0.01794 [     0]: 01122
      0.01129 [    31]: 21210
      0.01102 [    32]: 22011
      0.00966 [     1]: 01212
      0.00943 [    29]: 21120
      0.00798 [    33]: 22101
      0.00780 [     4]: 02121
      0.00483 [     6]: 10122
      0.00465 [    23]: 20121
      0.00461 [    30]: 21201
      0.00399 [     7]: 10212
      0.00366 [     2]: 01221
      0.00341 [    26]: 21021
      0.00330 [    27]: 21102
ROOT  18:  E=   -2391.2251310201 Eh  2.353 eV  18980.0 cm**-1
      0.26271 [    34]: 22110
      0.18788 [    18]: 12111
      0.11706 [     3]: 02112
      0.10706 [    10]: 11112
      0.08994 [    11]: 11121
      0.05926 [    28]: 21111
      0.05098 [    13]: 11211
      0.02762 [    19]: 12120
      0.02024 [    31]: 21210
      0.02023 [    22]: 20112
      0.01276 [     1]: 01212
      0.00615 [    17]: 12102
      0.00573 [     2]: 01221
      0.00527 [    29]: 21120
      0.00446 [     5]: 02211
      0.00376 [    21]: 12210
      0.00278 [    27]: 21102
ROOT  19:  E=   -2391.2212268850 Eh  2.459 eV  19836.8 cm**-1
      0.23716 [    18]: 12111
      0.15033 [    25]: 21012
      0.14883 [    21]: 12210
      0.13085 [     1]: 01212
      0.07527 [    13]: 11211
      0.04941 [    28]: 21111
      0.03908 [     7]: 10212
      0.01951 [     2]: 01221
      0.01930 [    11]: 11121
      0.01591 [    34]: 22110
      0.01350 [    14]: 11220
      0.01346 [     3]: 02112
      0.01174 [    15]: 12012
      0.01051 [    26]: 21021
      0.01004 [    12]: 11202
      0.00849 [    32]: 22011
      0.00691 [    27]: 21102
      0.00606 [     4]: 02121
      0.00573 [    30]: 21201
      0.00470 [    24]: 20211
      0.00390 [    16]: 12021
      0.00291 [     8]: 10221
      0.00270 [    10]: 11112
ROOT  20:  E=   -2391.2205152140 Eh  2.479 eV  19993.0 cm**-1
      0.24688 [    13]: 11211
      0.16615 [    21]: 12210
      0.13223 [    18]: 12111
      0.12992 [    28]: 21111
      0.09338 [    15]: 12012
      0.05297 [    32]: 22011
      0.03455 [     3]: 02112
      0.01907 [    24]: 20211
      0.01378 [     0]: 01122
      0.01273 [    25]: 21012
      0.01253 [     9]: 11022
      0.01212 [    14]: 11220
      0.00890 [    34]: 22110
      0.00832 [    10]: 11112
      0.00618 [    30]: 21201
      0.00554 [     2]: 01221
      0.00551 [    11]: 11121
      0.00510 [    20]: 12201
      0.00445 [    27]: 21102
      0.00369 [    29]: 21120
      0.00325 [    26]: 21021
      0.00312 [     6]: 10122
      0.00291 [     7]: 10212
      0.00289 [    17]: 12102
      0.00251 [     8]: 10221
ROOT  21:  E=   -2391.2191006684 Eh  2.517 eV  20303.5 cm**-1
      0.30679 [     5]: 02211
      0.26715 [    32]: 22011
      0.14561 [    13]: 11211
      0.05161 [    31]: 21210
      0.04522 [    18]: 12111
      0.02920 [    20]: 12201
      0.02499 [    28]: 21111
      0.02365 [    25]: 21012
      0.01984 [    10]: 11112
      0.01724 [    16]: 12021
      0.01572 [     1]: 01212
      0.01289 [    24]: 20211
      0.00653 [     7]: 10212
      0.00545 [    30]: 21201
      0.00447 [    14]: 11220
      0.00417 [    29]: 21120
      0.00400 [    12]: 11202
      0.00286 [     9]: 11022
      0.00263 [    33]: 22101
ROOT  22:  E=   -2391.2180599317 Eh  2.546 eV  20531.9 cm**-1
      0.18509 [    31]: 21210
      0.16297 [    21]: 12210
      0.14031 [    15]: 12012
      0.12807 [    13]: 11211
      0.06993 [     5]: 02211
      0.05387 [    28]: 21111
      0.04504 [    25]: 21012
      0.03437 [    24]: 20211
      0.03151 [     1]: 01212
      0.02249 [    18]: 12111
      0.01925 [    30]: 21201
      0.01638 [    11]: 11121
      0.01355 [    26]: 21021
      0.01345 [     2]: 01221
      0.00749 [    14]: 11220
      0.00742 [    10]: 11112
      0.00724 [     7]: 10212
      0.00628 [    34]: 22110
      0.00496 [     3]: 02112
      0.00484 [    17]: 12102
      0.00462 [     8]: 10221
      0.00407 [     0]: 01122
      0.00357 [    19]: 12120
      0.00325 [    20]: 12201
ROOT  23:  E=   -2391.2104000613 Eh  2.754 eV  22213.0 cm**-1
      0.30366 [    18]: 12111
      0.14789 [    25]: 21012
      0.11449 [     1]: 01212
      0.09899 [    28]: 21111
      0.04474 [    15]: 12012
      0.04266 [     7]: 10212
      0.03991 [    31]: 21210
      0.03629 [    21]: 12210
      0.03120 [    10]: 11112
      0.02133 [    14]: 11220
      0.02097 [     5]: 02211
      0.01757 [    12]: 11202
      0.01561 [    13]: 11211
      0.01415 [    11]: 11121
      0.01254 [     9]: 11022
      0.00579 [    33]: 22101
      0.00447 [     4]: 02121
      0.00385 [     2]: 01221
      0.00332 [     3]: 02112
      0.00299 [    29]: 21120
      0.00263 [    22]: 20112
      0.00256 [    20]: 12201
      0.00255 [    19]: 12120
ROOT  24:  E=   -2391.2040890554 Eh  2.926 eV  23598.1 cm**-1
      0.28621 [    28]: 21111
      0.23154 [    18]: 12111
      0.15934 [    10]: 11112
      0.15213 [    11]: 11121
      0.02544 [    22]: 20112
      0.02532 [     3]: 02112
      0.02310 [    13]: 11211
      0.01846 [    25]: 21012
      0.01525 [    29]: 21120
      0.01235 [     0]: 01122
      0.01224 [     2]: 01221
      0.00877 [     1]: 01212
      0.00353 [     8]: 10221
      0.00333 [     6]: 10122
      0.00305 [    24]: 20211
      0.00286 [    14]: 11220
      0.00277 [     7]: 10212
      0.00255 [    15]: 12012
ROOT  25:  E=   -2391.2015017367 Eh  2.996 eV  24166.0 cm**-1
      0.39764 [    10]: 11112
      0.08337 [    18]: 12111
      0.07751 [    31]: 21210
      0.06600 [     3]: 02112
      0.05401 [    28]: 21111
      0.04631 [    29]: 21120
      0.04129 [    21]: 12210
      0.03980 [    25]: 21012
      0.03961 [    22]: 20112
      0.03887 [    13]: 11211
      0.02394 [    15]: 12012
      0.01592 [    11]: 11121
      0.01313 [    19]: 12120
      0.01286 [     5]: 02211
      0.00824 [    32]: 22011
      0.00600 [    17]: 12102
      0.00570 [     9]: 11022
      0.00565 [    27]: 21102
      0.00493 [    24]: 20211
      0.00290 [    20]: 12201
      0.00265 [    16]: 12021
ROOT  26:  E=   -2391.1843324700 Eh  3.463 eV  27934.2 cm**-1
      0.28702 [     0]: 01122
      0.13074 [    29]: 21120
      0.11236 [     6]: 10122
      0.08096 [    27]: 21102
      0.06570 [     9]: 11022
      0.04481 [    19]: 12120
      0.04456 [     1]: 01212
      0.03403 [    12]: 11202
      0.03341 [    17]: 12102
      0.03206 [    10]: 11112
      0.02377 [    13]: 11211
      0.02140 [     7]: 10212
      0.02101 [    11]: 11121
      0.01630 [    32]: 22011
      0.00755 [     3]: 02112
      0.00749 [    18]: 12111
      0.00718 [    31]: 21210
      0.00685 [    28]: 21111
      0.00542 [     2]: 01221
      0.00482 [     5]: 02211
      0.00389 [    25]: 21012
ROOT  27:  E=   -2391.1775644962 Eh  3.648 eV  29419.6 cm**-1
      0.14193 [    34]: 22110
      0.13416 [    26]: 21021
      0.11410 [     3]: 02112
      0.11193 [     9]: 11022
      0.06332 [    16]: 12021
      0.05392 [    10]: 11112
      0.04342 [    21]: 12210
      0.04173 [    14]: 11220
      0.03608 [    13]: 11211
      0.03486 [    11]: 11121
      0.02814 [     2]: 01221
      0.02633 [    15]: 12012
      0.02326 [    29]: 21120
      0.02076 [    12]: 11202
      0.01841 [     8]: 10221
      0.01762 [    28]: 21111
      0.01647 [    30]: 21201
      0.01472 [    31]: 21210
      0.01188 [    18]: 12111
      0.00983 [     4]: 02121
      0.00710 [     1]: 01212
      0.00500 [    19]: 12120
      0.00497 [    20]: 12201
      0.00352 [    22]: 20112
      0.00342 [    17]: 12102
      0.00295 [    32]: 22011
ROOT  28:  E=   -2391.1744675146 Eh  3.732 eV  30099.3 cm**-1
      0.26326 [     9]: 11022
      0.11203 [    12]: 11202
      0.08974 [    31]: 21210
      0.07222 [    26]: 21021
      0.07109 [    14]: 11220
      0.06241 [    10]: 11112
      0.05470 [    34]: 22110
      0.03764 [    19]: 12120
      0.03470 [    13]: 11211
      0.02741 [    29]: 21120
      0.02574 [    28]: 21111
      0.02270 [    21]: 12210
      0.02017 [    32]: 22011
      0.01996 [     3]: 02112
      0.01967 [    25]: 21012
      0.01224 [    30]: 21201
      0.01218 [    20]: 12201
      0.00968 [     2]: 01221
      0.00630 [    22]: 20112
      0.00515 [    11]: 11121
      0.00499 [    18]: 12111
      0.00331 [    27]: 21102
ROOT  29:  E=   -2391.1699876727 Eh  3.854 eV  31082.5 cm**-1
      0.16728 [     3]: 02112
      0.15454 [    34]: 22110
      0.14668 [    26]: 21021
      0.07187 [    10]: 11112
      0.06571 [    13]: 11211
      0.06094 [    28]: 21111
      0.05696 [    11]: 11121
      0.04286 [     2]: 01221
      0.03954 [    19]: 12120
      0.03546 [    16]: 12021
      0.02062 [    21]: 12210
      0.02031 [    18]: 12111
      0.01978 [    30]: 21201
      0.01651 [     8]: 10221
      0.00931 [    15]: 12012
      0.00894 [    24]: 20211
      0.00887 [    23]: 20121
      0.00858 [    25]: 21012
      0.00743 [    20]: 12201
      0.00737 [     1]: 01212
      0.00540 [    32]: 22011
      0.00523 [    17]: 12102
      0.00503 [    31]: 21210
      0.00347 [    22]: 20112
      0.00284 [     7]: 10212
      0.00275 [     5]: 02211
ROOT  30:  E=   -2391.1594526527 Eh  4.140 eV  33394.7 cm**-1
      0.49153 [    32]: 22011
      0.16116 [     5]: 02211
      0.11679 [    13]: 11211
      0.04652 [    31]: 21210
      0.02562 [    12]: 11202
      0.02066 [    15]: 12012
      0.01705 [    20]: 12201
      0.01655 [    24]: 20211
      0.01535 [     1]: 01212
      0.01396 [    30]: 21201
      0.01242 [    16]: 12021
      0.01097 [     4]: 02121
      0.00957 [     0]: 01122
      0.00829 [     7]: 10212
      0.00775 [    18]: 12111
      0.00590 [    11]: 11121
      0.00551 [    25]: 21012
      0.00351 [    28]: 21111
      0.00299 [     6]: 10122
ROOT  31:  E=   -2391.1572848736 Eh  4.199 eV  33870.5 cm**-1
      0.41907 [    15]: 12012
      0.18348 [    21]: 12210
      0.12938 [    25]: 21012
      0.08005 [    31]: 21210
      0.04718 [    26]: 21021
      0.02936 [    32]: 22011
      0.02137 [     5]: 02211
      0.02110 [    28]: 21111
      0.01306 [    16]: 12021
      0.00980 [    11]: 11121
      0.00817 [    34]: 22110
      0.00498 [    13]: 11211
      0.00451 [    18]: 12111
      0.00438 [     2]: 01221
      0.00406 [    17]: 12102
      0.00401 [    30]: 21201
      0.00332 [    19]: 12120
      0.00258 [    20]: 12201
ROOT  32:  E=   -2391.1215162816 Eh  5.173 eV  41720.8 cm**-1
      0.37993 [     8]: 10221
      0.13414 [    23]: 20121
      0.12918 [     2]: 01221
      0.10951 [    11]: 11121
      0.06036 [    12]: 11202
      0.04235 [    24]: 20211
      0.02926 [    27]: 21102
      0.01604 [     9]: 11022
      0.01275 [    13]: 11211
      0.01110 [    17]: 12102
      0.01067 [     1]: 01212
      0.00998 [     6]: 10122
      0.00970 [    30]: 21201
      0.00802 [     4]: 02121
      0.00756 [    10]: 11112
      0.00581 [    25]: 21012
      0.00477 [    15]: 12012
      0.00455 [     0]: 01122
      0.00330 [    28]: 21111
ROOT  33:  E=   -2391.1186429301 Eh  5.251 eV  42351.4 cm**-1
      0.44924 [    12]: 11202
      0.09665 [    27]: 21102
      0.07272 [     8]: 10221
      0.06754 [     1]: 01212
      0.03644 [     9]: 11022
      0.03371 [    17]: 12102
      0.03113 [    30]: 21201
      0.03015 [    31]: 21210
      0.02968 [    10]: 11112
      0.01978 [    14]: 11220
      0.01810 [    23]: 20121
      0.01234 [     7]: 10212
      0.01185 [    29]: 21120
      0.01122 [     2]: 01221
      0.01045 [     0]: 01122
      0.01031 [    11]: 11121
      0.00973 [    13]: 11211
      0.00907 [     3]: 02112
      0.00849 [    26]: 21021
      0.00576 [    21]: 12210
      0.00548 [    28]: 21111
      0.00461 [    24]: 20211
      0.00319 [    19]: 12120
      0.00265 [     4]: 02121
ROOT  34:  E=   -2391.1141784930 Eh  5.372 eV  43331.2 cm**-1
      0.29629 [    25]: 21012
      0.17149 [    15]: 12012
      0.15068 [     9]: 11022
      0.12315 [     1]: 01212
      0.09528 [    31]: 21210
      0.03493 [     7]: 10212
      0.03459 [    21]: 12210
      0.02321 [    32]: 22011
      0.01870 [    26]: 21021
      0.01075 [     8]: 10221
      0.00855 [    14]: 11220
      0.00812 [    23]: 20121
      0.00411 [     0]: 01122
      0.00288 [    12]: 11202
      0.00263 [    24]: 20211
      0.00255 [    10]: 11112
ROOT  35:  E=   -2391.1111933304 Eh  5.454 eV  43986.4 cm**-1
      0.53262 [    30]: 21201
      0.18443 [    20]: 12201
      0.05160 [    26]: 21021
      0.05048 [    13]: 11211
      0.04958 [    12]: 11202
      0.04263 [     2]: 01221
      0.01891 [    28]: 21111
      0.01462 [    16]: 12021
      0.01257 [     5]: 02211
      0.01060 [     8]: 10221
      0.00513 [    18]: 12111
      0.00442 [    14]: 11220
      0.00371 [     1]: 01212
      0.00347 [    31]: 21210
      0.00342 [    11]: 11121
ROOT  36:  E=   -2391.0987838880 Eh  5.791 eV  46709.9 cm**-1
      0.57033 [     6]: 10122
      0.17511 [     0]: 01122
      0.08473 [    22]: 20112
      0.06325 [    19]: 12120
      0.04299 [    10]: 11112
      0.01844 [    29]: 21120
      0.00949 [    11]: 11121
      0.00855 [    34]: 22110
      0.00796 [    23]: 20121
      0.00428 [     8]: 10221
      0.00425 [     4]: 02121
ROOT  37:  E=   -2391.0896346731 Eh  6.040 eV  48718.0 cm**-1
      0.41064 [    11]: 11121
      0.12546 [     8]: 10221
      0.11987 [    23]: 20121
      0.05991 [     4]: 02121
      0.05653 [    16]: 12021
      0.03918 [     2]: 01221
      0.03527 [    27]: 21102
      0.02864 [     0]: 01122
      0.02757 [    28]: 21111
      0.01699 [    26]: 21021
      0.01310 [    17]: 12102
      0.01248 [    10]: 11112
      0.01211 [    18]: 12111
      0.00960 [    12]: 11202
      0.00664 [    29]: 21120
      0.00481 [    24]: 20211
      0.00359 [    19]: 12120
      0.00311 [    13]: 11211
      0.00275 [     5]: 02211
ROOT  38:  E=   -2391.0884539755 Eh  6.072 eV  48977.1 cm**-1
      0.31188 [    27]: 21102
      0.14767 [    12]: 11202
      0.13110 [    10]: 11112
      0.12222 [    17]: 12102
      0.05515 [    11]: 11121
      0.04640 [     0]: 01122
      0.02964 [     1]: 01212
      0.02714 [     9]: 11022
      0.02465 [     3]: 02112
      0.01584 [     6]: 10122
      0.01348 [     8]: 10221
      0.01017 [    28]: 21111
      0.00843 [    29]: 21120
      0.00659 [    18]: 12111
      0.00655 [     4]: 02121
      0.00641 [    19]: 12120
      0.00501 [    16]: 12021
      0.00473 [     2]: 01221
      0.00450 [    30]: 21201
      0.00435 [    13]: 11211
      0.00362 [    24]: 20211
      0.00310 [    22]: 20112
      0.00296 [    23]: 20121
      0.00289 [    14]: 11220
ROOT  39:  E=   -2391.0827289112 Eh  6.228 eV  50233.6 cm**-1
      0.39534 [    19]: 12120
      0.13751 [    29]: 21120
      0.13390 [     4]: 02121
      0.10866 [    23]: 20121
      0.05997 [    34]: 22110
      0.03680 [     6]: 10122
      0.03010 [     8]: 10221
      0.02009 [     0]: 01122
      0.01385 [     2]: 01221
      0.01300 [    18]: 12111
      0.01283 [    22]: 20112
      0.01056 [     3]: 02112
      0.00807 [    11]: 11121
      0.00416 [    26]: 21021
      0.00343 [    16]: 12021
      0.00289 [    15]: 12012
ROOT  40:  E=   -2391.0804214865 Eh  6.291 eV  50740.0 cm**-1
      0.23005 [     4]: 02121
      0.20160 [    23]: 20121
      0.17340 [    19]: 12120
      0.10948 [    16]: 12021
      0.06097 [     8]: 10221
      0.05757 [    29]: 21120
      0.03867 [    18]: 12111
      0.02253 [    26]: 21021
      0.02020 [     6]: 10122
      0.02013 [    34]: 22110
      0.01300 [    11]: 11121
      0.01289 [     2]: 01221
      0.00744 [    33]: 22101
      0.00564 [    28]: 21111
      0.00527 [    13]: 11211
      0.00491 [     5]: 02211
      0.00473 [     9]: 11022
      0.00320 [    17]: 12102
ROOT  41:  E=   -2391.0551202657 Eh  6.979 eV  56293.0 cm**-1
      0.55969 [    16]: 12021
      0.16042 [    26]: 21021
      0.11028 [     4]: 02121
      0.06048 [    11]: 11121
      0.03266 [    32]: 22011
      0.01555 [    23]: 20121
      0.01325 [    18]: 12111
      0.01320 [     9]: 11022
      0.00671 [    19]: 12120
      0.00553 [    29]: 21120
      0.00502 [    28]: 21111
      0.00370 [    33]: 22101
      0.00278 [    15]: 12012
      0.00255 [    20]: 12201
ROOT  42:  E=   -2390.9130607630 Eh 10.845 eV  87471.5 cm**-1
      0.74422 [     7]: 10212
      0.22527 [     1]: 01212
      0.00846 [    12]: 11202
      0.00724 [    24]: 20211
      0.00540 [    13]: 11211
      0.00293 [     8]: 10221
      0.00272 [    22]: 20112
ROOT  43:  E=   -2390.9116764370 Eh 10.883 eV  87775.3 cm**-1
      0.53439 [    24]: 20211
      0.32536 [    13]: 11211
      0.05757 [     5]: 02211
      0.05012 [     8]: 10221
      0.01529 [     2]: 01221
      0.00398 [    30]: 21201
      0.00345 [    23]: 20121
ROOT  44:  E=   -2390.8895703977 Eh 11.484 eV  92627.0 cm**-1
      0.48355 [    22]: 20112
      0.31328 [    10]: 11112
      0.09128 [     6]: 10122
      0.05778 [     3]: 02112
      0.02844 [     0]: 01122
      0.00868 [    23]: 20121
      0.00445 [    27]: 21102
      0.00329 [    11]: 11121
      0.00255 [     7]: 10212

                 <<<<<<<<<<<<<<<<<<INITIAL CI STATE CHECK>>>>>>>>>>>>>>>>>>

   E(CAS)= -2391.237229607 Eh DE=    0.000000e+00
   --- Energy gap subspaces: Ext-Act = 0.108   Act-Int = 0.088
   N(occ)=  1.20000 1.20000 1.20000 1.20000 1.20000
   ||g|| =     7.161786e-04 Max(G)=   -2.462221e-04 Rot=136,108
                     ---- THE CAS-SCF GRADIENT HAS CONVERGED ----
                            --- FINALIZING ORBITALS ---
                    ---- DOING ONE FINAL ITERATION FOR PRINTING ----
   --- Forming Natural Orbitals
   --- Canonicalize Internal Space
   --- Canonicalize External Space

MACRO-ITERATION   2: 
   --- Inactive Energy E0 = -2382.90503134 Eh
   --- All densities will be recomputed
CI-ITERATION   0: 
 -2391.324585303   0.000000000000 (    0.00)
 -2391.313121711   0.000000000000
 -2391.284334860   0.000000000000
 -2391.276216393   0.000000000000
 -2391.274892296   0.000000000000
   CI-PROBLEM SOLVED
   DENSITIES MADE
CI-ITERATION   0: 
 -2391.311610045   0.000000000000 (    0.00)
 -2391.298678586   0.000000000000
 -2391.295985716   0.000000000000
 -2391.286714082   0.000000000000
 -2391.268381636   0.000000000000
 -2391.264424475   0.000000000000
 -2391.262073501   0.000000000000
 -2391.261196821   0.000000000000
 -2391.260576572   0.000000000000
 -2391.258279388   0.000000000000
 -2391.252221760   0.000000000000
 -2391.249824968   0.000000000000
 -2391.241845364   0.000000000000
 -2391.238784465   0.000000000000
 -2391.237685198   0.000000000000
 -2391.231280336   0.000000000000
 -2391.228482588   0.000000000000
 -2391.226167975   0.000000000000
 -2391.225131020   0.000000000000
 -2391.221226885   0.000000000000
 -2391.220515214   0.000000000000
 -2391.219100668   0.000000000000
 -2391.218059932   0.000000000000
 -2391.210400061   0.000000000000
 -2391.204089055   0.000000000000
 -2391.201501737   0.000000000000
 -2391.184332470   0.000000000000
 -2391.177564496   0.000000000000
 -2391.174467515   0.000000000000
 -2391.169987673   0.000000000000
 -2391.159452653   0.000000000000
 -2391.157284873   0.000000000000
 -2391.121516282   0.000000000000
 -2391.118642930   0.000000000000
 -2391.114178493   0.000000000000
 -2391.111193331   0.000000000000
 -2391.098783888   0.000000000000
 -2391.089634673   0.000000000000
 -2391.088453976   0.000000000000
 -2391.082728911   0.000000000000
 -2391.080421486   0.000000000000
 -2391.055120265   0.000000000000
 -2390.913060764   0.000000000000
 -2390.911676438   0.000000000000
 -2390.889570398   0.000000000000
   CI-PROBLEM SOLVED
   DENSITIES MADE
   E(CAS)= -2391.237229607 Eh DE=   -1.341505e-10
   --- Energy gap subspaces: Ext-Act = 0.109   Act-Int = 0.088
   N(occ)=  1.20000 1.20000 1.20000 1.20000 1.20000
   ||g|| =     7.161786e-04 Max(G)=    2.462221e-04 Rot=136,106
--------------
CASSCF RESULTS
--------------

Final CASSCF energy       : -2391.237229607 Eh  -65068.8731 eV

----------------
ORBITAL ENERGIES
----------------

  NO   OCC          E(Eh)            E(eV) 
   0   2.0000    -220.546078     -6001.3639 
   1   2.0000     -26.395860      -718.2679 
   2   2.0000     -22.328053      -607.5772 
   3   2.0000     -22.325346      -607.5035 
   4   2.0000     -22.319352      -607.3404 
   5   2.0000      -4.712260      -128.2271 
   6   2.0000      -4.710311      -128.1741 
   7   2.0000      -4.708192      -128.1164 
   8   2.0000      -4.707371      -128.0941 
   9   2.0000      -4.704495      -128.0158 
  10   2.0000      -4.703560      -127.9904 
  11   2.0000      -4.700350      -127.9030 
  12   2.0000      -4.698910      -127.8638 
  13   2.0000      -4.696920      -127.8097 
  14   2.0000      -4.696841      -127.8076 
  15   2.0000      -3.440897       -93.6316 
  16   2.0000      -2.752141       -74.8896 
  17   2.0000      -2.751435       -74.8704 
  18   2.0000      -2.750746       -74.8516 
  19   2.0000      -2.748371       -74.7870 
  20   2.0000      -2.746938       -74.7480 
  21   2.0000      -2.745713       -74.7146 
  22   2.0000      -2.745549       -74.7102 
  23   2.0000      -2.745237       -74.7017 
  24   2.0000      -2.745068       -74.6971 
  25   2.0000      -2.744352       -74.6776 
  26   2.0000      -2.744066       -74.6698 
  27   2.0000      -2.742931       -74.6390 
  28   2.0000      -2.741880       -74.6104 
  29   2.0000      -2.741576       -74.6021 
  30   2.0000      -2.740795       -74.5808 
  31   2.0000      -2.740271       -74.5666 
  32   2.0000      -2.736862       -74.4738 
  33   2.0000      -2.736564       -74.4657 
  34   2.0000      -2.735744       -74.4434 
  35   2.0000      -2.735619       -74.4400 
  36   2.0000      -2.734378       -74.4062 
  37   2.0000      -2.734290       -74.4038 
  38   2.0000      -2.733602       -74.3851 
  39   2.0000      -2.733299       -74.3768 
  40   2.0000      -2.733194       -74.3740 
  41   2.0000      -2.731575       -74.3299 
  42   2.0000      -2.730586       -74.3030 
  43   2.0000      -2.730395       -74.2978 
  44   2.0000      -2.729552       -74.2749 
  45   2.0000      -2.729456       -74.2723 
  46   2.0000      -2.201948       -59.9181 
  47   2.0000      -2.198115       -59.8137 
  48   2.0000      -2.193097       -59.6772 
  49   2.0000      -0.551413       -15.0047 
  50   2.0000      -0.549868       -14.9627 
  51   2.0000      -0.539024       -14.6676 
  52   2.0000      -0.535915       -14.5830 
  53   2.0000      -0.532457       -14.4889 
  54   2.0000      -0.530429       -14.4337 
  55   2.0000      -0.528502       -14.3813 
  56   2.0000      -0.526087       -14.3155 
  57   2.0000      -0.519484       -14.1359 
  58   2.0000      -0.517643       -14.0858 
  59   2.0000      -0.511572       -13.9206 
  60   2.0000      -0.507181       -13.8011 
  61   2.0000      -0.503865       -13.7109 
  62   2.0000      -0.503443       -13.6994 
  63   2.0000      -0.500761       -13.6264 
  64   2.0000      -0.500353       -13.6153 
  65   2.0000      -0.495629       -13.4867 
  66   2.0000      -0.495264       -13.4768 
  67   2.0000      -0.492281       -13.3957 
  68   2.0000      -0.491239       -13.3673 
  69   2.0000      -0.483967       -13.1694 
  70   2.0000      -0.482552       -13.1309 
  71   2.0000      -0.478638       -13.0244 
  72   2.0000      -0.470890       -12.8136 
  73   2.0000      -0.467335       -12.7168 
  74   2.0000      -0.461517       -12.5585 
  75   2.0000      -0.459915       -12.5149 
  76   2.0000      -0.457417       -12.4470 
  77   2.0000      -0.457120       -12.4389 
  78   2.0000      -0.454679       -12.3724 
  79   2.0000      -0.453629       -12.3439 
  80   2.0000      -0.451326       -12.2812 
  81   2.0000      -0.446100       -12.1390 
  82   2.0000      -0.444642       -12.0993 
  83   2.0000      -0.443334       -12.0637 
  84   2.0000      -0.442703       -12.0465 
  85   2.0000      -0.442240       -12.0340 
  86   2.0000      -0.440330       -11.9820 
  87   2.0000      -0.436240       -11.8707 
  88   2.0000      -0.430986       -11.7277 
  89   2.0000      -0.429806       -11.6956 
  90   2.0000      -0.428630       -11.6636 
  91   2.0000      -0.426625       -11.6091 
  92   2.0000      -0.426073       -11.5940 
  93   2.0000      -0.423737       -11.5305 
  94   2.0000      -0.422983       -11.5099 
  95   2.0000      -0.416416       -11.3313 
  96   2.0000      -0.415472       -11.3056 
  97   2.0000      -0.402581       -10.9548 
  98   2.0000      -0.393474       -10.7070 
  99   2.0000      -0.392699       -10.6859 
 100   2.0000      -0.356772        -9.7083 
 101   2.0000      -0.299147        -8.1402 
 102   2.0000      -0.289787        -7.8855 
 103   2.0000      -0.229945        -6.2571 
 104   1.2000      -0.141740        -3.8570 
 105   1.2000      -0.134570        -3.6618 
 106   1.2000      -0.126733        -3.4486 
 107   1.2000      -0.132039        -3.5930 
 108   1.2000      -0.108422        -2.9503 
 109   0.0000       0.000724         0.0197 
 110   0.0000       0.005813         0.1582 
 111   0.0000       0.006402         0.1742 
 112   0.0000       0.023152         0.6300 
 113   0.0000       0.028541         0.7767 
 114   0.0000       0.051281         1.3954 
 115   0.0000       0.057954         1.5770 
 116   0.0000       0.062506         1.7009 
 117   0.0000       0.069372         1.8877 
 118   0.0000       0.075267         2.0481 
 119   0.0000       0.082414         2.2426 
 120   0.0000       0.083599         2.2748 
 121   0.0000       0.086993         2.3672 
 122   0.0000       0.093325         2.5395 
 123   0.0000       0.104996         2.8571 
 124   0.0000       0.108517         2.9529 
 125   0.0000       0.133111         3.6221 
 126   0.0000       0.135893         3.6978 
 127   0.0000       0.142838         3.8868 
 128   0.0000       0.144772         3.9394 
 129   0.0000       0.146595         3.9891 
 130   0.0000       0.148372         4.0374 
 131   0.0000       0.152949         4.1619 
 132   0.0000       0.153879         4.1873 
 133   0.0000       0.154278         4.1981 
 134   0.0000       0.157544         4.2870 
 135   0.0000       0.172681         4.6989 
 136   0.0000       0.175332         4.7710 
 137   0.0000       0.183156         4.9839 
 138   0.0000       0.184459         5.0194 
 139   0.0000       0.194665         5.2971 
 140   0.0000       0.195945         5.3319 
 141   0.0000       0.205823         5.6007 
 142   0.0000       0.213703         5.8152 
 143   0.0000       0.217089         5.9073 
 144   0.0000       0.220398         5.9973 
 145   0.0000       0.227230         6.1832 
 146   0.0000       0.231469         6.2986 
 147   0.0000       0.245249         6.6736 
 148   0.0000       0.276779         7.5315 
 149   0.0000       0.284903         7.7526 
 150   0.0000       0.292471         7.9586 
 151   0.0000       0.297259         8.0888 
 152   0.0000       0.303085         8.2474 
 153   0.0000       0.306835         8.3494 
 154   0.0000       0.390878        10.6363 
 155   0.0000       0.392799        10.6886 
 156   0.0000       0.396434        10.7875 
 157   0.0000       0.415692        11.3115 
 158   0.0000       0.417914        11.3720 
 159   0.0000       0.420046        11.4300 
 160   0.0000       0.421563        11.4713 
 161   0.0000       0.426118        11.5953 
 162   0.0000       0.428902        11.6710 
 163   0.0000       0.430380        11.7112 
 164   0.0000       0.433216        11.7884 
 165   0.0000       0.436486        11.8774 
 166   0.0000       0.443399        12.0655 
 167   0.0000       0.446861        12.1597 
 168   0.0000       0.453861        12.3502 
 169   0.0000       0.455245        12.3879 
 170   0.0000       0.458729        12.4826 
 171   0.0000       0.464231        12.6324 
 172   0.0000       0.468871        12.7586 
 173   0.0000       0.481768        13.1096 
 174   0.0000       0.486210        13.2304 
 175   0.0000       0.494644        13.4599 
 176   0.0000       0.498811        13.5733 
 177   0.0000       0.505342        13.7511 
 178   0.0000       0.512741        13.9524 
 179   0.0000       0.514362        13.9965 
 180   0.0000       0.515366        14.0238 
 181   0.0000       0.516213        14.0469 
 182   0.0000       0.519425        14.1343 
 183   0.0000       0.533689        14.5224 
 184   0.0000       0.541754        14.7419 
 185   0.0000       0.542118        14.7518 
 186   0.0000       0.549052        14.9405 
 187   0.0000       0.558146        15.1879 
 188   0.0000       0.565086        15.3768 
 189   0.0000       0.573668        15.6103 
 190   0.0000       0.577182        15.7059 
 191   0.0000       0.580260        15.7897 
 192   0.0000       0.585425        15.9302 
 193   0.0000       0.589553        16.0425 
 194   0.0000       0.613224        16.6867 
 195   0.0000       0.615736        16.7550 
 196   0.0000       0.624057        16.9814 
 197   0.0000       0.629546        17.1308 
 198   0.0000       0.631242        17.1770 
 199   0.0000       0.631755        17.1909 
 200   0.0000       0.635897        17.3036 
 201   0.0000       0.645538        17.5660 
 202   0.0000       0.656525        17.8650 
 203   0.0000       0.664214        18.0742 
 204   0.0000       0.666082        18.1250 
 205   0.0000       0.681169        18.5356 
 206   0.0000       0.686317        18.6756 
 207   0.0000       0.699124        19.0241 
 208   0.0000       0.704073        19.1588 
 209   0.0000       0.706756        19.2318 
 210   0.0000       0.710194        19.3254 
 211   0.0000       0.713040        19.4028 
 212   0.0000       0.713512        19.4156 
 213   0.0000       0.737370        20.0648 
 214   0.0000       0.752159        20.4673 
 215   0.0000       0.758737        20.6463 
 216   0.0000       0.798963        21.7409 
 217   0.0000       0.806159        21.9367 
 218   0.0000       0.813893        22.1472 
 219   0.0000       0.930372        25.3167 
 220   0.0000       0.931621        25.3507 
 221   0.0000       0.934767        25.4363 
 222   0.0000       0.950086        25.8532 
 223   0.0000       0.996734        27.1225 
 224   0.0000       0.997769        27.1507 
 225   0.0000       1.008353        27.4387 
 226   0.0000       1.014299        27.6005 
 227   0.0000       1.026585        27.9348 
 228   0.0000       1.036645        28.2086 
 229   0.0000       1.042222        28.3603 
 230   0.0000       1.045907        28.4606 
 231   0.0000       1.065782        29.0014 
 232   0.0000       1.067934        29.0600 
 233   0.0000       1.121945        30.5297 
 234   0.0000       1.122701        30.5502 
 235   0.0000       1.134100        30.8604 
 236   0.0000       1.137015        30.9398 
 237   0.0000       1.139833        31.0164 
 238   0.0000       1.193501        32.4768 
 239   0.0000       1.198943        32.6249 
 240   0.0000       1.233764        33.5724 
 241   0.0000       1.247291        33.9405 
 242   0.0000       1.255887        34.1744 
 243   0.0000       1.278872        34.7999 
 244   0.0000       1.288964        35.0745 
 245   0.0000       1.337359        36.3914 
 246   0.0000       1.372030        37.3348 
 247   0.0000       1.380435        37.5635 
 248   0.0000       1.456174        39.6245 
 249   0.0000       1.576445        42.8972 
 250   0.0000       1.586786        43.1786 
 251   0.0000       1.617118        44.0040 
 252   0.0000       1.620510        44.0963 
 253   0.0000       1.625162        44.2229 
 254   0.0000       1.642680        44.6996 
 255   0.0000       1.643180        44.7132 
 256   0.0000       1.674244        45.5585 
 257   0.0000       1.676293        45.6143 
 258   0.0000       1.680451        45.7274 
 259   0.0000       1.688233        45.9391 
 260   0.0000       1.690146        45.9912 
 261   0.0000       1.713455        46.6255 
 262   0.0000       1.747166        47.5428 
 263   0.0000       1.749531        47.6071 
 264   0.0000       1.758034        47.8385 
 265   0.0000       1.758840        47.8605 
 266   0.0000       1.769509        48.1508 
 267   0.0000       1.771234        48.1977 
 268   0.0000       1.776125        48.3308 
 269   0.0000       1.781963        48.4897 
 270   0.0000       1.791643        48.7531 
 271   0.0000       1.794877        48.8411 
 272   0.0000       1.798877        48.9499 
 273   0.0000       1.806802        49.1656 
 274   0.0000       1.813091        49.3367 
 275   0.0000       1.813774        49.3553 
 276   0.0000       1.817159        49.4474 
 277   0.0000       1.819593        49.5136 
 278   0.0000       1.821313        49.5605 
 279   0.0000       1.828130        49.7460 
 280   0.0000       1.831931        49.8494 
 281   0.0000       1.832954        49.8772 
 282   0.0000       1.840029        50.0697 
 283   0.0000       1.840461        50.0815 
 284   0.0000       1.848512        50.3006 
 285   0.0000       1.849038        50.3149 
 286   0.0000       1.856179        50.5092 
 287   0.0000       1.858860        50.5821 
 288   0.0000       1.861629        50.6575 
 289   0.0000       1.863441        50.7068 
 290   0.0000       1.863696        50.7137 
 291   0.0000       1.865791        50.7707 
 292   0.0000       1.867812        50.8257 
 293   0.0000       1.868674        50.8492 
 294   0.0000       1.872679        50.9582 
 295   0.0000       1.873630        50.9841 
 296   0.0000       1.875100        51.0241 
 297   0.0000       1.880447        51.1696 
 298   0.0000       1.881113        51.1877 
[...]
 3 117  429572.5     23.3   0.000000000   0.00000   0.00023   0.00032   0.00072
 3 118  429574.7     23.3   0.000000000   0.00016   0.00054   0.01259   0.00196
 3 119  429584.0     23.3   0.000000000   0.00000   0.00037   0.00062   0.00007
 3 120  429597.4     23.3   0.000000000   0.00007   0.00173   0.00607   0.00558
 3 121  429598.5     23.3   0.000000000   0.00004   0.00087   0.00463   0.00403
 3 122  429696.2     23.3   0.000000000   0.00005   0.00020   0.00654   0.00196
 3 123  429700.5     23.3   0.000000000   0.00222   0.00411   0.04670   0.00497
 3 124  429711.3     23.3   0.000000000   0.00301   0.00280   0.05449   0.00593
 3 125  430093.2     23.3   0.000000000   0.00012   0.00430   0.00545   0.00862
 3 126  430094.0     23.3   0.000000000   0.00036   0.00437   0.01768   0.00565
 3 127  430111.2     23.2   0.000000000   0.00085   0.00009   0.02915   0.00100
 3 128  430131.0     23.2   0.000000000   0.00000   0.00110   0.00143   0.00127
 3 129  430133.7     23.2   0.000000000   0.00122   0.00935   0.02865   0.01753
 3 130  430261.7     23.2   0.000000000   0.00031   0.00523   0.01583   0.00586
 3 131  430266.8     23.2   0.000000000   0.01803   0.00848   0.13309   0.01573
 3 132  430273.7     23.2   0.000000000   0.00114   0.00322   0.03341   0.00398
 3 133  430696.0     23.2   0.000000000   0.00132   0.00275   0.03618   0.00260
 3 134  430699.6     23.2   0.000000000   0.06805   0.06125   0.22831   0.11034
 3 135  430708.1     23.2   0.000000000   0.00495   0.01739   0.06214   0.02797
 3 136  430765.4     23.2   0.000000000   0.00256   0.01679   0.03452   0.03292
 3 137  430788.0     23.2   0.000000000   0.00208   0.00082   0.04564   0.00120
 3 138  430796.0     23.2   0.000000000   0.00620   0.01852   0.06643   0.03805
 3 139  431337.4     23.2   0.000000000   0.00029   0.00550   0.00464   0.01558
 3 140  431345.7     23.2   0.000000000   0.00139   0.01132   0.00673   0.03489
 3 141  431349.5     23.2   0.000000000   0.00011   0.00149   0.00366   0.00983
 3 142  432259.9     23.1   0.000000000   0.00197   0.00791   0.03494   0.02617
 3 143  432261.3     23.1   0.000000000   0.00656   0.01340   0.06774   0.04232
 3 144  432262.0     23.1   0.000000000   0.00371   0.00775   0.04502   0.04030
 3 145  434006.8     23.0   0.000000000   0.00012   0.00785   0.00474   0.00566
 3 146  434008.2     23.0   0.000000000   0.00014   0.00385   0.01046   0.00340
 3 147  434009.3     23.0   0.000000000   0.00071   0.02328   0.00247   0.01291
 3 148  434531.1     23.0   0.000000000   0.00032   0.00551   0.01304   0.01105
 3 149  434531.9     23.0   0.000000000   0.00003   0.00083   0.00487   0.00188
 3 150  434562.8     23.0   0.000000000   0.01302   0.03531   0.08563   0.06665
 3 151  434614.2     23.0   0.000000000   0.00277   0.03152   0.00713   0.04149
 3 152  434644.4     23.0   0.000000000   0.00003   0.00010   0.00577   0.00075
 3 153  434644.7     23.0   0.000000000   0.00007   0.00422   0.00236   0.00665
 3 154  436676.6     22.9   0.000000000   0.00176   0.01453   0.00940   0.03820
 3 155  436677.1     22.9   0.000000000   0.01373   0.03782   0.04036   0.10331
 3 156  436678.0     22.9   0.000000000   0.07913   0.09212   0.09543   0.24807
 3 157  446919.3     22.4   0.000000000   0.00003   0.00139   0.00232   0.00489
 3 158  446919.6     22.4   0.000000000   0.00000   0.00033   0.00058   0.00071
 3 159  446919.9     22.4   0.000000000   0.03077   0.06118   0.01164   0.16399
 4  5       0.0   719966600.7   0.000000000   0.00000   0.00000   0.00000   0.00000
 4  6  313388.9     31.9   0.000000000   0.00345   0.01972   0.03092   0.04594
 4  7  313389.1     31.9   0.000000000   0.00177   0.01414   0.02209   0.03282
 4  8  313389.4     31.9   0.000000000   0.00382   0.02067   0.03246   0.04839
 4  9  325546.8     30.7   0.000000000   0.00068   0.02462   0.00167   0.00830
 4 10  325547.0     30.7   0.000000000   0.00403   0.05973   0.00443   0.02095
 4 11  325549.6     30.7   0.000000000   0.01147   0.10118   0.00653   0.03446
 4 12  328448.3     30.4   0.000000000   0.00011   0.00731   0.00731   0.00100
 4 13  328450.8     30.4   0.000000000   0.00003   0.00445   0.00321   0.00014
 4 14  328450.8     30.4   0.000000000   0.00001   0.00050   0.00211   0.00121
 4 15  360346.8     27.8   0.000000000   0.00422   0.05350   0.03126   0.01948
 4 16  360346.9     27.8   0.000000000   0.00253   0.04075   0.02485   0.01573
 4 17  360347.6     27.8   0.000000000   0.05835   0.19692   0.11882   0.07389
 4 18  373312.0     26.8   0.000000000   0.00003   0.00428   0.00269   0.00035
 4 19  373312.6     26.8   0.000000000   0.00941   0.05957   0.04970   0.05822
 4 20  373314.4     26.8   0.000000000   0.00075   0.01774   0.01333   0.01593
 4 21  375339.4     26.6   0.000000000   0.01720   0.06002   0.05800   0.10115
 4 22  375340.7     26.6   0.000000000   0.13534   0.16943   0.16200   0.28353
 4 23  375341.5     26.6   0.000000000   0.01249   0.05255   0.04904   0.08560
 4 24  378751.8     26.4   0.000000000   0.00000   0.00008   0.00045   0.00001
 4 25  378752.0     26.4   0.000000000   0.00000   0.00013   0.00039   0.00015
 4 26  378752.4     26.4   0.000000000   0.00000   0.00002   0.00026   0.00025
 4 27  378753.0     26.4   0.000000000   0.00000   0.00001   0.00070   0.00001
 4 28  378753.0     26.4   0.000000000   0.00000   0.00017   0.00024   0.00041
 4 29  405950.7     24.6   0.000000000   0.00648   0.02220   0.04216   0.06488
 4 30  405951.0     24.6   0.000000000   0.00254   0.01055   0.02835   0.04030
 4 31  405954.6     24.6   0.000000000   0.00309   0.01440   0.02988   0.04463
 4 32  408420.7     24.5   0.000000000   0.00040   0.01084   0.00252   0.01649
 4 33  408427.2     24.5   0.000000000   0.00099   0.03032   0.00541   0.00669
 4 34  408439.7     24.5   0.000000000   0.00333   0.05657   0.00977   0.00563
 4 35  408756.9     24.5   0.000000000   0.02174   0.04320   0.07401   0.11998
 4 36  408765.9     24.5   0.000000000   0.00530   0.01953   0.04543   0.05344
 4 37  408809.0     24.5   0.000000000   0.01456   0.03872   0.05781   0.09857
 4 38  408882.7     24.5   0.000000000   0.00086   0.00060   0.02879   0.00514
 4 39  408918.7     24.5   0.000000000   0.00774   0.02665   0.04274   0.07212
 4 40  408927.1     24.5   0.000000000   0.00070   0.01044   0.02413   0.00306
 4 41  409357.1     24.4   0.000000000   0.00025   0.00002   0.01587   0.00118
 4 42  409357.8     24.4   0.000000000   0.00007   0.00094   0.00830   0.00113
 4 43  409358.7     24.4   0.000000000   0.00014   0.00367   0.00165   0.01095
 4 44  409361.7     24.4   0.000000000   0.00006   0.00253   0.00060   0.00700
 4 45  409361.7     24.4   0.000000000   0.00001   0.00049   0.00194   0.00175
 4 46  409636.0     24.4   0.000000000   0.02034   0.02191   0.14048   0.01106
 4 47  409639.0     24.4   0.000000000   0.00008   0.00279   0.00827   0.00009
 4 48  409640.0     24.4   0.000000000   0.01666   0.01710   0.12741   0.01170
 4 49  410825.2     24.3   0.000000000   0.00004   0.00279   0.00532   0.00213
 4 50  410825.8     24.3   0.000000000   0.00001   0.00251   0.00180   0.00151
 4 51  410826.6     24.3   0.000000000   0.00042   0.00775   0.01766   0.00672
 4 52  412932.3     24.2   0.000000000   0.00410   0.04385   0.03946   0.02487
 4 53  412932.4     24.2   0.000000000   0.01512   0.08309   0.07585   0.04965
 4 54  412932.7     24.2   0.000000000   0.00151   0.02653   0.02346   0.01610
 4 55  416525.7     24.0   0.000000000   0.02243   0.05391   0.05012   0.13044
 4 56  416526.1     24.0   0.000000000   0.00185   0.01288   0.02202   0.03467
 4 57  416527.0     24.0   0.000000000   0.01857   0.04952   0.04354   0.11924
 4 58  418818.7     23.9   0.000000000   0.01926   0.06294   0.00481   0.12359
 4 59  418819.4     23.9   0.000000000   0.04233   0.07676   0.13111   0.13874
 4 60  418836.4     23.9   0.000000000   0.00026   0.00547   0.00344   0.01480
 4 61  418958.4     23.9   0.000000000   0.00007   0.00280   0.00212   0.00746
 4 62  418973.6     23.9   0.000000000   0.00909   0.01209   0.08064   0.04938
 4 63  418975.4     23.9   0.000000000   0.07765   0.04989   0.26886   0.05359
 4 64  419859.6     23.8   0.000000000   0.02934   0.02260   0.02197   0.16838
 4 65  419862.9     23.8   0.000000000   0.01408   0.01043   0.02716   0.11505
 4 66  419871.0     23.8   0.000000000   0.16157   0.04134   0.05014   0.39667
 4 67  420354.5     23.8   0.000000000   0.05116   0.05956   0.20406   0.07726
 4 68  420361.8     23.8   0.000000000   0.01094   0.02390   0.10060   0.01568
 4 69  420362.8     23.8   0.000000000   0.00612   0.02098   0.06109   0.04411
 4 70  420998.1     23.8   0.000000000   0.07291   0.05340   0.22502   0.13937
 4 71  420999.7     23.8   0.000000000   0.00750   0.01320   0.07624   0.03894
 4 72  421000.9     23.8   0.000000000   0.00997   0.01760   0.08438   0.05041
 4 73  421605.5     23.7   0.000000000   0.10618   0.11384   0.11047   0.28464
 4 74  421605.9     23.7   0.000000000   0.06946   0.09393   0.08643   0.23059
 4 75  421608.1     23.7   0.000000000   0.05948   0.08830   0.09521   0.20645
 4 76  422550.9     23.7   0.000000000   0.00057   0.00608   0.01127   0.02005
 4 77  422551.8     23.7   0.000000000   0.01132   0.02558   0.00091   0.10326
 4 78  422555.3     23.7   0.000000000   0.00907   0.02129   0.00587   0.09265
 4 79  422959.3     23.6   0.000000000   0.01106   0.02742   0.03006   0.09699
 4 80  422960.5     23.6   0.000000000   0.08171   0.07352   0.09102   0.26081
 4 81  422967.5     23.6   0.000000000   0.00573   0.02075   0.02363   0.06885
 4 82  423600.7     23.6   0.000000000   0.01508   0.04266   0.04809   0.10462
 4 83  423602.9     23.6   0.000000000   0.00009   0.00483   0.00766   0.00338
 4 84  423618.2     23.6   0.000000000   0.00122   0.01171   0.01321   0.03007
 4 85  423656.6     23.6   0.000000000   0.00040   0.00506   0.01335   0.01401
 4 86  423677.0     23.6   0.000000000   0.01493   0.03579   0.04084   0.10946
 4 87  423677.8     23.6   0.000000000   0.00356   0.01711   0.00427   0.05701
 4 88  424457.5     23.6   0.000000000   0.00098   0.00111   0.02566   0.01789
 4 89  424459.9     23.6   0.000000000   0.00438   0.00275   0.05428   0.03772
 4 90  424463.2     23.6   0.000000000   0.00327   0.00014   0.04969   0.02830
 4 91  424685.3     23.5   0.000000000   0.00316   0.00293   0.05574   0.00693
 4 92  424688.0     23.5   0.000000000   0.00130   0.00893   0.03063   0.01693
 4 93  424703.0     23.5   0.000000000   0.01082   0.01263   0.10067   0.02294
 4 94  425367.1     23.5   0.000000000   0.00032   0.01110   0.00282   0.01383
 4 95  425376.6     23.5   0.000000000   0.00006   0.00494   0.00329   0.00495
 4 96  425380.6     23.5   0.000000000   0.00085   0.01719   0.00362   0.02330
 4 97  425786.7     23.5   0.000000000   0.00665   0.00830   0.01233   0.08019
 4 98  425792.2     23.5   0.000000000   0.00124   0.00312   0.01271   0.03269
 4 99  425792.8     23.5   0.000000000   0.00007   0.00095   0.00555   0.00629
 4 100  426993.6     23.4   0.000000000   0.01098   0.00798   0.10445   0.00133
 4 101  426997.3     23.4   0.000000000   0.00019   0.00138   0.01358   0.00104
 4 102  426997.4     23.4   0.000000000   0.00202   0.00287   0.04482   0.00010
 4 103  428015.1     23.4   0.000000000   0.00204   0.00842   0.03063   0.03214
 4 104  428016.2     23.4   0.000000000   0.00036   0.00771   0.01025   0.01382
 4 105  428021.8     23.4   0.000000000   0.00651   0.03144   0.00051   0.07429
 4 106  428516.5     23.3   0.000000000   0.01683   0.01469   0.11266   0.06262
 4 107  428519.6     23.3   0.000000000   0.26404   0.07600   0.50758   0.02505
 4 108  428534.6     23.3   0.000000000   0.03188   0.01950   0.17737   0.00644
 4 109  428621.9     23.3   0.000000000   0.06307   0.05651   0.23806   0.05659
 4 110  428634.5     23.3   0.000000000   0.38820   0.14415   0.58829   0.14606
 4 111  428637.5     23.3   0.000000000   0.07242   0.04261   0.26508   0.01841
 4 112  429012.1     23.3   0.000000000   0.00043   0.00572   0.01957   0.00437
 4 113  429012.6     23.3   0.000000000   0.00088   0.00492   0.02913   0.00190
 4 114  429024.0     23.3   0.000000000   0.00149   0.00776   0.03729   0.00611
 4 115  429029.0     23.3   0.000000000   0.00335   0.01455   0.05477   0.01183
 4 116  429031.7     23.3   0.000000000   0.00013   0.00534   0.00180   0.01001
 4 117  429572.5     23.3   0.000000000   0.00020   0.00062   0.01397   0.00194
 4 118  429574.7     23.3   0.000000000   0.00000   0.00015   0.00067   0.00211
 4 119  429584.0     23.3   0.000000000   0.00012   0.00185   0.00829   0.00658
 4 120  429597.3     23.3   0.000000000   0.00000   0.00004   0.00156   0.00012
 4 121  429598.4     23.3   0.000000000   0.00001   0.00058   0.00276   0.00079
 4 122  429696.2     23.3   0.000000000   0.00017   0.00212   0.01146   0.00616
 4 123  429700.5     23.3   0.000000000   0.00306   0.00300   0.05480   0.00694
 4 124  429711.3     23.3   0.000000000   0.00210   0.00448   0.04523   0.00558
 4 125  430093.2     23.3   0.000000000   0.00021   0.00600   0.00861   0.01015
 4 126  430094.0     23.3   0.000000000   0.00119   0.00230   0.03420   0.00329
 4 127  430111.2     23.2   0.000000000   0.00065   0.00194   0.02548   0.00115
 4 128  430131.0     23.2   0.000000000   0.00117   0.00970   0.02732   0.01813
 4 129  430133.7     23.2   0.000000000   0.00001   0.00080   0.00300   0.00201
 4 130  430261.6     23.2   0.000000000   0.01443   0.00621   0.11956   0.00988
 4 131  430266.7     23.2   0.000000000   0.00002   0.00245   0.00254   0.00189
 4 132  430273.6     23.2   0.000000000   0.00401   0.00535   0.06205   0.01157
 4 133  430696.0     23.2   0.000000000   0.00813   0.02038   0.08080   0.03444
 4 134  430699.5     23.2   0.000000000   0.00280   0.01567   0.04321   0.02619
 4 135  430708.1     23.2   0.000000000   0.07179   0.06172   0.23512   0.11268
 4 136  430765.4     23.2   0.000000000   0.00123   0.00499   0.03274   0.01139
 4 137  430788.0     23.2   0.000000000   0.00120   0.01267   0.02055   0.02474
 4 138  430795.9     23.2   0.000000000   0.00071   0.00703   0.02231   0.01279
 4 139  431337.4     23.2   0.000000000   0.00018   0.00428   0.00769   0.00999
 4 140  431345.7     23.2   0.000000000   0.00019   0.00296   0.00067   0.01350
 4 141  431349.5     23.2   0.000000000   0.00147   0.01158   0.00692   0.03593
 4 142  432259.8     23.1   0.000000000   0.00536   0.01087   0.05910   0.04181
 4 143  432261.2     23.1   0.000000000   0.00044   0.00132   0.01189   0.01726
 4 144  432261.9     23.1   0.000000000   0.00640   0.01348   0.06446   0.04537
 4 145  434006.8     23.0   0.000000000   0.00072   0.02343   0.00093   0.01324
 4 146  434008.1     23.0   0.000000000   0.00001   0.00225   0.00060   0.00129
 4 147  434009.3     23.0   0.000000000   0.00011   0.00816   0.00360   0.00582
 4 148  434531.1     23.0   0.000000000   0.00154   0.00166   0.03755   0.01119
 4 149  434531.9     23.0   0.000000000   0.00858   0.03506   0.06056   0.06071
 4 150  434562.8     23.0   0.000000000   0.00017   0.00168   0.01212   0.00444
 4 151  434614.2     23.0   0.000000000   0.00001   0.00018   0.00357   0.00016
 4 152  434644.4     23.0   0.000000000   0.00435   0.03192   0.02858   0.05011
 4 153  434644.7     23.0   0.000000000   0.00164   0.00614   0.04005   0.00036
 4 154  436676.6     22.9   0.000000000   0.02761   0.05502   0.05437   0.14706
 4 155  436677.1     22.9   0.000000000   0.05258   0.07456   0.07962   0.20170
 4 156  436678.0     22.9   0.000000000   0.01443   0.03928   0.03886   0.10666
 4 157  446919.3     22.4   0.000000000   0.00662   0.02819   0.00225   0.07630
 4 158  446919.6     22.4   0.000000000   0.02418   0.05431   0.01191   0.14523
 4 159  446919.9     22.4   0.000000000   0.00001   0.00034   0.00173   0.00164

------------------------------------------------------------------------------
                           SOC CORRECTED DIPOLE MOMENTS
------------------------------------------------------------------------------
      TX        TY        TZ           |T|
   (Debye)   (Debye)   (Debye)      (Debye)
------------------------------------------------------------------------------
   8.08882 -18.59186   7.54347     21.63308

--------------
CASSCF TIMINGS
--------------

Total time                       ...     1505.8 sec
Sum of individual times          ...     1508.1 sec (100.2%)

Calculation of AO operators
   F(Core) operator              ...       14.8 sec (  1.0%)
   G(Act) operator               ...       14.2 sec (  0.9%)
   J(AO) operators               ...        0.0 sec (  0.0%)
Calculation of MO transformed quantities
   J(MO) operators               ...        1.4 sec (  0.1%)
   (pq|rs) integrals             ...        0.0 sec (  0.0%)
   AO->MO one electron integrals ...        0.0 sec (  0.0%)
Configuration interaction steps
   CI-setup phase                ...        0.0 sec (  0.0%)
   CI-solution phase             ...        0.1 sec (  0.0%)
   Generation of densities       ...        0.0 sec (  0.0%)
Orbital improvement steps
   Orbital gradient              ...        0.0 sec (  0.0%)
PT2 
   NEVPT2 time                   ...     1465.6 sec ( 97.3%)
Properties                       ...        6.5 sec (  0.4%)
   SOC integral calculation      ...        5.5 sec (  0.4%)
   SSC RMEs (incl. integrals)    ...        0.0 sec (  0.0%)
   SOC RMEs                      ...        0.0 sec (  0.0%)

Maximum memory used throughout the entire CASSCF-calculation: 733.1 MB

-------------------------   --------------------
FINAL SINGLE POINT ENERGY     -2396.638935688719
-------------------------   --------------------


                            ***************************************
                            *     ORCA property calculations      *
                            ***************************************

                                    ---------------------
                                    Active property flags
                                    ---------------------
   (+) Dipole Moment


------------------------------------------------------------------------------
                       ORCA ELECTRIC PROPERTIES CALCULATION
------------------------------------------------------------------------------

Dipole Moment Calculation                       ... on
Quadrupole Moment Calculation                   ... off
Polarizability Calculation                      ... off
GBWName                                         ... nevpt2.gbw
Electron density                                ... nevpt2.scfp
The origin for moment calculation is the CENTER OF MASS  = (15.601067, 11.771092 17.658876)

-------------
DIPOLE MOMENT
-------------
                                X             Y             Z
Electronic contribution:     -3.27642       7.08154      -2.93131
Nuclear contribution   :      3.18232      -7.31445       2.96777
                        -----------------------------------------
Total Dipole Moment    :     -0.09409      -0.23291       0.03646
                        -----------------------------------------
Magnitude (a.u.)       :      0.25383
Magnitude (Debye)      :      0.64519



--------------------
Rotational spectrum 
--------------------
 
Rotational constants in cm-1:     0.002241     0.001381     0.001346 
Rotational constants in MHz :    67.190558    41.411432    40.339302 

 Dipole components along the rotational axes: 
x,y,z [a.u.] :     0.203397     0.019762    -0.150565 
x,y,z [Debye]:     0.516994     0.050231    -0.382707 

 

Timings for individual modules:

Sum of individual times         ...     1515.100 sec (=  25.252 min)
GTO integral calculation        ...        4.457 sec (=   0.074 min)   0.3 %
SCF iterations                  ...        1.874 sec (=   0.031 min)   0.1 %
CASSCF iterations               ...     1508.768 sec (=  25.146 min)  99.6 %
                             ****ORCA TERMINATED NORMALLY****
TOTAL RUN TIME: 0 days 0 hours 25 minutes 15 seconds 538 msec
