
                                 *****************
                                 * O   R   C   A *
                                 *****************

                                            #,                                       
                                            ###                                      
                                            ####                                     
                                            #####                                    
                                            ######                                   
                                           ########,                                 
                                     ,,################,,,,,                         
                               ,,#################################,,                 
                          ,,##########################################,,             
                       ,#########################################, ''#####,          
                    ,#############################################,,   '####,        
                  ,##################################################,,,,####,       
                ,###########''''           ''''###############################       
              ,#####''   ,,,,##########,,,,          '''####'''          '####       
            ,##' ,,,,###########################,,,                        '##       
           ' ,,###''''                  '''############,,,                           
         ,,##''                                '''############,,,,        ,,,,,,###''
      ,#''                                            '''#######################'''  
     '                                                          ''''####''''         
             ,#######,   #######,   ,#######,      ##                                
            ,#'     '#,  ##    ##  ,#'     '#,    #''#        ######   ,####,        
            ##       ##  ##   ,#'  ##            #'  '#       #        #'  '#        
            ##       ##  #######   ##           ,######,      #####,   #    #        
            '#,     ,#'  ##    ##  '#,     ,#' ,#      #,         ##   #,  ,#        
             '#######'   ##     ##  '#######'  #'      '#     #####' # '####'        



                  #######################################################
                  #                        -***-                        #
                  #          Department of theory and spectroscopy      #
                  #    Directorship and core code : Frank Neese         #
                  #        Max Planck Institute fuer Kohlenforschung    #
                  #                Kaiser Wilhelm Platz 1               #
                  #                 D-45470 Muelheim/Ruhr               #
                  #                      Germany                        #
                  #                                                     #
                  #                  All rights reserved                #
                  #                        -***-                        #
                  #######################################################


                         Program Version 5.0.3 -  RELEASE  -


 With contributions from (in alphabetic order):
   Daniel Aravena         : Magnetic Suceptibility
   Michael Atanasov       : Ab Initio Ligand Field Theory (pilot matlab implementation)
   Alexander A. Auer      : GIAO ZORA, VPT2 properties, NMR spectrum
   Ute Becker             : Parallelization
   Giovanni Bistoni       : ED, misc. LED, open-shell LED, HFLD
   Martin Brehm           : Molecular dynamics
   Dmytro Bykov           : SCF Hessian
   Vijay G. Chilkuri      : MRCI spin determinant printing, contributions to CSF-ICE
   Dipayan Datta          : RHF DLPNO-CCSD density
   Achintya Kumar Dutta   : EOM-CC, STEOM-CC
   Dmitry Ganyushin       : Spin-Orbit,Spin-Spin,Magnetic field MRCI
   Miquel Garcia          : C-PCM and meta-GGA Hessian, CC/C-PCM, Gaussian charge scheme
   Yang Guo               : DLPNO-NEVPT2, F12-NEVPT2, CIM, IAO-localization
   Andreas Hansen         : Spin unrestricted coupled pair/coupled cluster methods
   Benjamin Helmich-Paris : MC-RPA, TRAH-SCF, COSX integrals
   Lee Huntington         : MR-EOM, pCC
   Robert Izsak           : Overlap fitted RIJCOSX, COSX-SCS-MP3, EOM
   Marcus Kettner         : VPT2
   Christian Kollmar      : KDIIS, OOCD, Brueckner-CCSD(T), CCSD density, CASPT2, CASPT2-K
   Simone Kossmann        : Meta GGA functionals, TD-DFT gradient, OOMP2, MP2 Hessian
   Martin Krupicka        : Initial AUTO-CI
   Lucas Lang             : DCDCAS
   Marvin Lechner         : AUTO-CI (C++ implementation), FIC-MRCC
   Dagmar Lenk            : GEPOL surface, SMD
   Dimitrios Liakos       : Extrapolation schemes; Compound Job, initial MDCI parallelization
   Dimitrios Manganas     : Further ROCIS development; embedding schemes
   Dimitrios Pantazis     : SARC Basis sets
   Anastasios Papadopoulos: AUTO-CI, single reference methods and gradients
   Taras Petrenko         : DFT Hessian,TD-DFT gradient, ASA, ECA, R-Raman, ABS, FL, XAS/XES, NRVS
   Peter Pinski           : DLPNO-MP2, DLPNO-MP2 Gradient
   Christoph Reimann      : Effective Core Potentials
   Marius Retegan         : Local ZFS, SOC
   Christoph Riplinger    : Optimizer, TS searches, QM/MM, DLPNO-CCSD(T), (RO)-DLPNO pert. Triples
   Tobias Risthaus        : Range-separated hybrids, TD-DFT gradient, RPA, STAB
   Michael Roemelt        : Original ROCIS implementation
   Masaaki Saitow         : Open-shell DLPNO-CCSD energy and density
   Barbara Sandhoefer     : DKH picture change effects
   Avijit Sen             : IP-ROCIS
   Kantharuban Sivalingam : CASSCF convergence, NEVPT2, FIC-MRCI
   Bernardo de Souza      : ESD, SOC TD-DFT
   Georgi Stoychev        : AutoAux, RI-MP2 NMR, DLPNO-MP2 response
   Willem Van den Heuvel  : Paramagnetic NMR
   Boris Wezisla          : Elementary symmetry handling
   Frank Wennmohs         : Technical directorship


 We gratefully acknowledge several colleagues who have allowed us to
 interface, adapt or use parts of their codes:
   Stefan Grimme, W. Hujo, H. Kruse, P. Pracht,  : VdW corrections, initial TS optimization,
                  C. Bannwarth, S. Ehlert          DFT functionals, gCP, sTDA/sTD-DF
   Ed Valeev, F. Pavosevic, A. Kumar             : LibInt (2-el integral package), F12 methods
   Garnet Chan, S. Sharma, J. Yang, R. Olivares  : DMRG
   Ulf Ekstrom                                   : XCFun DFT Library
   Mihaly Kallay                                 : mrcc  (arbitrary order and MRCC methods)
   Jiri Pittner, Ondrej Demel                    : Mk-CCSD
   Frank Weinhold                                : gennbo (NPA and NBO analysis)
   Christopher J. Cramer and Donald G. Truhlar   : smd solvation model
   Lars Goerigk                                  : TD-DFT with DH, B97 family of functionals
   V. Asgeirsson, H. Jonsson                     : NEB implementation
   FAccTs GmbH                                   : IRC, NEB, NEB-TS, DLPNO-Multilevel, CI-OPT
                                                   MM, QMMM, 2- and 3-layer-ONIOM, Crystal-QMMM,
                                                   LR-CPCM, SF, NACMEs, symmetry and pop. for TD-DFT,
                                                   nearIR, NL-DFT gradient (VV10), updates on ESD,
                                                   ML-optimized integration grids
   S Lehtola, MJT Oliveira, MAL Marques          : LibXC Library
   Liviu Ungur et al                             : ANISO software


 Your calculation uses the libint2 library for the computation of 2-el integrals
 For citations please refer to: http://libint.valeyev.net

 Your ORCA version has been built with support for libXC version: 5.1.0
 For citations please refer to: https://tddft.org/programs/libxc/

 This ORCA versions uses:
   CBLAS   interface :  Fast vector & matrix operations
   LAPACKE interface :  Fast linear algebra routines
   SCALAPACK package :  Parallel linear algebra routines
   Shared memory     :  Shared parallel matrices
   BLAS/LAPACK       :  OpenBLAS 0.3.15  USE64BITINT DYNAMIC_ARCH NO_AFFINITY Sandybridge SINGLE_THREADED
        Core in use  :  Sandybridge
   Copyright (c) 2011-2014, The OpenBLAS Project




***************************************
The coordinates will be read from file: pbe.xyz
***************************************


================================================================================

cite the ECPs for Au [Def2-ECP] as follows:
Ce-Yb(ecp-28): M. Dolg, H. Stoll, H.Preuss, J. Chem. Phys., 1989, 90, 1730-1734.
Y-Cd(ecp-28), Hf-Hg(ecp-46): D. Andrae,U. Haeussermann, M. Dolg, H. Stoll, H. Preuss, Theor. Chim. Acta, 1990, 77, 123-141.
In-Sb(ecp-28), Tl-Bi(ecp-46): B. Metz, H. Stoll, M. Dolg, J. Chem. Phys., 2000, 113, 2563-2569.
Te-Xe(ecp-28), Po-Rn(ecp-46): K. A. Peterson, D. Figgen, E. Goll, H. Stoll, M. Dolg, J. Chem. Phys., 2003, 119, 11113-11123.
Rb(ecp-28), Cs(ecp-46): T. Leininger, A. Nicklass, W. Kuechle, H. Stoll, M. Dolg, A. Bergner, Chem. Phys. Lett., 1996, 255, 274-280.
Sr(ecp-28), Ba(ecp-46): M. Kaupp, P. V. Schleyer, H. Stoll and H. Preuss, J. Chem. Phys., 1991, 94, 1360-1366.
La(ecp-46): M. Dolg, H. Stoll, A. Savin, H. Preuss, Theor. Chim. Acta, 1989, 75, 173-194.
Lu(ecp-28): X. Cao, M. Dolg, J. Chem. Phys., 2001, 115, 7348-7355.

ECP parameters for Au [Def2-ECP] have been obtained from:
TURBOMOLE (7.0.2)

----- Orbital basis set information -----
Your calculation utilizes the basis: def2-TZVP
   F. Weigend and R. Ahlrichs, Phys. Chem. Chem. Phys. 7, 3297 (2005).

----- AuxJ basis set information -----
Your calculation utilizes the auxiliary basis: def2/J
   F. Weigend, Phys. Chem. Chem. Phys. 8, 1057 (2006).

----- AuxC basis set information -----
Your calculation utilizes the auxiliary basis: def2-TZVP/C
  H-La, Hf-Rn : A. Hellweg, C. Hattig, S. Hofener and W. Klopper, Theor. Chem. Acc. 117, 587 (2007).
        Ce-Lu : J. Chmela and M. E. Harding, Mol. Phys. (2018).

================================================================================
                                        WARNINGS
                       Please study these warnings very carefully!
================================================================================


IMPORTANT NOTE: CASSCF must signal convergence for a subsequent CASPT2/NEVPT2! 
                Set maxiter=1 to run CASPT2/NEVPT2 with arbitrary orbitals.


INFO   : the flag for use of the SHARK integral package has been found!

================================================================================
                                       INPUT FILE
================================================================================
NAME = nevpt2.inp
|  1> !SC-NEVPT2 def2-TZVP def2-TZVP/C
|  2> !MOREAD RIJCOSX def2/J
|  3> %maxcore 4000
|  4> %moinp "casscf.gbw"
|  5> %pal nprocs 6 end 
|  6> 
|  7> %casscf
|  8>  mult 5,3
|  9>  bweight 1,1
| 10>  nroots 5,45
| 11>  nel 6
| 12>  norb 5
| 13>  ptsettings
| 14>   d4tpre 1e-14 # default = 1e-10
| 15>   d3tpre 1e-14
| 16>  end
| 17>  rel           
| 18>    dosoc true   
| 19>    gtensor true 
| 20>  end           
| 21> end
| 22> 
| 23> 
| 24> *xyzfile 0 5 pbe.xyz
| 25> 
| 26> 
| 27>                          ****END OF INPUT****
================================================================================

                       ****************************
                       * Single Point Calculation *
                       ****************************

---------------------------------
CARTESIAN COORDINATES (ANGSTROEM)
---------------------------------
  Au     6.540330    7.326721    4.145086
  Au     9.087409    7.211841    3.177305
  Au     8.934277    6.859719    5.890226
  Au     9.292394    9.348486    7.130298
  Au     8.505809    9.570835    4.445429
  Au     7.198131   11.168757    6.188074
  Au     5.195621    7.681754    8.536558
  Au     7.829330    7.111059    8.341089
  Au     6.942459    9.862786    8.804202
  Au     4.777284   10.400561    7.106101
  Au     2.773832    8.613747    7.655246
  Au     4.426366    7.802938    5.642007
  Fe     6.794667    8.582143    6.423171

----------------------------
CARTESIAN COORDINATES (A.U.)
----------------------------
  NO LB      ZA    FRAG     MASS         X           Y           Z
   0 Au   19.0000*   0   196.966   12.359433   13.845496    7.833077
   1 Au   19.0000*   0   196.966   17.172715   13.628404    6.004237
   2 Au   19.0000*   0   196.966   16.883338   12.962990   11.130915
   3 Au   19.0000*   0   196.966   17.560081   17.666079   13.474311
   4 Au   19.0000*   0   196.966   16.073650   18.086257    8.400642
   5 Au   19.0000*   0   196.966   13.602496   21.105893   11.693766
   6 Au   19.0000*   0   196.966    9.818301   14.516411   16.131757
   7 Au   19.0000*   0   196.966   14.795290   13.437955   15.762374
   8 Au   19.0000*   0   196.966   13.119345   18.637964   16.637530
   9 Au   19.0000*   0   196.966    9.027758   19.654211   13.428585
  10 Au   19.0000*   0   196.966    5.241783   16.277623   14.466318
  11 Au   19.0000*   0   196.966    8.364619   14.745415   10.661848
  12 Fe   26.0000    0    55.850   12.840061   16.217900   12.138035
* core charge reduced due to ECP

--------------------------------
INTERNAL COORDINATES (ANGSTROEM)
--------------------------------
 Au     0   0   0     0.000000000000     0.00000000     0.00000000
 Au     1   0   0     2.727161220792     0.00000000     0.00000000
 Au     2   1   0     2.739959945581    66.53743805     0.00000000
 Au     3   2   1     2.803567488159   108.46540832   266.63648763
 Au     2   1   3     2.740666030936    66.50582386   283.79907824
 Au     5   2   1     2.701886747465   155.53154897    25.45919417
 Au     1   2   3     4.606443392775   127.89354336    12.84433359
 Au     3   2   1     2.700149840650   155.45390087   335.24274302
 Au     7   1   2     2.807129012812    88.23043905    51.06805972
 Au     6   5   2     2.700629876829   119.00368186   339.20202029
 Au    10   6   5     2.740087667061   155.37193751    19.62900468
 Au     1   2   3     2.633704831443   163.53022439    38.83908972
 Fe    12   1   2     2.612705986993    59.75408141   359.18674408

---------------------------
INTERNAL COORDINATES (A.U.)
---------------------------
 Au     0   0   0     0.000000000000     0.00000000     0.00000000
 Au     1   0   0     5.153587830346     0.00000000     0.00000000
 Au     2   1   0     5.177773915063    66.53743805     0.00000000
 Au     3   2   1     5.297974750586   108.46540832   266.63648763
 Au     2   1   3     5.179108223011    66.50582386   283.79907824
 Au     5   2   1     5.105825997581   155.53154897    25.45919417
 Au     1   2   3     8.704916463755   127.89354336    12.84433359
 Au     3   2   1     5.102543719379   155.45390087   335.24274302
 Au     7   1   2     5.304705056799    88.23043905    51.06805972
 Au     6   5   2     5.103450856293   119.00368186   339.20202029
 Au    10   6   5     5.178015273680   155.37193751    19.62900468
 Au     1   2   3     4.976980849013   163.53022439    38.83908972
 Fe    12   1   2     4.937298783873    59.75408141   359.18674408

---------------------
BASIS SET INFORMATION
---------------------
There are 2 groups of distinct atoms

 Group   1 Type Au  : 8s7p6d1f contracted to 6s4p3d1f pattern {311111/4111/411/1}
 Group   2 Type Fe  : 17s11p7d1f contracted to 6s4p4d1f pattern {842111/6311/4111/1}

Atom   0Au   basis set group =>   1
Atom   1Au   basis set group =>   1
Atom   2Au   basis set group =>   1
Atom   3Au   basis set group =>   1
Atom   4Au   basis set group =>   1
Atom   5Au   basis set group =>   1
Atom   6Au   basis set group =>   1
Atom   7Au   basis set group =>   1
Atom   8Au   basis set group =>   1
Atom   9Au   basis set group =>   1
Atom  10Au   basis set group =>   1
Atom  11Au   basis set group =>   1
Atom  12Fe   basis set group =>   2
---------------------------------
AUXILIARY/J BASIS SET INFORMATION
---------------------------------
There are 2 groups of distinct atoms

 Group   1 Type Au  : 11s5p5d3f3g contracted to 8s5p5d2f3g pattern {41111111/11111/11111/21/111}
 Group   2 Type Fe  : 19s5p5d3f3g contracted to 8s5p5d2f3g pattern {121111111/11111/11111/21/111}

Atom   0Au   basis set group =>   1
Atom   1Au   basis set group =>   1
Atom   2Au   basis set group =>   1
Atom   3Au   basis set group =>   1
Atom   4Au   basis set group =>   1
Atom   5Au   basis set group =>   1
Atom   6Au   basis set group =>   1
Atom   7Au   basis set group =>   1
Atom   8Au   basis set group =>   1
Atom   9Au   basis set group =>   1
Atom  10Au   basis set group =>   1
Atom  11Au   basis set group =>   1
Atom  12Fe   basis set group =>   2
---------------------------------
AUXILIARY/C BASIS SET INFORMATION
---------------------------------
There are 2 groups of distinct atoms

 Group   1 Type Au  : 8s8p7d5f3g2h contracted to 8s8p7d5f3g2h pattern {11111111/11111111/1111111/11111/111/11}
 Group   2 Type Fe  : 11s9p8d6f5g2h contracted to 9s8p8d6f5g2h pattern {311111111/21111111/11111111/111111/11111/11}

Atom   0Au   basis set group =>   1
Atom   1Au   basis set group =>   1
Atom   2Au   basis set group =>   1
Atom   3Au   basis set group =>   1
Atom   4Au   basis set group =>   1
Atom   5Au   basis set group =>   1
Atom   6Au   basis set group =>   1
Atom   7Au   basis set group =>   1
Atom   8Au   basis set group =>   1
Atom   9Au   basis set group =>   1
Atom  10Au   basis set group =>   1
Atom  11Au   basis set group =>   1
Atom  12Fe   basis set group =>   2
-------------------------
ECP PARAMETER INFORMATION
-------------------------

 Group 1, Type Au ECP Def2-ECP (replacing 60 core electrons, lmax=3)

Atom   0Au   ECP group =>   1
Atom   1Au   ECP group =>   1
Atom   2Au   ECP group =>   1
Atom   3Au   ECP group =>   1
Atom   4Au   ECP group =>   1
Atom   5Au   ECP group =>   1
Atom   6Au   ECP group =>   1
Atom   7Au   ECP group =>   1
Atom   8Au   ECP group =>   1
Atom   9Au   ECP group =>   1
Atom  10Au   ECP group =>   1
Atom  11Au   ECP group =>   1



           ************************************************************
           *        Program running with 6 parallel MPI-processes     *
           *              working on a common directory               *
           ************************************************************
------------------------------------------------------------------------------
                           ORCA GTO INTEGRAL CALCULATION
                           -- RI-GTO INTEGRALS CHOSEN --
------------------------------------------------------------------------------
------------------------------------------------------------------------------
                   ___                                                        
                  /   \      - P O W E R E D   B Y -                         
                 /     \                                                     
                 |  |  |   _    _      __       _____    __    __             
                 |  |  |  | |  | |    /  \     |  _  \  |  |  /  |          
                  \  \/   | |  | |   /    \    | | | |  |  | /  /          
                 / \  \   | |__| |  /  /\  \   | |_| |  |  |/  /          
                |  |  |   |  __  | /  /__\  \  |    /   |      \           
                |  |  |   | |  | | |   __   |  |    \   |  |\   \          
                \     /   | |  | | |  |  |  |  | |\  \  |  | \   \       
                 \___/    |_|  |_| |__|  |__|  |_| \__\ |__|  \__/        
                                                                              
                      - O R C A' S   B I G   F R I E N D -                    
                                      &                                       
                       - I N T E G R A L  F E E D E R -                       
                                                                              
 v1 FN, 2020, v2 2021                                                         
------------------------------------------------------------------------------


Reading SHARK input file nevpt2.SHARKINP.tmp ... ok
----------------------
SHARK INTEGRAL PACKAGE
----------------------

Number of atoms                             ...     13
Number of basis functions                   ...    525
Number of shells                            ...    183
Maximum angular momentum                    ...      3
Integral batch strategy                     ... SHARK/LIBINT Hybrid
RI-J (if used) integral strategy            ... SPLIT-RIJ (Revised 2003 algorithm where possible)
Printlevel                                  ...      1
Contraction scheme used                     ... SEGMENTED contraction
Coulomb Range Separation                    ... NOT USED
Exchange Range Separation                   ... NOT USED
Finite Nucleus Model                        ... NOT USED
Auxiliary Coulomb fitting basis             ... AVAILABLE
   # of basis functions in Aux-J            ...   1157
   # of shells in Aux-J                     ...    299
   Maximum angular momentum in Aux-J        ...      4
Auxiliary J/K fitting basis                 ... NOT available
Auxiliary Correlation fitting basis         ... AVAILABLE
   # of basis functions in Aux-C            ...   1994
   # of shells in Aux-C                     ...    434
   Maximum angular momentum in Aux-C        ...      5
Auxiliary 'external' fitting basis          ... NOT available
Integral threshold                          ...     1.000000e-10
Primitive cut-off                           ...     1.000000e-11
Primitive pair pre-selection threshold      ...     1.000000e-11

Calculating pre-screening integrals         ... done (  0.2 sec) Dimension = 183
Organizing shell pair data                  ... done (  0.4 sec)
Shell pair information
Total number of shell pairs                 ...     16836
Shell pairs after pre-screening             ...     13562
Total number of primitive shell pairs       ...     45389
Primitive shell pairs kept                  ...     26699
          la=0 lb=0:   2138 shell pairs
          la=1 lb=0:   3106 shell pairs
          la=1 lb=1:   1157 shell pairs
          la=2 lb=0:   2704 shell pairs
          la=2 lb=1:   1880 shell pairs
          la=2 lb=2:    783 shell pairs
          la=3 lb=0:    710 shell pairs
          la=3 lb=1:    542 shell pairs
          la=3 lb=2:    468 shell pairs
          la=3 lb=3:     74 shell pairs

Calculating one electron integrals          ... done (  0.0 sec)
Calculating ECP integrals                   ... done ( 10.9 sec)
Calculating RI/J V-Matrix + Cholesky decomp.... done (  0.1 sec)
Calculating RI/C V-Matrix + Cholesky decomp.... done (  0.3 sec)
Calculating Nuclear repulsion               ... done (  0.0 sec) ENN=   4354.726656852991 Eh

SHARK setup successfully completed in  12.3 seconds

Maximum memory used throughout the entire GTOINT-calculation: 39.0 MB


           ************************************************************
           *        Program running with 6 parallel MPI-processes     *
           *              working on a common directory               *
           ************************************************************
-------------------------------------------------------------------------------
                                 ORCA SCF
-------------------------------------------------------------------------------

------------
SCF SETTINGS
------------
Hamiltonian:
 Ab initio Hamiltonian  Method          .... Hartree-Fock(GTOs)
 RI-approximation to the Coulomb term is turned on
   Number of AuxJ basis functions       .... 1157
   RIJ-COSX (HFX calculated with COS-X)).... on


General Settings:
 Integral files         IntName         .... nevpt2
 Hartree-Fock type      HFTyp           .... CASSCF
 Total Charge           Charge          ....    0
 Multiplicity           Mult            ....    5
 Number of Electrons    NEL             ....  254
 Basis Dimension        Dim             ....  525
 Nuclear Repulsion      ENuc            ....   4354.7266568530 Eh


Diagonalization of the overlap matrix:
Smallest eigenvalue                        ... 4.795e-04
Time for diagonalization                   ...    0.076 sec
Threshold for overlap eigenvalues          ... 1.000e-08
Number of eigenvalues below threshold      ... 0
Time for construction of square roots      ...    0.069 sec
Total time needed                          ...    0.147 sec

---------------------
INITIAL GUESS: MOREAD
---------------------
Guess MOs are being read from file: casscf.gbw
Input Geometry matches current geometry (good)
Input basis set matches current basis set (good)
MOs were renormalized
Gram-Schmidt orthogonalization of all MOs with pivot on actives
                      ------------------
                      INITIAL GUESS DONE (   6.3 sec)
                      ------------------
--------------------
COSX GRID GENERATION
--------------------

GRIDX 1
-------
General Integration Accuracy     IntAcc      ... 3.816
Radial Grid Type                 RadialGrid  ... OptM3 with GC (2021)
Angular Grid (max. ang.)         AngularGrid ... 1 (Lebedev-50)
Angular grid pruning method      GridPruning ... 4 (adaptive)
Weight generation scheme         WeightScheme... Becke
Basis function cutoff            BFCut       ... 1.0000e-10
Integration weight cutoff        WCut        ... 1.0000e-14
Angular grids for H and He will be reduced by one unit
Partially contracted basis set               ... on
Rotationally invariant grid construction     ... off

Total number of grid points                  ...    15265
Total number of batches                      ...      244
Average number of points per batch           ...       62
Average number of grid points per atom       ...     1174
UseSFitting                                  ... on

GRIDX 2
-------
General Integration Accuracy     IntAcc      ... 4.020
Radial Grid Type                 RadialGrid  ... OptM3 with GC (2021)
Angular Grid (max. ang.)         AngularGrid ... 2 (Lebedev-110)
Angular grid pruning method      GridPruning ... 4 (adaptive)
Weight generation scheme         WeightScheme... Becke
Basis function cutoff            BFCut       ... 1.0000e-10
Integration weight cutoff        WCut        ... 1.0000e-14
Angular grids for H and He will be reduced by one unit
Partially contracted basis set               ... on
Rotationally invariant grid construction     ... off

Total number of grid points                  ...    46143
Total number of batches                      ...      728
Average number of points per batch           ...       63
Average number of grid points per atom       ...     3549
UseSFitting                                  ... on

GRIDX 3
-------
General Integration Accuracy     IntAcc      ... 4.338
Radial Grid Type                 RadialGrid  ... OptM3 with GC (2021)
Angular Grid (max. ang.)         AngularGrid ... 3 (Lebedev-194)
Angular grid pruning method      GridPruning ... 4 (adaptive)
Weight generation scheme         WeightScheme... Becke
Basis function cutoff            BFCut       ... 1.0000e-10
Integration weight cutoff        WCut        ... 1.0000e-14
Angular grids for H and He will be reduced by one unit
Partially contracted basis set               ... on
Rotationally invariant grid construction     ... off

Total number of grid points                  ...    84440
Total number of batches                      ...     1326
Average number of points per batch           ...       63
Average number of grid points per atom       ...     6495
UseSFitting                                  ... on

Time for X-Grid setup             =    1.665 sec



 ... the calculation is a CASSCF calculation -I'm leaving here GOOD LUCK!!!



           ************************************************************
           *        Program running with 6 parallel MPI-processes     *
           *              working on a common directory               *
           ************************************************************
-------------------------------------------------------------------------------
                              ORCA-CASSCF
-------------------------------------------------------------------------------

Setting up the integral package       ... done
Setting up the integral package (RI)  ... done
Building the CAS space                ... done (5 configurations for Mult=5)
Building the CAS space                ... done (35 configurations for Mult=3)

 CASSCF (estimated) memory needed     ... 113.4 MB
 NEVPT2 (estimated) memory needed     ... 377.6 MB


SYSTEM-SPECIFIC SETTINGS:
Number of active electrons          ...    6
Number of active orbitals           ...    5
Total number of electrons           ...  254
Total number of orbitals            ...  525
Total number aux. functions         ... 1994

Determined orbital ranges:
   Internal       0 -  123 ( 124 orbitals)
   Active       124 -  128 (   5 orbitals)
   External     129 -  524 ( 396 orbitals)
Number of rotation parameters      ...  51704

CI-STEP:
CI strategy                         ... General CI
Number of multiplicity blocks       ...    2
BLOCK  1 WEIGHT=   0.5000
  Multiplicity                      ...    5
  #(Configurations)                 ...    5
  #(CSFs)                           ...    5
  #(Roots)                          ...    5
    ROOT=0 WEIGHT=    0.100000
    ROOT=1 WEIGHT=    0.100000
    ROOT=2 WEIGHT=    0.100000
    ROOT=3 WEIGHT=    0.100000
    ROOT=4 WEIGHT=    0.100000

BLOCK  2 WEIGHT=   0.5000
  Multiplicity                      ...    3
  #(Configurations)                 ...   35
  #(CSFs)                           ...   45
  #(Roots)                          ...   45
    ROOT=0 WEIGHT=    0.011111
    ROOT=1 WEIGHT=    0.011111
    ROOT=2 WEIGHT=    0.011111
    ROOT=3 WEIGHT=    0.011111
    ROOT=4 WEIGHT=    0.011111
    ROOT=5 WEIGHT=    0.011111
    ROOT=6 WEIGHT=    0.011111
    ROOT=7 WEIGHT=    0.011111
    ROOT=8 WEIGHT=    0.011111
    ROOT=9 WEIGHT=    0.011111
    ROOT=10 WEIGHT=    0.011111
    ROOT=11 WEIGHT=    0.011111
    ROOT=12 WEIGHT=    0.011111
    ROOT=13 WEIGHT=    0.011111
    ROOT=14 WEIGHT=    0.011111
    ROOT=15 WEIGHT=    0.011111
    ROOT=16 WEIGHT=    0.011111
    ROOT=17 WEIGHT=    0.011111
    ROOT=18 WEIGHT=    0.011111
    ROOT=19 WEIGHT=    0.011111
    ROOT=20 WEIGHT=    0.011111
    ROOT=21 WEIGHT=    0.011111
    ROOT=22 WEIGHT=    0.011111
    ROOT=23 WEIGHT=    0.011111
    ROOT=24 WEIGHT=    0.011111
    ROOT=25 WEIGHT=    0.011111
    ROOT=26 WEIGHT=    0.011111
    ROOT=27 WEIGHT=    0.011111
    ROOT=28 WEIGHT=    0.011111
    ROOT=29 WEIGHT=    0.011111
    ROOT=30 WEIGHT=    0.011111
    ROOT=31 WEIGHT=    0.011111
    ROOT=32 WEIGHT=    0.011111
    ROOT=33 WEIGHT=    0.011111
    ROOT=34 WEIGHT=    0.011111
    ROOT=35 WEIGHT=    0.011111
    ROOT=36 WEIGHT=    0.011111
    ROOT=37 WEIGHT=    0.011111
    ROOT=38 WEIGHT=    0.011111
    ROOT=39 WEIGHT=    0.011111
    ROOT=40 WEIGHT=    0.011111
    ROOT=41 WEIGHT=    0.011111
    ROOT=42 WEIGHT=    0.011111
    ROOT=43 WEIGHT=    0.011111
    ROOT=44 WEIGHT=    0.011111

  PrintLevel                        ...    1
  N(GuessMat)                       ...       512
  MaxDim(CI)                        ...        10
  MaxIter(CI)                       ...        64
  Energy Tolerance CI               ...  1.00e-08
  Residual Tolerance CI             ...  1.00e-08
  Shift(CI)                         ...  1.00e-04

INTEGRAL-TRANSFORMATION-STEP:
  Algorithm                         ... RI-MO

ORBITAL-IMPROVEMENT-STEP:
  Algorithm                         ... SuperCI(PT)
  Default Parametrization           ... CAYLEY
  Act-Act rotations                 ... depends on algorithm used

  Note: SuperCI(PT) will ignore FreezeIE, FreezeAct and FreezeGrad. In general Default settings are encouraged.
        In conjunction with ShiftUp, ShiftDn or GradScaling the performance of SuperCI(PT) is less optimal.  

  MaxRot                            ... 2.00e-01 
  Max. no of vectors (DIIS)         ... 15
  DThresh (cut-off) metric          ... 1.00e-06
  Switch step at gradient           ...  3.00e-02 
  Switch step at iteration          ...        50   
  Switch step to                    ... SuperCI(PT)    

SCF-SETTINGS:
  Incremental                       ... off
  RIJCOSX approximation             ... on
  UseFinalGrid                      ... on
  RI-JK approximation               ... off
  AO integral handling              ... DIRECT
  Integral Neglect Thresh           ...  1.00e-10
  Primitive cutoff TCut             ...  1.00e-11
  Energy convergence tolerance      ...  1.00e-07
  Orbital gradient convergence      ...  1.00e-03
  Max. number of iterations         ...        75  

PT2-SETTINGS:
  A PT2 calculation will be performed on top of the CASSCF wave function (PT2 = SC-NEVPT2)   
 CI step strategy                   ... General CI
  D4C handling                      ... on the fly 
  CI truncation for D4C at          ...  1.00e-14
  CI truncation for D3  at          ...  1.00e-14
  Orbitals                          ... canonical for each state 
  Last  frozen  orbital             ... 4
  First deleted orbital             ... 525
  RI Step                           ... store IJV(array) (MC_ONDISK during integral transformation) 

PROPERTIES-SETTINGS:
  Spin orbit coupling               ... true
  GTensor                           ... true
  QDPT diagonal energies            ... NEVPT2 energies 

FINAL ORBITALS:
  Active   Orbitals                 ... natural 
  Internal Orbitals                 ... canonical 
  External Orbitals                 ... canonical 

------------------
CAS-SCF ITERATIONS
------------------


MACRO-ITERATION   1: 
   --- Inactive Energy E0 = -2864.33991806 Eh
CI-ITERATION   0: 
 -2880.189567343   0.000000000000 (    0.00)
 -2880.187168574   0.000000000000
 -2880.185005756   0.000000000000
 -2880.181816885   0.000000000000
 -2880.180240484   0.000000000000
   CI-PROBLEM SOLVED
   DENSITIES MADE
CI-ITERATION   0: 
 -2880.094357212   0.000000000000 (    0.00)
 -2880.094110111   0.000000000000
 -2880.092890683   0.000000000000
 -2880.092761087   0.000000000000
 -2880.091722458   0.000000000000
 -2880.090871885   0.000000000000
 -2880.090717968   0.000000000000
 -2880.090060360   0.000000000000
 -2880.089587398   0.000000000000
 -2880.085796985   0.000000000000
 -2880.085793950   0.000000000000
 -2880.080466728   0.000000000000
 -2880.079836059   0.000000000000
 -2880.079791405   0.000000000000
 -2880.077670195   0.000000000000
 -2880.076982106   0.000000000000
 -2880.074539140   0.000000000000
 -2880.074121864   0.000000000000
 -2880.073179388   0.000000000000
 -2880.072241515   0.000000000000
 -2880.071413459   0.000000000000
 -2880.067310327   0.000000000000
 -2880.067140878   0.000000000000
 -2880.066798623   0.000000000000
 -2880.065558042   0.000000000000
 -2880.063472392   0.000000000000
 -2880.062344476   0.000000000000
 -2880.061883942   0.000000000000
 -2880.060987736   0.000000000000
 -2880.060907776   0.000000000000
 -2880.031739152   0.000000000000
 -2880.028587892   0.000000000000
 -2880.028464617   0.000000000000
 -2880.028315540   0.000000000000
 -2880.026722708   0.000000000000
 -2879.931199133   0.000000000000
 -2879.930464692   0.000000000000
 -2879.929506162   0.000000000000
 -2879.926800601   0.000000000000
 -2879.925335805   0.000000000000
 -2879.924612118   0.000000000000
 -2879.923234817   0.000000000000
 -2879.922608416   0.000000000000
 -2879.919945905   0.000000000000
 -2879.918106660   0.000000000000
   CI-PROBLEM SOLVED
   DENSITIES MADE

                 <<<<<<<<<<<<<<<<<<INITIAL CI STATE CHECK>>>>>>>>>>>>>>>>>>

BLOCK  1 MULT= 5 NROOTS= 5 
ROOT   0:  E=   -2880.1895673427 Eh
      0.39171 [     2]: 11211
      0.38709 [     0]: 11112
      0.21120 [     4]: 21111
      0.01000 [     1]: 11121
ROOT   1:  E=   -2880.1871685739 Eh  0.065 eV    526.5 cm**-1
      0.60307 [     2]: 11211
      0.22637 [     0]: 11112
      0.17056 [     4]: 21111
ROOT   2:  E=   -2880.1850057560 Eh  0.124 eV   1001.2 cm**-1
      0.65909 [     1]: 11121
      0.17249 [     4]: 21111
      0.16765 [     0]: 11112
ROOT   3:  E=   -2880.1818168849 Eh  0.211 eV   1701.0 cm**-1
      0.44574 [     4]: 21111
      0.33090 [     1]: 11121
      0.21888 [     0]: 11112
      0.00446 [     2]: 11211
ROOT   4:  E=   -2880.1802404841 Eh  0.254 eV   2047.0 cm**-1
      0.99998 [     3]: 12111

BLOCK  2 MULT= 3 NROOTS=45 
ROOT   0:  E=   -2880.0943572122 Eh
      0.16409 [     6]: 10122
      0.13803 [     8]: 10221
      0.10773 [    22]: 20112
      0.09690 [    13]: 11211
      0.06037 [    23]: 20121
      0.05657 [    28]: 21111
      0.04835 [    11]: 11121
      0.03962 [    24]: 20211
      0.03218 [     7]: 10212
      0.02486 [    17]: 12102
      0.02390 [    10]: 11112
      0.02349 [    26]: 21021
      0.02179 [    31]: 21210
      0.02062 [    34]: 22110
      0.01356 [    20]: 12201
      0.01321 [    14]: 11220
      0.01290 [     2]: 01221
      0.01267 [    16]: 12021
      0.01226 [     4]: 02121
      0.01183 [     5]: 02211
      0.00961 [    25]: 21012
      0.00952 [    15]: 12012
      0.00865 [    19]: 12120
      0.00653 [    12]: 11202
      0.00638 [     0]: 01122
      0.00577 [    30]: 21201
      0.00566 [    29]: 21120
      0.00474 [    18]: 12111
      0.00346 [     3]: 02112
      0.00254 [     9]: 11022
ROOT   1:  E=   -2880.0941101114 Eh  0.007 eV     54.2 cm**-1
      0.16121 [     8]: 10221
      0.10899 [    10]: 11112
      0.10729 [    24]: 20211
      0.09334 [    13]: 11211
      0.08716 [    28]: 21111
      0.05650 [     6]: 10122
      0.04995 [    11]: 11121
      0.04571 [    22]: 20112
      0.04222 [     2]: 01221
      0.03999 [    23]: 20121
      0.03812 [    31]: 21210
      0.02753 [    26]: 21021
      0.02425 [    16]: 12021
      0.01848 [     0]: 01122
      0.01259 [    32]: 22011
      0.01235 [    25]: 21012
      0.01217 [    20]: 12201
      0.00977 [     3]: 02112
      0.00862 [     5]: 02211
      0.00858 [    19]: 12120
      0.00733 [     1]: 01212
      0.00635 [     4]: 02121
      0.00562 [    18]: 12111
      0.00452 [    29]: 21120
      0.00404 [    17]: 12102
      0.00289 [    33]: 22101
ROOT   2:  E=   -2880.0928906828 Eh  0.040 eV    321.9 cm**-1
      0.14151 [    22]: 20112
      0.13115 [    11]: 11121
      0.11673 [    23]: 20121
      0.07061 [    30]: 21201
      0.05383 [     8]: 10221
      0.05162 [    24]: 20211
      0.04840 [    10]: 11112
      0.04433 [    28]: 21111
      0.04157 [     2]: 01221
      0.04143 [     7]: 10212
      0.03746 [    29]: 21120
      0.03042 [     3]: 02112
      0.02491 [    27]: 21102
      0.01974 [    14]: 11220
      0.01681 [    13]: 11211
      0.01658 [     9]: 11022
      0.01514 [    33]: 22101
      0.01362 [     5]: 02211
      0.01283 [    20]: 12201
      0.01123 [    34]: 22110
      0.00840 [    21]: 12210
      0.00788 [    25]: 21012
      0.00752 [     6]: 10122
      0.00583 [    17]: 12102
      0.00517 [    18]: 12111
      0.00493 [     4]: 02121
      0.00388 [    26]: 21021
      0.00372 [     1]: 01212
      0.00346 [    15]: 12012
      0.00293 [    32]: 22011
      0.00272 [    16]: 12021
ROOT   3:  E=   -2880.0927610865 Eh  0.043 eV    350.3 cm**-1
      0.15695 [    14]: 11220
      0.13783 [    11]: 11121
      0.13670 [    27]: 21102
      0.04876 [    30]: 21201
      0.04496 [    13]: 11211
      0.04226 [    25]: 21012
      0.04089 [     9]: 11022
      0.03954 [    24]: 20211
      0.03832 [    12]: 11202
      0.03742 [    10]: 11112
      0.03695 [     0]: 01122
      0.03380 [    22]: 20112
      0.03169 [    29]: 21120
      0.02790 [     8]: 10221
      0.02194 [    28]: 21111
      0.02015 [    26]: 21021
      0.01847 [     1]: 01212
      0.01499 [     7]: 10212
      0.00936 [     6]: 10122
      0.00801 [    32]: 22011
      0.00711 [    23]: 20121
      0.00602 [     2]: 01221
      0.00572 [    34]: 22110
      0.00567 [    16]: 12021
      0.00506 [     3]: 02112
      0.00494 [    31]: 21210
      0.00485 [     5]: 02211
      0.00329 [    20]: 12201
      0.00306 [    15]: 12012
ROOT   4:  E=   -2880.0917224576 Eh  0.072 eV    578.3 cm**-1
      0.18150 [    10]: 11112
      0.16560 [    28]: 21111
      0.15306 [    24]: 20211
      0.09822 [    11]: 11121
      0.08406 [    13]: 11211
      0.07106 [     7]: 10212
      0.05042 [     8]: 10221
      0.01894 [     5]: 02211
      0.01846 [     6]: 10122
      0.01833 [    20]: 12201
      0.01772 [    23]: 20121
      0.01754 [     0]: 01122
      0.01750 [     1]: 01212
      0.01295 [    15]: 12012
      0.00923 [     2]: 01221
      0.00866 [    29]: 21120
      0.00803 [    14]: 11220
      0.00758 [    31]: 21210
      0.00723 [    22]: 20112
      0.00675 [    17]: 12102
      0.00611 [    18]: 12111
      0.00596 [    33]: 22101
      0.00379 [    16]: 12021
ROOT   5:  E=   -2880.0908718852 Eh  0.095 eV    764.9 cm**-1
      0.24505 [    10]: 11112
      0.11538 [    13]: 11211
      0.10791 [    11]: 11121
      0.09311 [     2]: 01221
      0.05690 [     9]: 11022
      0.03708 [    25]: 21012
      0.03665 [    18]: 12111
      0.03505 [    26]: 21021
      0.03369 [    27]: 21102
      0.03053 [    31]: 21210
      0.02633 [     5]: 02211
      0.02080 [    20]: 12201
      0.02036 [    28]: 21111
      0.01937 [    14]: 11220
      0.01611 [    21]: 12210
      0.01311 [    30]: 21201
      0.01087 [    32]: 22011
      0.00945 [    16]: 12021
      0.00944 [    12]: 11202
      0.00851 [    15]: 12012
      0.00841 [    17]: 12102
      0.00839 [    29]: 21120
      0.00767 [     0]: 01122
      0.00522 [    33]: 22101
      0.00439 [    24]: 20211
      0.00410 [    19]: 12120
      0.00395 [     3]: 02112
      0.00365 [    22]: 20112
ROOT   6:  E=   -2880.0907179678 Eh  0.099 eV    798.7 cm**-1
      0.30916 [    13]: 11211
      0.14429 [    28]: 21111
      0.13354 [    10]: 11112
      0.12833 [    11]: 11121
      0.10528 [    23]: 20121
      0.02384 [     6]: 10122
      0.02073 [    29]: 21120
      0.02033 [    18]: 12111
      0.01765 [     0]: 01122
      0.01169 [    17]: 12102
      0.00992 [    14]: 11220
      0.00992 [     4]: 02121
      0.00866 [    22]: 20112
      0.00844 [    12]: 11202
      0.00763 [     8]: 10221
      0.00669 [    32]: 22011
      0.00474 [    16]: 12021
      0.00459 [    30]: 21201
      0.00411 [     5]: 02211
      0.00288 [     7]: 10212
      0.00268 [    24]: 20211
      0.00252 [    15]: 12012
ROOT   7:  E=   -2880.0900603597 Eh  0.117 eV    943.1 cm**-1
      0.20847 [    13]: 11211
      0.11068 [    10]: 11112
      0.08065 [    17]: 12102
      0.07846 [    28]: 21111
      0.06473 [    19]: 12120
      0.06447 [     1]: 01212
      0.05276 [     4]: 02121
      0.04485 [    33]: 22101
      0.04440 [     2]: 01221
      0.03679 [    18]: 12111
      0.03272 [    31]: 21210
      0.02223 [     6]: 10122
      0.02113 [     8]: 10221
      0.01624 [    11]: 11121
      0.01616 [    22]: 20112
      0.01487 [     0]: 01122
      0.01306 [    34]: 22110
      0.01094 [    30]: 21201
      0.00825 [    23]: 20121
      0.00797 [    14]: 11220
      0.00745 [     3]: 02112
      0.00725 [    12]: 11202
      0.00511 [    24]: 20211
      0.00451 [    20]: 12201
      0.00422 [     7]: 10212
      0.00383 [     5]: 02211
      0.00351 [    29]: 21120
      0.00268 [     9]: 11022
      0.00258 [    21]: 12210
ROOT   8:  E=   -2880.0895873976 Eh  0.130 eV   1046.9 cm**-1
      0.21472 [    18]: 12111
      0.09049 [    12]: 11202
      0.08876 [    27]: 21102
      0.07478 [    14]: 11220
      0.06931 [     3]: 02112
      0.05709 [     2]: 01221
      0.05146 [    30]: 21201
      0.04342 [    13]: 11211
      0.04242 [    11]: 11121
      0.04110 [     4]: 02121
      0.03978 [     0]: 01122
      0.03369 [    34]: 22110
      0.01811 [    22]: 20112
      0.01210 [    33]: 22101
      0.01174 [    10]: 11112
      0.01036 [    31]: 21210
      0.01035 [    29]: 21120
      0.00977 [    20]: 12201
      0.00931 [    28]: 21111
      0.00820 [     5]: 02211
      0.00744 [    24]: 20211
      0.00668 [    25]: 21012
      0.00622 [    23]: 20121
      0.00598 [     8]: 10221
      0.00540 [     7]: 10212
      0.00515 [    17]: 12102
      0.00454 [    16]: 12021
      0.00431 [     9]: 11022
      0.00425 [     6]: 10122
      0.00406 [    19]: 12120
      0.00292 [    21]: 12210
      0.00281 [     1]: 01212
ROOT   9:  E=   -2880.0857969847 Eh  0.233 eV   1878.8 cm**-1
      0.21201 [    28]: 21111
      0.13884 [    15]: 12012
      0.13652 [    21]: 12210
      0.12672 [    11]: 11121
      0.11064 [    10]: 11112
      0.05281 [     5]: 02211
      0.05135 [    32]: 22011
      0.04271 [    18]: 12111
      0.01939 [     9]: 11022
      0.01774 [     0]: 01122
      0.01266 [    29]: 21120
      0.01235 [    25]: 21012
      0.01188 [    14]: 11220
      0.00875 [    31]: 21210
      0.00619 [    19]: 12120
      0.00508 [    17]: 12102
      0.00489 [    30]: 21201
      0.00357 [     6]: 10122
      0.00331 [    16]: 12021
      0.00307 [     8]: 10221
      0.00305 [    27]: 21102
      0.00262 [    20]: 12201
      0.00254 [    22]: 20112
ROOT  10:  E=   -2880.0857939504 Eh  0.233 eV   1879.4 cm**-1
      0.29719 [    18]: 12111
      0.15754 [    25]: 21012
      0.07348 [    13]: 11211
      0.06983 [    31]: 21210
      0.06853 [     9]: 11022
      0.06427 [    14]: 11220
      0.04435 [     3]: 02112
      0.04051 [    34]: 22110
      0.03894 [    11]: 11121
      0.02177 [    28]: 21111
      0.02158 [    15]: 12012
      0.01893 [    21]: 12210
      0.01777 [     1]: 01212
      0.01224 [     2]: 01221
      0.01021 [    26]: 21021
      0.00895 [    27]: 21102
      0.00631 [    16]: 12021
      0.00427 [     8]: 10221
      0.00399 [    20]: 12201
      0.00261 [    30]: 21201
ROOT  11:  E=   -2880.0804667283 Eh  0.378 eV   3048.6 cm**-1
      0.22453 [    11]: 11121
      0.13849 [    27]: 21102
      0.12906 [    28]: 21111
      0.07710 [     2]: 01221
      0.06083 [    10]: 11112
      0.05455 [    30]: 21201
      0.03894 [    12]: 11202
      0.03526 [    24]: 20211
      0.03185 [    26]: 21021
      0.03068 [     8]: 10221
      0.02620 [    14]: 11220
      0.02476 [    15]: 12012
      0.02364 [     5]: 02211
      0.01741 [    20]: 12201
      0.01712 [    29]: 21120
      0.01116 [     6]: 10122
      0.00822 [    18]: 12111
      0.00757 [    22]: 20112
      0.00705 [    23]: 20121
      0.00611 [    17]: 12102
      0.00464 [    33]: 22101
      0.00378 [     9]: 11022
      0.00367 [    32]: 22011
      0.00361 [     7]: 10212
      0.00320 [    21]: 12210
      0.00260 [    16]: 12021
ROOT  12:  E=   -2880.0798360594 Eh  0.395 eV   3187.0 cm**-1
      0.12048 [     9]: 11022
      0.10194 [    31]: 21210
      0.08797 [    14]: 11220
      0.08391 [    23]: 20121
      0.07868 [     2]: 01221
      0.07591 [    10]: 11112
      0.06800 [    25]: 21012
      0.05751 [    13]: 11211
      0.05697 [    26]: 21021
      0.03947 [    30]: 21201
      0.03903 [    12]: 11202
      0.03875 [     1]: 01212
      0.02946 [    22]: 20112
      0.01924 [    28]: 21111
      0.01889 [    33]: 22101
      0.01667 [     4]: 02121
      0.01361 [     8]: 10221
      0.01207 [    24]: 20211
      0.00983 [    17]: 12102
      0.00829 [     7]: 10212
      0.00671 [    18]: 12111
      0.00315 [     6]: 10122
      0.00260 [    16]: 12021
ROOT  13:  E=   -2880.0797914055 Eh  0.396 eV   3196.8 cm**-1
      0.11459 [    18]: 12111
      0.10623 [    14]: 11220
      0.08447 [    30]: 21201
      0.06166 [    11]: 11121
      0.06100 [    25]: 21012
      0.05668 [    27]: 21102
      0.05513 [     4]: 02121
      0.05499 [    17]: 12102
      0.05232 [    13]: 11211
      0.03842 [     6]: 10122
      0.03703 [    33]: 22101
      0.03319 [     8]: 10221
      0.03052 [     2]: 01221
      0.02929 [    26]: 21021
      0.02815 [    19]: 12120
      0.02470 [    22]: 20112
      0.02450 [     3]: 02112
      0.02424 [     0]: 01122
      0.01485 [    23]: 20121
      0.01197 [    12]: 11202
      0.01129 [    31]: 21210
      0.01070 [    34]: 22110
      0.00927 [    24]: 20211
      0.00751 [     7]: 10212
      0.00318 [     9]: 11022
      0.00272 [    10]: 11112
ROOT  14:  E=   -2880.0776701951 Eh  0.454 eV   3662.4 cm**-1
      0.19207 [    28]: 21111
      0.18234 [    11]: 11121
      0.12754 [    10]: 11112
      0.08892 [    13]: 11211
      0.06792 [     0]: 01122
      0.04525 [     1]: 01212
      0.02948 [    24]: 20211
      0.02615 [     5]: 02211
      0.02585 [    22]: 20112
      0.02196 [    29]: 21120
      0.01988 [     8]: 10221
      0.01850 [    20]: 12201
      0.01550 [     3]: 02112
      0.01361 [    31]: 21210
      0.01231 [    27]: 21102
      0.01192 [    21]: 12210
      0.01151 [    34]: 22110
      0.01104 [     7]: 10212
      0.00915 [    14]: 11220
      0.00885 [    25]: 21012
      0.00786 [    32]: 22011
      0.00720 [     6]: 10122
      0.00667 [    17]: 12102
      0.00581 [    33]: 22101
      0.00559 [    23]: 20121
      0.00511 [    26]: 21021
      0.00475 [    30]: 21201
      0.00442 [    16]: 12021
      0.00327 [    12]: 11202
      0.00317 [    18]: 12111
ROOT  15:  E=   -2880.0769821057 Eh  0.473 eV   3813.4 cm**-1
      0.16180 [    13]: 11211
      0.09770 [     4]: 02121
      0.08806 [    19]: 12120
      0.08631 [    18]: 12111
      0.07663 [    10]: 11112
      0.07107 [     3]: 02112
      0.06595 [    17]: 12102
      0.06537 [    23]: 20121
      0.04220 [    14]: 11220
      0.02924 [    28]: 21111
      0.02754 [    12]: 11202
      0.01994 [    22]: 20112
      0.01890 [    33]: 22101
      0.01536 [     1]: 01212
      0.01488 [    25]: 21012
      0.01451 [    31]: 21210
      0.01119 [     9]: 11022
      0.01095 [    11]: 11121
      0.00999 [    27]: 21102
      0.00983 [     5]: 02211
      0.00979 [     8]: 10221
      0.00799 [    24]: 20211
      0.00676 [    20]: 12201
      0.00628 [    26]: 21021
      0.00624 [    29]: 21120
      0.00614 [     7]: 10212
      0.00613 [    21]: 12210
      0.00436 [    32]: 22011
      0.00430 [    15]: 12012
      0.00283 [     6]: 10122
ROOT  16:  E=   -2880.0745391403 Eh  0.539 eV   4349.6 cm**-1
      0.23463 [    18]: 12111
      0.07803 [     3]: 02112
      0.07277 [    11]: 11121
      0.06770 [    28]: 21111
      0.06747 [    10]: 11112
      0.05405 [    27]: 21102
      0.04926 [    15]: 12012
      0.04270 [    20]: 12201
      0.03039 [    24]: 20211
      0.03019 [    25]: 21012
      0.02875 [     8]: 10221
      0.02749 [    14]: 11220
      0.02287 [    31]: 21210
      0.02162 [     0]: 01122
      0.01931 [    30]: 21201
      0.01789 [    13]: 11211
      0.01599 [    17]: 12102
      0.01555 [    21]: 12210
      0.01501 [     9]: 11022
      0.01443 [    12]: 11202
      0.01344 [    34]: 22110
      0.01327 [    33]: 22101
      0.01109 [     6]: 10122
      0.00826 [    32]: 22011
      0.00768 [    23]: 20121
      0.00692 [    22]: 20112
      0.00644 [    29]: 21120
      0.00254 [     5]: 02211
ROOT  17:  E=   -2880.0741218637 Eh  0.551 eV   4441.1 cm**-1
      0.13633 [    15]: 12012
      0.12627 [     5]: 02211
      0.08841 [    21]: 12210
      0.07584 [    32]: 22011
      0.06816 [    28]: 21111
      0.06704 [    11]: 11121
      0.05952 [    30]: 21201
      0.05191 [    27]: 21102
      0.04184 [    17]: 12102
      0.04112 [     2]: 01221
      0.02508 [    20]: 12201
      0.02405 [    10]: 11112
      0.02243 [    12]: 11202
      0.01938 [    14]: 11220
      0.01933 [     3]: 02112
      0.01800 [     6]: 10122
      0.01735 [     9]: 11022
      0.01617 [     8]: 10221
      0.01257 [    25]: 21012
      0.01253 [    18]: 12111
      0.01243 [    22]: 20112
      0.00896 [    29]: 21120
      0.00856 [    13]: 11211
      0.00658 [    23]: 20121
      0.00414 [    24]: 20211
      0.00346 [    33]: 22101
      0.00339 [     7]: 10212
ROOT  18:  E=   -2880.0731793878 Eh  0.576 eV   4648.0 cm**-1
      0.16158 [     4]: 02121
      0.13820 [    25]: 21012
      0.12481 [    33]: 22101
      0.11994 [    13]: 11211
      0.06928 [    31]: 21210
      0.05869 [    17]: 12102
      0.04110 [     2]: 01221
      0.04033 [     9]: 11022
      0.03592 [    34]: 22110
      0.03490 [    14]: 11220
      0.03407 [    26]: 21021
      0.02599 [    19]: 12120
      0.02472 [    18]: 12111
      0.02323 [    10]: 11112
      0.01556 [     3]: 02112
      0.01351 [    16]: 12021
      0.00991 [    28]: 21111
      0.00728 [    30]: 21201
      0.00479 [    12]: 11202
      0.00298 [     6]: 10122
      0.00288 [     8]: 10221
ROOT  19:  E=   -2880.0722415145 Eh  0.602 eV   4853.8 cm**-1
      0.19023 [    21]: 12210
      0.18024 [    15]: 12012
      0.11139 [     5]: 02211
      0.08663 [    18]: 12111
      0.07497 [    28]: 21111
      0.05243 [    11]: 11121
      0.04303 [     7]: 10212
      0.03872 [    32]: 22011
      0.03849 [    10]: 11112
      0.03573 [    34]: 22110
      0.02189 [    16]: 12021
      0.01449 [    25]: 21012
      0.01395 [    29]: 21120
      0.01229 [     8]: 10221
      0.01120 [    14]: 11220
      0.01003 [    26]: 21021
      0.00873 [    19]: 12120
      0.00785 [    13]: 11211
      0.00646 [     4]: 02121
      0.00622 [    22]: 20112
      0.00612 [    31]: 21210
      0.00481 [     6]: 10122
      0.00380 [    23]: 20121
      0.00359 [    20]: 12201
      0.00309 [    27]: 21102
      0.00263 [     3]: 02112
ROOT  20:  E=   -2880.0714134592 Eh  0.624 eV   5035.6 cm**-1
      0.32058 [    18]: 12111
      0.15024 [    33]: 22101
      0.13861 [    17]: 12102
      0.04616 [    14]: 11220
      0.04555 [    34]: 22110
      0.03578 [     4]: 02121
      0.02996 [     6]: 10122
      0.02653 [    13]: 11211
      0.02419 [    22]: 20112
      0.01766 [     3]: 02112
      0.01680 [    30]: 21201
      0.01605 [     9]: 11022
      0.01331 [    25]: 21012
      0.01229 [     5]: 02211
      0.01018 [    27]: 21102
      0.00939 [    19]: 12120
      0.00921 [    24]: 20211
      0.00881 [    31]: 21210
      0.00838 [    10]: 11112
      0.00792 [    26]: 21021
      0.00695 [    28]: 21111
      0.00622 [     7]: 10212
      0.00588 [     8]: 10221
      0.00558 [    11]: 11121
      0.00463 [     0]: 01122
      0.00456 [    21]: 12210
      0.00377 [    32]: 22011
      0.00369 [    29]: 21120
      0.00336 [    23]: 20121
      0.00314 [     1]: 01212
ROOT  21:  E=   -2880.0673103271 Eh  0.736 eV   5936.1 cm**-1
      0.18538 [    10]: 11112
      0.09947 [    13]: 11211
      0.09751 [    28]: 21111
      0.09741 [    31]: 21210
      0.07492 [     9]: 11022
      0.05816 [     2]: 01221
      0.05700 [    14]: 11220
      0.04073 [    26]: 21021
      0.03742 [    25]: 21012
      0.03636 [    24]: 20211
      0.03269 [    22]: 20112
      0.02478 [     8]: 10221
      0.01877 [    11]: 11121
      0.01854 [     5]: 02211
      0.01363 [     1]: 01212
      0.01353 [     7]: 10212
      0.01310 [    20]: 12201
      0.01216 [     3]: 02112
      0.00911 [    34]: 22110
      0.00854 [     6]: 10122
      0.00746 [    21]: 12210
      0.00685 [    23]: 20121
      0.00629 [    32]: 22011
      0.00476 [     0]: 01122
      0.00438 [    17]: 12102
      0.00425 [    27]: 21102
      0.00417 [    16]: 12021
      0.00376 [    33]: 22101
ROOT  22:  E=   -2880.0671408781 Eh  0.741 eV   5973.3 cm**-1
      0.18470 [    28]: 21111
      0.18399 [    11]: 11121
      0.14831 [    13]: 11211
      0.06270 [    31]: 21210
      0.05167 [    22]: 20112
      0.04984 [    10]: 11112
      0.04268 [     0]: 01122
      0.03309 [     3]: 02112
      0.03268 [     6]: 10122
      0.02672 [     1]: 01212
      0.02004 [    29]: 21120
      0.01938 [    24]: 20211
      0.01566 [     7]: 10212
      0.01393 [     8]: 10221
      0.01323 [     5]: 02211
      0.01074 [    20]: 12201
      0.01061 [     9]: 11022
      0.00999 [    17]: 12102
      0.00998 [    25]: 21012
      0.00855 [    18]: 12111
      0.00847 [    33]: 22101
      0.00835 [    21]: 12210
      0.00686 [    34]: 22110
      0.00545 [    12]: 11202
      0.00412 [    27]: 21102
      0.00378 [     2]: 01221
      0.00349 [    19]: 12120
      0.00307 [    15]: 12012
ROOT  23:  E=   -2880.0667986231 Eh  0.750 eV   6048.4 cm**-1
      0.24152 [    11]: 11121
      0.16682 [    10]: 11112
      0.09243 [    29]: 21120
      0.07032 [    28]: 21111
      0.04928 [    24]: 20211
      0.04313 [    22]: 20112
      0.03558 [     5]: 02211
      0.03351 [     8]: 10221
      0.02662 [    20]: 12201
      0.02422 [    27]: 21102
      0.02396 [    13]: 11211
      0.02172 [     0]: 01122
      0.01805 [     7]: 10212
      0.01727 [     3]: 02112
      0.01690 [     2]: 01221
      0.01652 [    21]: 12210
      0.01322 [    14]: 11220
      0.01182 [     6]: 10122
      0.01017 [    30]: 21201
      0.00990 [    18]: 12111
      0.00959 [    23]: 20121
      0.00941 [    17]: 12102
      0.00936 [    34]: 22110
      0.00730 [    12]: 11202
      0.00721 [    33]: 22101
      0.00437 [     1]: 01212
      0.00293 [    32]: 22011
ROOT  24:  E=   -2880.0655580415 Eh  0.784 eV   6320.7 cm**-1
      0.33231 [    28]: 21111
      0.11618 [    11]: 11121
      0.07814 [     7]: 10212
      0.06770 [    10]: 11112
      0.05881 [    13]: 11211
      0.05402 [     8]: 10221
      0.04113 [     0]: 01122
      0.03764 [    29]: 21120
      0.03320 [    20]: 12201
      0.02347 [    22]: 20112
      0.02045 [     6]: 10122
      0.01749 [    16]: 12021
      0.01504 [    23]: 20121
      0.01331 [     3]: 02112
      0.01276 [    17]: 12102
      0.00968 [    21]: 12210
      0.00961 [     1]: 01212
      0.00917 [    33]: 22101
      0.00861 [    15]: 12012
      0.00695 [     5]: 02211
      0.00650 [    19]: 12120
      0.00510 [    34]: 22110
      0.00466 [     4]: 02121
      0.00264 [    32]: 22011
      0.00261 [    25]: 21012
      0.00255 [    18]: 12111
ROOT  25:  E=   -2880.0634723915 Eh  0.840 eV   6778.4 cm**-1
      0.30432 [    18]: 12111
      0.20647 [     3]: 02112
      0.10035 [    13]: 11211
      0.06116 [    34]: 22110
      0.03335 [    12]: 11202
      0.03062 [    26]: 21021
      0.02233 [    19]: 12120
      0.02088 [     6]: 10122
      0.01783 [     8]: 10221
      0.01738 [    11]: 11121
      0.01621 [     1]: 01212
      0.01616 [    32]: 22011
      0.01599 [    16]: 12021
      0.01343 [    22]: 20112
      0.01262 [    20]: 12201
      0.01184 [    17]: 12102
      0.01146 [    30]: 21201
      0.01052 [    33]: 22101
      0.01028 [    25]: 21012
      0.00943 [    31]: 21210
      0.00900 [    14]: 11220
      0.00772 [    23]: 20121
      0.00684 [    15]: 12012
      0.00636 [    10]: 11112
      0.00526 [    28]: 21111
      0.00525 [    24]: 20211
      0.00504 [    29]: 21120
      0.00413 [     7]: 10212
      0.00293 [     4]: 02121
      0.00263 [     9]: 11022
ROOT  26:  E=   -2880.0623444763 Eh  0.871 eV   7026.0 cm**-1
      0.10902 [    18]: 12111
      0.08714 [    10]: 11112
      0.07891 [    32]: 22011
      0.07407 [    13]: 11211
      0.06459 [    28]: 21111
      0.06173 [    16]: 12021
      0.05436 [     2]: 01221
      0.05356 [     0]: 01122
      0.04542 [    27]: 21102
      0.04515 [    15]: 12012
      0.04404 [     1]: 01212
      0.03159 [     5]: 02211
      0.02855 [     9]: 11022
      0.02760 [    20]: 12201
      0.02475 [    25]: 21012
      0.02312 [    19]: 12120
      0.02267 [    21]: 12210
      0.01740 [     4]: 02121
      0.01639 [    30]: 21201
      0.01420 [    12]: 11202
      0.01131 [    34]: 22110
      0.01115 [    26]: 21021
      0.01065 [    11]: 11121
      0.01003 [    17]: 12102
      0.00755 [    33]: 22101
      0.00577 [    24]: 20211
      0.00489 [    22]: 20112
      0.00376 [     8]: 10221
      0.00293 [    31]: 21210
      0.00260 [    14]: 11220
ROOT  27:  E=   -2880.0618839420 Eh  0.884 eV   7127.1 cm**-1
      0.14091 [    18]: 12111
      0.12215 [    13]: 11211
      0.08942 [    10]: 11112
      0.07047 [    30]: 21201
      0.06025 [    32]: 22011
      0.05303 [     2]: 01221
      0.05166 [    11]: 11121
      0.04676 [    34]: 22110
      0.04629 [     4]: 02121
      0.04477 [    16]: 12021
      0.02942 [     0]: 01122
      0.02802 [    17]: 12102
      0.02721 [    19]: 12120
      0.02397 [     5]: 02211
      0.02397 [    27]: 21102
      0.02208 [    15]: 12012
      0.02197 [    28]: 21111
      0.01985 [    31]: 21210
      0.01401 [    20]: 12201
      0.01072 [     1]: 01212
      0.01064 [    22]: 20112
      0.00892 [    23]: 20121
      0.00549 [    21]: 12210
      0.00538 [     3]: 02112
      0.00414 [    24]: 20211
      0.00402 [     8]: 10221
      0.00365 [    25]: 21012
      0.00300 [     7]: 10212
      0.00285 [    26]: 21021
      0.00268 [     9]: 11022
ROOT  28:  E=   -2880.0609877363 Eh  0.908 eV   7323.8 cm**-1
      0.11776 [    10]: 11112
      0.09384 [    18]: 12111
      0.09039 [    13]: 11211
      0.08805 [    17]: 12102
      0.08768 [    28]: 21111
      0.07281 [    11]: 11121
      0.07240 [    19]: 12120
      0.05803 [    20]: 12201
      0.05418 [    21]: 12210
      0.04855 [    15]: 12012
      0.04600 [    16]: 12021
      0.03235 [    29]: 21120
      0.02421 [    27]: 21102
      0.02013 [    12]: 11202
      0.01822 [    26]: 21021
      0.01525 [    30]: 21201
      0.01207 [    33]: 22101
      0.01094 [     9]: 11022
      0.00896 [     3]: 02112
      0.00850 [     4]: 02121
      0.00532 [    34]: 22110
      0.00349 [     2]: 01221
ROOT  29:  E=   -2880.0609077758 Eh  0.910 eV   7341.3 cm**-1
      0.10732 [    18]: 12111
      0.10332 [    20]: 12201
      0.08423 [    10]: 11112
      0.08102 [    25]: 21012
      0.07302 [    13]: 11211
      0.06998 [    16]: 12021
      0.05523 [    26]: 21021
      0.04528 [    15]: 12012
      0.04026 [     5]: 02211
      0.03799 [    17]: 12102
      0.03482 [    29]: 21120
      0.03128 [    27]: 21102
      0.03050 [    33]: 22101
      0.02946 [     1]: 01212
      0.02622 [    19]: 12120
      0.02299 [    14]: 11220
      0.02071 [     2]: 01221
      0.01974 [     4]: 02121
      0.01600 [    21]: 12210
      0.01285 [    31]: 21210
      0.01198 [    30]: 21201
      0.00981 [    11]: 11121
      0.00928 [    12]: 11202
      0.00809 [    32]: 22011
      0.00510 [     9]: 11022
      0.00353 [    34]: 22110
      0.00317 [    24]: 20211
ROOT  30:  E=   -2880.0317391518 Eh  1.704 eV  13743.1 cm**-1
      0.19838 [    28]: 21111
      0.15826 [    11]: 11121
      0.09878 [     0]: 01122
      0.09562 [    13]: 11211
      0.08979 [    10]: 11112
      0.05550 [    29]: 21120
      0.05184 [    24]: 20211
      0.04443 [    22]: 20112
      0.03339 [     8]: 10221
      0.02827 [     5]: 02211
      0.02024 [    20]: 12201
      0.01903 [     7]: 10212
      0.01340 [     3]: 02112
      0.01319 [    21]: 12210
      0.01285 [     6]: 10122
      0.01023 [    23]: 20121
      0.00807 [    18]: 12111
      0.00775 [    17]: 12102
      0.00769 [     1]: 01212
      0.00661 [    34]: 22110
      0.00617 [    27]: 21102
      0.00587 [    33]: 22101
      0.00356 [    31]: 21210
ROOT  31:  E=   -2880.0285878923 Eh  1.790 eV  14434.7 cm**-1
      0.15725 [    18]: 12111
      0.10246 [    19]: 12120
      0.10101 [    13]: 11211
      0.10091 [     6]: 10122
      0.09429 [    23]: 20121
      0.07853 [    10]: 11112
      0.04572 [    31]: 21210
      0.04278 [    32]: 22011
      0.03960 [    33]: 22101
      0.02981 [    16]: 12021
      0.02592 [    28]: 21111
      0.02406 [     5]: 02211
      0.02230 [    20]: 12201
      0.01961 [    15]: 12012
      0.01863 [     1]: 01212
      0.01507 [    30]: 21201
      0.01190 [    22]: 20112
      0.01086 [    34]: 22110
      0.01016 [     4]: 02121
      0.00943 [    11]: 11121
      0.00763 [     7]: 10212
      0.00747 [     2]: 01221
      0.00599 [    12]: 11202
      0.00389 [    25]: 21012
      0.00387 [    21]: 12210
      0.00287 [    24]: 20211
ROOT  32:  E=   -2880.0284646171 Eh  1.793 eV  14461.8 cm**-1
      0.14780 [    28]: 21111
      0.13660 [    11]: 11121
      0.11463 [    10]: 11112
      0.08675 [    18]: 12111
      0.05893 [    32]: 22011
      0.05225 [    13]: 11211
      0.05178 [     1]: 01212
      0.05162 [    16]: 12021
      0.04448 [     0]: 01122
      0.03723 [    15]: 12012
      0.02225 [    29]: 21120
      0.02131 [    20]: 12201
      0.02107 [     5]: 02211
      0.02054 [    19]: 12120
      0.01966 [    31]: 21210
      0.01587 [    21]: 12210
      0.01368 [     4]: 02121
      0.01004 [    24]: 20211
      0.01004 [    22]: 20112
      0.00958 [    34]: 22110
      0.00814 [    17]: 12102
      0.00752 [    25]: 21012
      0.00692 [     8]: 10221
      0.00567 [    33]: 22101
      0.00537 [     9]: 11022
      0.00496 [     7]: 10212
      0.00370 [    27]: 21102
      0.00300 [     6]: 10122
      0.00262 [     2]: 01221
ROOT  33:  E=   -2880.0283155402 Eh  1.797 eV  14494.5 cm**-1
      0.13727 [    10]: 11112
      0.12631 [     7]: 10212
      0.10301 [    29]: 21120
      0.09161 [    28]: 21111
      0.06122 [    20]: 12201
      0.05943 [    21]: 12210
      0.05761 [    32]: 22011
      0.04488 [    16]: 12021
      0.04419 [    24]: 20211
      0.03752 [    18]: 12111
      0.03718 [    11]: 11121
      0.02852 [     0]: 01122
      0.02574 [    17]: 12102
      0.02490 [    19]: 12120
      0.02318 [    33]: 22101
      0.01817 [    26]: 21021
      0.01506 [    27]: 21102
      0.01295 [     4]: 02121
      0.00757 [     3]: 02112
      0.00707 [    30]: 21201
      0.00549 [    22]: 20112
      0.00493 [    13]: 11211
      0.00390 [     5]: 02211
      0.00370 [     8]: 10221
      0.00353 [     1]: 01212
      0.00329 [    12]: 11202
      0.00276 [    23]: 20121
ROOT  34:  E=   -2880.0267227078 Eh  1.840 eV  14844.1 cm**-1
      0.13581 [    13]: 11211
      0.08935 [    18]: 12111
      0.08860 [    12]: 11202
      0.07150 [     9]: 11022
      0.06954 [    11]: 11121
      0.06549 [     4]: 02121
      0.06182 [    33]: 22101
      0.05788 [    16]: 12021
      0.05303 [    20]: 12201
      0.04340 [    26]: 21021
      0.03761 [    32]: 22011
      0.03514 [     5]: 02211
      0.02991 [    19]: 12120
      0.02943 [    27]: 21102
      0.02592 [    17]: 12102
      0.02375 [    29]: 21120
      0.02140 [     1]: 01212
      0.02054 [     2]: 01221
      0.01708 [    25]: 21012
      0.00942 [    28]: 21111
      0.00575 [    10]: 11112
      0.00280 [    31]: 21210
ROOT  35:  E=   -2879.9311991332 Eh  4.440 eV  35809.1 cm**-1
      0.37095 [     7]: 10212
      0.09863 [    21]: 12210
      0.07704 [    24]: 20211
      0.07141 [    15]: 12012
      0.04566 [    28]: 21111
      0.03555 [    11]: 11121
      0.03314 [     8]: 10221
      0.03312 [    20]: 12201
      0.02773 [    27]: 21102
      0.02649 [    22]: 20112
      0.02532 [    10]: 11112
      0.02217 [    32]: 22011
      0.02060 [     0]: 01122
      0.01294 [     3]: 02112
      0.01186 [    17]: 12102
      0.01143 [     6]: 10122
      0.01046 [    30]: 21201
      0.01020 [    23]: 20121
      0.01018 [     2]: 01221
      0.00911 [    33]: 22101
      0.00707 [    12]: 11202
      0.00531 [     5]: 02211
      0.00492 [    34]: 22110
      0.00436 [    18]: 12111
      0.00323 [    14]: 11220
      0.00298 [    29]: 21120
ROOT  36:  E=   -2879.9304646924 Eh  4.460 eV  35970.3 cm**-1
      0.25891 [     1]: 01212
      0.12278 [    31]: 21210
      0.11058 [    30]: 21201
      0.08071 [    25]: 21012
      0.07611 [    12]: 11202
      0.05595 [    33]: 22101
      0.04260 [     3]: 02112
      0.03891 [    13]: 11211
      0.02763 [     2]: 01221
      0.02659 [     9]: 11022
      0.02577 [    20]: 12201
      0.02152 [    19]: 12120
      0.01569 [    14]: 11220
      0.01297 [    26]: 21021
      0.01243 [     4]: 02121
      0.00927 [     6]: 10122
      0.00884 [    18]: 12111
      0.00780 [    10]: 11112
      0.00775 [     8]: 10221
      0.00618 [    22]: 20112
      0.00590 [     5]: 02211
      0.00350 [    23]: 20121
      0.00340 [    17]: 12102
      0.00272 [    27]: 21102
      0.00263 [    28]: 21111
ROOT  37:  E=   -2879.9295061621 Eh  4.486 eV  36180.6 cm**-1
      0.28781 [    12]: 11202
      0.12552 [     1]: 01212
      0.08636 [    30]: 21201
      0.07464 [    31]: 21210
      0.05351 [     9]: 11022
      0.04953 [    18]: 12111
      0.04448 [     2]: 01221
      0.03906 [    25]: 21012
      0.03682 [    14]: 11220
      0.03005 [    34]: 22110
      0.02704 [    23]: 20121
      0.02616 [    26]: 21021
      0.02600 [    13]: 11211
      0.02170 [     4]: 02121
      0.01096 [     5]: 02211
      0.01047 [    27]: 21102
      0.00692 [    21]: 12210
      0.00679 [    20]: 12201
      0.00567 [    17]: 12102
      0.00549 [    33]: 22101
      0.00362 [     6]: 10122
      0.00355 [    22]: 20112
      0.00291 [    16]: 12021
ROOT  38:  E=   -2879.9268006011 Eh  4.559 eV  36774.4 cm**-1
      0.21390 [     6]: 10122
      0.09876 [    34]: 22110
      0.09455 [    23]: 20121
      0.08210 [    22]: 20112
      0.06284 [    19]: 12120
      0.05732 [     3]: 02112
      0.05051 [    17]: 12102
      0.04747 [    13]: 11211
      0.03577 [    32]: 22011
      0.02874 [    24]: 20211
      0.02823 [    16]: 12021
      0.02597 [    15]: 12012
      0.02534 [    10]: 11112
      0.02365 [     7]: 10212
      0.02054 [     5]: 02211
      0.01864 [    21]: 12210
      0.01443 [    20]: 12201
      0.01366 [     8]: 10221
      0.01245 [     1]: 01212
      0.01166 [    28]: 21111
      0.00770 [    14]: 11220
      0.00552 [    25]: 21012
      0.00495 [    18]: 12111
      0.00443 [     9]: 11022
      0.00287 [    26]: 21021
      0.00252 [    31]: 21210
ROOT  39:  E=   -2879.9253358054 Eh  4.599 eV  37095.9 cm**-1
      0.09377 [    32]: 22011
      0.07729 [     5]: 02211
      0.07198 [    24]: 20211
      0.07167 [    34]: 22110
      0.07026 [     3]: 02112
      0.06138 [    22]: 20112
      0.06065 [    16]: 12021
      0.04999 [    20]: 12201
      0.04730 [    28]: 21111
      0.04671 [     8]: 10221
      0.04312 [    11]: 11121
      0.04142 [    10]: 11112
      0.03549 [    15]: 12012
      0.02838 [    21]: 12210
      0.02672 [     7]: 10212
      0.02359 [    19]: 12120
      0.02214 [    13]: 11211
      0.01874 [    17]: 12102
      0.01795 [     6]: 10122
      0.01784 [     4]: 02121
      0.01498 [     0]: 01122
      0.01394 [    33]: 22101
      0.01372 [    23]: 20121
      0.01181 [     1]: 01212
      0.00899 [    29]: 21120
      0.00546 [    31]: 21210
ROOT  40:  E=   -2879.9246121182 Eh  4.619 eV  37254.7 cm**-1
      0.14901 [    33]: 22101
      0.14439 [     4]: 02121
      0.11151 [    23]: 20121
      0.07458 [     1]: 01212
      0.05859 [    30]: 21201
      0.05533 [     6]: 10122
      0.05412 [    12]: 11202
      0.04736 [    34]: 22110
      0.04333 [     3]: 02112
      0.04028 [    10]: 11112
      0.03706 [    13]: 11211
      0.03590 [    20]: 12201
      0.03466 [     5]: 02211
      0.02094 [    18]: 12111
      0.02014 [    21]: 12210
      0.01992 [    19]: 12120
      0.01625 [    28]: 21111
      0.01186 [    16]: 12021
      0.00623 [    15]: 12012
      0.00555 [    32]: 22011
      0.00321 [    31]: 21210
ROOT  41:  E=   -2879.9232348167 Eh  4.656 eV  37557.0 cm**-1
      0.14839 [    19]: 12120
      0.14795 [    34]: 22110
      0.11188 [    16]: 12021
      0.06760 [    32]: 22011
      0.06551 [    21]: 12210
      0.05372 [    20]: 12201
      0.04443 [    26]: 21021
      0.04280 [    17]: 12102
      0.03416 [    33]: 22101
      0.03140 [    18]: 12111
      0.02915 [     4]: 02121
      0.02124 [     0]: 01122
      0.02123 [    31]: 21210
      0.02023 [     6]: 10122
      0.01884 [     8]: 10221
      0.01791 [     2]: 01221
      0.01610 [    28]: 21111
      0.01402 [    22]: 20112
      0.01228 [    30]: 21201
      0.01214 [    11]: 11121
      0.01136 [     3]: 02112
      0.00896 [    29]: 21120
      0.00880 [     1]: 01212
      0.00711 [    23]: 20121
      0.00597 [    25]: 21012
      0.00592 [    10]: 11112
      0.00518 [     9]: 11022
      0.00475 [    24]: 20211
      0.00387 [     7]: 10212
      0.00314 [    27]: 21102
ROOT  42:  E=   -2879.9226084165 Eh  4.674 eV  37694.5 cm**-1
      0.14490 [    29]: 21120
      0.11293 [    16]: 12021
      0.07718 [     9]: 11022
      0.06218 [    32]: 22011
      0.05822 [     0]: 01122
      0.05785 [    34]: 22110
      0.05514 [    26]: 21021
      0.05269 [    18]: 12111
      0.04572 [    19]: 12120
      0.03832 [    20]: 12201
      0.03295 [     4]: 02121
      0.03242 [    27]: 21102
      0.03134 [    11]: 11121
      0.02625 [     8]: 10221
      0.02337 [     5]: 02211
      0.02250 [     2]: 01221
      0.01508 [    17]: 12102
      0.01308 [    30]: 21201
      0.01238 [    24]: 20211
      0.01154 [    25]: 21012
      0.01099 [     6]: 10122
      0.01046 [    33]: 22101
      0.00932 [    12]: 11202
      0.00797 [    22]: 20112
      0.00727 [    23]: 20121
      0.00543 [    13]: 11211
      0.00497 [    31]: 21210
      0.00356 [    14]: 11220
      0.00339 [    28]: 21111
ROOT  43:  E=   -2879.9199459048 Eh  4.746 eV  38278.9 cm**-1
      0.20848 [    26]: 21021
      0.11985 [    29]: 21120
      0.11513 [     9]: 11022
      0.09892 [    18]: 12111
      0.09184 [     0]: 01122
      0.05185 [    34]: 22110
      0.04740 [    27]: 21102
      0.04004 [    11]: 11121
      0.03774 [    12]: 11202
      0.03732 [     2]: 01221
      0.03337 [    30]: 21201
      0.01673 [     5]: 02211
      0.01604 [    33]: 22101
      0.01307 [    20]: 12201
      0.01256 [    14]: 11220
      0.01214 [    19]: 12120
      0.00821 [    13]: 11211
      0.00678 [     3]: 02112
      0.00583 [    15]: 12012
      0.00567 [    31]: 21210
      0.00519 [    17]: 12102
      0.00425 [    10]: 11112
      0.00326 [     1]: 01212
      0.00295 [    16]: 12021
ROOT  44:  E=   -2879.9181066598 Eh  4.796 eV  38682.5 cm**-1
      0.11661 [     0]: 01122
      0.11210 [    26]: 21021
      0.09296 [    11]: 11121
      0.09005 [    16]: 12021
      0.08863 [    32]: 22011
      0.06002 [    29]: 21120
      0.05605 [    28]: 21111
      0.05344 [     9]: 11022
      0.05312 [     5]: 02211
      0.04722 [    10]: 11112
      0.03264 [    19]: 12120
      0.03069 [    20]: 12201
      0.02438 [     4]: 02121
      0.02084 [    27]: 21102
      0.01729 [    34]: 22110
      0.01407 [    24]: 20211
      0.01316 [    21]: 12210
      0.01132 [    17]: 12102
      0.01049 [     3]: 02112
      0.01014 [     7]: 10212
      0.00828 [    33]: 22101
      0.00777 [    30]: 21201
      0.00772 [    14]: 11220
      0.00593 [    12]: 11202
      0.00444 [    15]: 12012
      0.00330 [     8]: 10221
      0.00263 [    18]: 12111

                 <<<<<<<<<<<<<<<<<<INITIAL CI STATE CHECK>>>>>>>>>>>>>>>>>>

   E(CAS)= -2880.111612797 Eh DE=    0.000000e+00
   --- Energy gap subspaces: Ext-Act = 0.221   Act-Int = -0.054
   N(occ)=  1.20000 1.20000 1.20000 1.20000 1.20000
   ||g|| =     4.893838e-04 Max(G)=    2.018741e-04 Rot=125,123
                     ---- THE CAS-SCF GRADIENT HAS CONVERGED ----
                            --- FINALIZING ORBITALS ---
                    ---- DOING ONE FINAL ITERATION FOR PRINTING ----
   --- Forming Natural Orbitals
   --- Canonicalize Internal Space
   --- Canonicalize External Space

MACRO-ITERATION   2: 
   --- Inactive Energy E0 = -2864.33991806 Eh
   --- All densities will be recomputed
CI-ITERATION   0: 
 -2880.189567342   0.000000000000 (    0.00)
 -2880.187168573   0.000000000000
 -2880.185005755   0.000000000000
 -2880.181816884   0.000000000000
 -2880.180240484   0.000000000000
   CI-PROBLEM SOLVED
   DENSITIES MADE
CI-ITERATION   0: 
 -2880.094357211   0.000000000000 (    0.00)
 -2880.094110111   0.000000000000
 -2880.092890682   0.000000000000
 -2880.092761086   0.000000000000
 -2880.091722457   0.000000000000
 -2880.090871885   0.000000000000
 -2880.090717967   0.000000000000
 -2880.090060359   0.000000000000
 -2880.089587397   0.000000000000
 -2880.085796984   0.000000000000
 -2880.085793950   0.000000000000
 -2880.080466728   0.000000000000
 -2880.079836059   0.000000000000
 -2880.079791405   0.000000000000
 -2880.077670194   0.000000000000
 -2880.076982105   0.000000000000
 -2880.074539140   0.000000000000
 -2880.074121863   0.000000000000
 -2880.073179387   0.000000000000
 -2880.072241514   0.000000000000
 -2880.071413459   0.000000000000
 -2880.067310326   0.000000000000
 -2880.067140877   0.000000000000
 -2880.066798622   0.000000000000
 -2880.065558041   0.000000000000
 -2880.063472391   0.000000000000
 -2880.062344476   0.000000000000
 -2880.061883942   0.000000000000
 -2880.060987736   0.000000000000
 -2880.060907775   0.000000000000
 -2880.031739151   0.000000000000
 -2880.028587892   0.000000000000
 -2880.028464617   0.000000000000
 -2880.028315540   0.000000000000
 -2880.026722707   0.000000000000
 -2879.931199133   0.000000000000
 -2879.930464692   0.000000000000
 -2879.929506161   0.000000000000
 -2879.926800601   0.000000000000
 -2879.925335805   0.000000000000
 -2879.924612118   0.000000000000
 -2879.923234816   0.000000000000
 -2879.922608416   0.000000000000
 -2879.919945904   0.000000000000
 -2879.918106659   0.000000000000
   CI-PROBLEM SOLVED
   DENSITIES MADE
   E(CAS)= -2880.111612796 Eh DE=    5.911716e-10
   --- Energy gap subspaces: Ext-Act = 0.222   Act-Int = -0.053
   N(occ)=  1.20000 1.20000 1.20000 1.20000 1.20000
   ||g|| =     4.893839e-04 Max(G)=   -1.961818e-04 Rot=127,123
--------------
CASSCF RESULTS
--------------

Final CASSCF energy       : -2880.111612796 Eh  -78371.8213 eV

----------------
ORBITAL ENERGIES
----------------

  NO   OCC          E(Eh)            E(eV) 
   0   2.0000    -261.392195     -7112.8432 
   1   2.0000     -31.955692      -869.5586 
   2   2.0000     -27.435714      -746.5637 
   3   2.0000     -27.435539      -746.5590 
   4   2.0000     -27.435200      -746.5498 
   5   2.0000      -4.726816      -128.6232 
   6   2.0000      -4.726702      -128.6201 
   7   2.0000      -4.725388      -128.5843 
   8   2.0000      -4.725380      -128.5841 
   9   2.0000      -4.710856      -128.1889 
  10   2.0000      -4.710387      -128.1761 
  11   2.0000      -4.706575      -128.0724 
  12   2.0000      -4.706484      -128.0699 
  13   2.0000      -4.706460      -128.0693 
  14   2.0000      -4.706399      -128.0676 
  15   2.0000      -4.701683      -127.9393 
  16   2.0000      -4.701681      -127.9392 
  17   2.0000      -4.189590      -114.0045 
  18   2.0000      -2.771641       -75.4202 
  19   2.0000      -2.770448       -75.3877 
  20   2.0000      -2.769516       -75.3624 
  21   2.0000      -2.765174       -75.2442 
  22   2.0000      -2.765067       -75.2413 
  23   2.0000      -2.764244       -75.2189 
  24   2.0000      -2.763602       -75.2014 
  25   2.0000      -2.763483       -75.1982 
  26   2.0000      -2.763064       -75.1868 
  27   2.0000      -2.761443       -75.1427 
  28   2.0000      -2.760970       -75.1298 
  29   2.0000      -2.760357       -75.1131 
  30   2.0000      -2.759478       -75.0892 
  31   2.0000      -2.759172       -75.0809 
  32   2.0000      -2.758500       -75.0626 
  33   2.0000      -2.753124       -74.9163 
  34   2.0000      -2.747429       -74.7613 
  35   2.0000      -2.747161       -74.7541 
  36   2.0000      -2.745538       -74.7099 
  37   2.0000      -2.744917       -74.6930 
  38   2.0000      -2.744270       -74.6754 
  39   2.0000      -2.743604       -74.6573 
  40   2.0000      -2.743288       -74.6486 
[...]
 3 117   30167.9    331.5   0.000000004   0.00000   0.00018   0.00111   0.00059
 3 118   31368.1    318.8   0.000000001   0.00000   0.00011   0.00064   0.00035
 3 119   31396.2    318.5   0.000000001   0.00000   0.00029   0.00022   0.00033
 3 120   31404.0    318.4   0.000000000   0.00000   0.00001   0.00002   0.00003
 3 121   31433.0    318.1   0.000000000   0.00000   0.00000   0.00001   0.00000
 3 122   31475.3    317.7   0.000000000   0.00000   0.00001   0.00002   0.00003
 3 123   31480.3    317.7   0.000000000   0.00000   0.00002   0.00012   0.00006
 3 124   31550.7    317.0   0.000000000   0.00000   0.00016   0.00012   0.00019
 3 125   31552.1    316.9   0.000000000   0.00000   0.00027   0.00020   0.00031
 3 126   31562.7    316.8   0.000000002   0.00000   0.00011   0.00072   0.00038
 3 127   32089.6    311.6   0.000000000   0.00000   0.00001   0.00001   0.00002
 3 128   32090.1    311.6   0.000000004   0.00000   0.00078   0.00060   0.00091
 3 129   32092.5    311.6   0.000000000   0.00000   0.00006   0.00001   0.00004
 3 130   46100.9    216.9   0.000000000   0.00000   0.00000   0.00001   0.00000
 3 131   46124.3    216.8   0.000000000   0.00000   0.00002   0.00015   0.00008
 3 132   46129.2    216.8   0.000000000   0.00000   0.00000   0.00000   0.00000
 3 133   47226.5    211.7   0.000000000   0.00000   0.00003   0.00003   0.00004
 3 134   47226.6    211.7   0.000000000   0.00000   0.00005   0.00001   0.00002
 3 135   47252.1    211.6   0.000000000   0.00000   0.00000   0.00000   0.00000
 3 136   47792.0    209.2   0.000000000   0.00000   0.00002   0.00002   0.00003
 3 137   47792.4    209.2   0.000000000   0.00000   0.00022   0.00005   0.00015
 3 138   47794.3    209.2   0.000000000   0.00000   0.00003   0.00019   0.00010
 3 139   48288.8    207.1   0.000000000   0.00000   0.00001   0.00000   0.00000
 3 140   48321.0    206.9   0.000000000   0.00000   0.00017   0.00012   0.00020
 3 141   48328.0    206.9   0.000000000   0.00000   0.00001   0.00002   0.00000
 3 142   48403.4    206.6   0.000000000   0.00000   0.00004   0.00014   0.00009
 3 143   48404.9    206.6   0.000000008   0.00000   0.00085   0.00065   0.00099
 3 144   48405.2    206.6   0.000000000   0.00000   0.00028   0.00006   0.00021
 3 145   49312.8    202.8   0.000000000   0.00000   0.00000   0.00000   0.00001
 3 146   49314.7    202.8   0.000000001   0.00000   0.00011   0.00040   0.00027
 3 147   49314.8    202.8   0.000000000   0.00000   0.00008   0.00025   0.00004
 3 148   50220.1    199.1   0.000000000   0.00000   0.00000   0.00000   0.00000
 3 149   50252.3    199.0   0.000000000   0.00000   0.00018   0.00004   0.00014
 3 150   50270.3    198.9   0.000000005   0.00000   0.00066   0.00051   0.00076
 3 151   50529.0    197.9   0.000000000   0.00000   0.00000   0.00000   0.00000
 3 152   50592.0    197.7   0.000000000   0.00000   0.00005   0.00003   0.00003
 3 153   50662.7    197.4   0.000000000   0.00000   0.00005   0.00003   0.00005
 3 154   50662.8    197.4   0.000000000   0.00000   0.00008   0.00031   0.00015
 3 155   50665.1    197.4   0.000000000   0.00000   0.00008   0.00007   0.00011
 3 156   50686.6    197.3   0.000000003   0.00000   0.00048   0.00038   0.00056
 3 157   51184.3    195.4   0.000000001   0.00000   0.00008   0.00047   0.00025
 3 158   51308.6    194.9   0.000000000   0.00000   0.00000   0.00000   0.00000
 3 159   51317.1    194.9   0.000000000   0.00000   0.00006   0.00001   0.00004
 4  5     778.0   12853.4   0.000000166   0.00342   0.00800   0.05115   0.02714
 4  6     811.8   12317.6   0.000000000   0.00000   0.00002   0.00000   0.00005
 4  7     824.5   12129.1   0.000000000   0.00001   0.00236   0.00046   0.00177
 4  8     918.5   10886.8   0.000000000   0.00000   0.00066   0.00064   0.00073
 4  9     920.4   10865.1   0.000000000   0.00000   0.00027   0.00172   0.00093
 4 10    1442.3   6933.4   0.000000039   0.00044   0.01219   0.00946   0.01411
 4 11    1444.1   6924.5   0.000000001   0.00001   0.00270   0.00079   0.00190
 4 12    1522.1   6569.9   0.000000000   0.00000   0.00001   0.00006   0.00000
 4 13    1552.4   6441.5   0.000000006   0.00006   0.00102   0.00669   0.00358
 4 14    1570.9   6365.6   0.000000006   0.00006   0.00455   0.00357   0.00527
 4 15    2752.5   3633.1   0.000000001   0.00001   0.00227   0.00066   0.00151
 4 16    2759.2   3624.3   0.000000000   0.00000   0.00004   0.00002   0.00000
 4 17    2825.1   3539.8   0.000000017   0.00010   0.00129   0.00864   0.00471
 4 18    2874.1   3479.4   0.000000005   0.00003   0.00310   0.00231   0.00358
 4 19    2884.8   3466.5   0.000000002   0.00001   0.00239   0.00014   0.00200
 4 20    3640.3   2747.0   0.000000000   0.00000   0.00003   0.00022   0.00011
 4 21    3640.6   2746.8   0.000000000   0.00000   0.00004   0.00064   0.00033
 4 22    3669.8   2724.9   0.000000000   0.00000   0.00034   0.00014   0.00026
 4 23    3675.3   2720.9   0.000000002   0.00001   0.00175   0.00131   0.00203
 4 24    3681.7   2716.1   0.000000000   0.00000   0.00001   0.00017   0.00002
 4 25   18737.7    533.7   0.000000001   0.00000   0.00060   0.00046   0.00071
 4 26   18741.9    533.6   0.000000000   0.00000   0.00004   0.00000   0.00002
 4 27   18787.9    532.3   0.000000002   0.00000   0.00097   0.00021   0.00068
 4 28   19082.6    524.0   0.000000000   0.00000   0.00001   0.00000   0.00000
 4 29   19153.8    522.1   0.000000001   0.00000   0.00063   0.00049   0.00073
 4 30   19160.2    521.9   0.000000000   0.00000   0.00003   0.00004   0.00005
 4 31   19492.0    513.0   0.000000003   0.00000   0.00088   0.00067   0.00101
 4 32   19512.7    512.5   0.000000000   0.00000   0.00002   0.00001   0.00002
 4 33   19550.8    511.5   0.000000000   0.00000   0.00007   0.00046   0.00025
 4 34   19654.5    508.8   0.000000001   0.00000   0.00073   0.00017   0.00052
 4 35   19699.2    507.6   0.000000000   0.00000   0.00003   0.00001   0.00001
 4 36   19748.1    506.4   0.000000003   0.00000   0.00093   0.00072   0.00109
 4 37   19988.6    500.3   0.000000000   0.00000   0.00006   0.00023   0.00018
 4 38   20011.9    499.7   0.000000014   0.00001   0.00273   0.00061   0.00193
 4 39   20059.1    498.5   0.000000000   0.00000   0.00001   0.00001   0.00002
 4 40   20338.0    491.7   0.000000002   0.00000   0.00097   0.00022   0.00068
 4 41   20340.9    491.6   0.000000000   0.00000   0.00019   0.00013   0.00020
 4 42   20460.9    488.7   0.000000000   0.00000   0.00011   0.00009   0.00005
 4 43   20465.1    488.6   0.000000000   0.00000   0.00002   0.00000   0.00000
 4 44   20479.8    488.3   0.000000000   0.00000   0.00039   0.00006   0.00030
 4 45   20541.8    486.8   0.000000001   0.00000   0.00059   0.00044   0.00068
 4 46   20574.9    486.0   0.000000001   0.00000   0.00032   0.00039   0.00060
 4 47   20576.5    486.0   0.000000000   0.00000   0.00048   0.00010   0.00015
 4 48   20580.7    485.9   0.000000000   0.00000   0.00021   0.00014   0.00026
 4 49   20622.0    484.9   0.000000001   0.00000   0.00009   0.00088   0.00048
 4 50   20739.2    482.2   0.000000000   0.00000   0.00001   0.00000   0.00000
 4 51   20750.8    481.9   0.000000002   0.00000   0.00100   0.00025   0.00070
 4 52   20820.6    480.3   0.000000001   0.00000   0.00054   0.00042   0.00063
 4 53   20875.7    479.0   0.000000000   0.00000   0.00006   0.00053   0.00030
 4 54   20987.9    476.5   0.000000000   0.00000   0.00001   0.00001   0.00000
 4 55   21085.4    474.3   0.000000001   0.00000   0.00053   0.00011   0.00037
 4 56   21104.9    473.8   0.000000001   0.00000   0.00058   0.00045   0.00067
 4 57   21339.5    468.6   0.000000000   0.00000   0.00000   0.00000   0.00000
 4 58   21485.2    465.4   0.000000000   0.00000   0.00004   0.00001   0.00003
 4 59   21597.5    463.0   0.000000000   0.00000   0.00006   0.00039   0.00021
 4 60   21708.0    460.7   0.000000000   0.00000   0.00000   0.00000   0.00001
 4 61   21763.9    459.5   0.000000001   0.00000   0.00010   0.00082   0.00045
 4 62   21765.0    459.5   0.000000001   0.00000   0.00066   0.00018   0.00046
 4 63   21780.7    459.1   0.000000000   0.00000   0.00014   0.00009   0.00016
 4 64   22119.0    452.1   0.000000000   0.00000   0.00015   0.00004   0.00011
 4 65   22157.3    451.3   0.000000000   0.00000   0.00000   0.00000   0.00001
 4 66   22189.5    450.7   0.000000001   0.00000   0.00055   0.00042   0.00063
 4 67   22466.2    445.1   0.000000001   0.00000   0.00008   0.00053   0.00028
 4 68   22466.6    445.1   0.000000000   0.00000   0.00010   0.00008   0.00011
 4 69   22551.6    443.4   0.000000000   0.00000   0.00006   0.00000   0.00004
 4 70   22552.1    443.4   0.000000000   0.00000   0.00001   0.00000   0.00000
 4 71   22729.0    440.0   0.000000002   0.00000   0.00017   0.00109   0.00058
 4 72   22735.0    439.9   0.000000000   0.00000   0.00012   0.00009   0.00013
 4 73   23134.4    432.3   0.000000000   0.00000   0.00013   0.00010   0.00015
 4 74   23141.7    432.1   0.000000000   0.00000   0.00002   0.00020   0.00011
 4 75   23177.3    431.5   0.000000000   0.00000   0.00001   0.00000   0.00001
 4 76   23306.1    429.1   0.000000001   0.00000   0.00062   0.00015   0.00044
 4 77   23382.8    427.7   0.000000001   0.00000   0.00010   0.00060   0.00031
 4 78   23412.9    427.1   0.000000001   0.00000   0.00046   0.00036   0.00054
 4 79   23521.2    425.1   0.000000000   0.00000   0.00002   0.00006   0.00003
 4 80   23533.0    424.9   0.000000000   0.00000   0.00020   0.00016   0.00024
 4 81   23569.2    424.3   0.000000000   0.00000   0.00026   0.00006   0.00018
 4 82   23709.6    421.8   0.000000000   0.00000   0.00000   0.00000   0.00000
 4 83   23766.5    420.8   0.000000000   0.00000   0.00006   0.00029   0.00015
 4 84   23881.8    418.7   0.000000000   0.00000   0.00001   0.00001   0.00001
 4 85   24184.8    413.5   0.000000000   0.00000   0.00012   0.00009   0.00014
 4 86   24206.8    413.1   0.000000000   0.00000   0.00001   0.00001   0.00001
 4 87   24247.3    412.4   0.000000002   0.00000   0.00098   0.00020   0.00071
 4 88   24301.4    411.5   0.000000000   0.00000   0.00000   0.00000   0.00000
 4 89   24302.9    411.5   0.000000000   0.00000   0.00034   0.00007   0.00025
 4 90   24525.3    407.7   0.000000000   0.00000   0.00006   0.00035   0.00018
 4 91   24525.5    407.7   0.000000000   0.00000   0.00008   0.00048   0.00026
 4 92   24595.7    406.6   0.000000008   0.00001   0.00033   0.00196   0.00102
 4 93   24658.7    405.5   0.000000000   0.00000   0.00012   0.00009   0.00014
 4 94   24682.9    405.1   0.000000001   0.00000   0.00066   0.00011   0.00048
 4 95   24740.3    404.2   0.000000000   0.00000   0.00001   0.00001   0.00001
 4 96   24753.1    404.0   0.000000000   0.00000   0.00042   0.00007   0.00031
 4 97   25118.8    398.1   0.000000000   0.00000   0.00006   0.00035   0.00018
 4 98   25184.4    397.1   0.000000001   0.00000   0.00055   0.00042   0.00064
 4 99   25242.7    396.2   0.000000000   0.00000   0.00001   0.00000   0.00001
 4 100   25833.4    387.1   0.000000002   0.00000   0.00079   0.00014   0.00058
 4 101   25839.2    387.0   0.000000000   0.00000   0.00014   0.00042   0.00015
 4 102   25911.4    385.9   0.000000000   0.00000   0.00019   0.00015   0.00022
 4 103   26178.9    382.0   0.000000000   0.00000   0.00000   0.00000   0.00000
 4 104   26221.9    381.4   0.000000001   0.00000   0.00072   0.00015   0.00051
 4 105   26280.3    380.5   0.000000000   0.00000   0.00006   0.00038   0.00019
 4 106   26406.1    378.7   0.000000002   0.00000   0.00064   0.00049   0.00075
 4 107   26413.7    378.6   0.000000000   0.00000   0.00003   0.00002   0.00003
 4 108   26457.5    378.0   0.000000000   0.00000   0.00034   0.00008   0.00024
 4 109   26736.3    374.0   0.000000000   0.00000   0.00005   0.00032   0.00017
 4 110   26745.7    373.9   0.000000000   0.00000   0.00018   0.00014   0.00021
 4 111   26957.7    371.0   0.000000000   0.00000   0.00000   0.00001   0.00001
 4 112   26964.8    370.9   0.000000000   0.00000   0.00033   0.00007   0.00024
 4 113   27075.5    369.3   0.000000000   0.00000   0.00005   0.00033   0.00018
 4 114   27099.9    369.0   0.000000000   0.00000   0.00010   0.00007   0.00011
 4 115   30130.9    331.9   0.000000004   0.00000   0.00021   0.00131   0.00069
 4 116   30133.6    331.9   0.000000000   0.00000   0.00005   0.00001   0.00003
 4 117   30134.8    331.8   0.000000000   0.00000   0.00000   0.00000   0.00000
 4 118   31335.1    319.1   0.000000000   0.00000   0.00002   0.00002   0.00002
 4 119   31363.1    318.8   0.000000000   0.00000   0.00006   0.00001   0.00001
 4 120   31370.9    318.8   0.000000001   0.00000   0.00051   0.00039   0.00059
 4 121   31399.9    318.5   0.000000001   0.00000   0.00009   0.00059   0.00031
 4 122   31442.2    318.0   0.000000000   0.00000   0.00016   0.00012   0.00019
 4 123   31447.2    318.0   0.000000000   0.00000   0.00000   0.00001   0.00000
 4 124   31517.6    317.3   0.000000001   0.00000   0.00015   0.00076   0.00037
 4 125   31519.0    317.3   0.000000001   0.00000   0.00002   0.00044   0.00028
 4 126   31529.6    317.2   0.000000000   0.00000   0.00000   0.00000   0.00000
 4 127   32056.6    311.9   0.000000001   0.00000   0.00009   0.00058   0.00031
 4 128   32057.0    311.9   0.000000000   0.00000   0.00010   0.00003   0.00006
 4 129   32059.4    311.9   0.000000001   0.00000   0.00049   0.00038   0.00057
 4 130   46067.8    217.1   0.000000000   0.00000   0.00005   0.00004   0.00006
 4 131   46091.2    217.0   0.000000000   0.00000   0.00000   0.00000   0.00000
 4 132   46096.1    216.9   0.000000000   0.00000   0.00001   0.00008   0.00004
 4 133   47193.4    211.9   0.000000000   0.00000   0.00007   0.00002   0.00004
 4 134   47193.5    211.9   0.000000000   0.00000   0.00001   0.00001   0.00002
 4 135   47219.1    211.8   0.000000000   0.00000   0.00000   0.00002   0.00001
 4 136   47758.9    209.4   0.000000000   0.00000   0.00022   0.00005   0.00015
 4 137   47759.3    209.4   0.000000000   0.00000   0.00003   0.00003   0.00004
 4 138   47761.2    209.4   0.000000000   0.00000   0.00000   0.00000   0.00000
 4 139   48255.7    207.2   0.000000001   0.00000   0.00032   0.00024   0.00037
 4 140   48287.9    207.1   0.000000000   0.00000   0.00006   0.00001   0.00003
 4 141   48295.0    207.1   0.000000000   0.00000   0.00000   0.00001   0.00001
 4 142   48370.3    206.7   0.000000000   0.00000   0.00002   0.00002   0.00003
 4 143   48371.8    206.7   0.000000000   0.00000   0.00014   0.00003   0.00011
 4 144   48372.1    206.7   0.000000009   0.00000   0.00100   0.00077   0.00117
 4 145   49279.7    202.9   0.000000001   0.00000   0.00008   0.00054   0.00027
 4 146   49281.6    202.9   0.000000000   0.00000   0.00004   0.00000   0.00003
 4 147   49281.7    202.9   0.000000000   0.00000   0.00010   0.00000   0.00009
 4 148   50187.0    199.3   0.000000000   0.00000   0.00002   0.00009   0.00005
 4 149   50219.3    199.1   0.000000001   0.00000   0.00036   0.00028   0.00042
 4 150   50237.2    199.1   0.000000000   0.00000   0.00022   0.00005   0.00017
 4 151   50495.9    198.0   0.000000000   0.00000   0.00001   0.00013   0.00006
 4 152   50558.9    197.8   0.000000000   0.00000   0.00012   0.00009   0.00014
 4 153   50629.6    197.5   0.000000000   0.00000   0.00005   0.00031   0.00016
 4 154   50629.7    197.5   0.000000000   0.00000   0.00010   0.00007   0.00011
 4 155   50632.0    197.5   0.000000001   0.00000   0.00035   0.00027   0.00041
 4 156   50653.5    197.4   0.000000000   0.00000   0.00005   0.00002   0.00005
 4 157   51151.2    195.5   0.000000000   0.00000   0.00000   0.00000   0.00000
 4 158   51275.5    195.0   0.000000000   0.00000   0.00005   0.00025   0.00015
 4 159   51284.0    195.0   0.000000005   0.00000   0.00073   0.00057   0.00085

------------------------------------------------------------------------------
                           SOC CORRECTED DIPOLE MOMENTS
------------------------------------------------------------------------------
      TX        TY        TZ           |T|
   (Debye)   (Debye)   (Debye)      (Debye)
------------------------------------------------------------------------------
   0.26343   0.21317   0.13170      0.36356

--------------
CASSCF TIMINGS
--------------

Total time                       ...     8721.3 sec
Sum of individual times          ...     8731.1 sec (100.1%)

Calculation of AO operators
   F(Core) operator              ...       45.3 sec (  0.5%)
   G(Act) operator               ...       41.5 sec (  0.5%)
   J(AO) operators               ...        0.0 sec (  0.0%)
Calculation of MO transformed quantities
   J(MO) operators               ...        4.0 sec (  0.0%)
   (pq|rs) integrals             ...        0.0 sec (  0.0%)
   AO->MO one electron integrals ...        0.1 sec (  0.0%)
Configuration interaction steps
   CI-setup phase                ...        0.0 sec (  0.0%)
   CI-solution phase             ...        0.1 sec (  0.0%)
   Generation of densities       ...        0.0 sec (  0.0%)
Orbital improvement steps
   Orbital gradient              ...        0.0 sec (  0.0%)
PT2 
   NEVPT2 time                   ...     8605.5 sec ( 98.7%)
Properties                       ...       18.2 sec (  0.2%)
   SOC integral calculation      ...       16.2 sec (  0.2%)
   SSC RMEs (incl. integrals)    ...        0.0 sec (  0.0%)
   SOC RMEs                      ...        0.1 sec (  0.0%)

Maximum memory used throughout the entire CASSCF-calculation: 1136.3 MB

-------------------------   --------------------
FINAL SINGLE POINT ENERGY     -2886.137512566104
-------------------------   --------------------


                            ***************************************
                            *     ORCA property calculations      *
                            ***************************************

                                    ---------------------
                                    Active property flags
                                    ---------------------
   (+) Dipole Moment


------------------------------------------------------------------------------
                       ORCA ELECTRIC PROPERTIES CALCULATION
------------------------------------------------------------------------------

Dipole Moment Calculation                       ... on
Quadrupole Moment Calculation                   ... off
Polarizability Calculation                      ... off
GBWName                                         ... nevpt2.gbw
Electron density                                ... nevpt2.scfp
The origin for moment calculation is the CENTER OF MASS  = (12.835020, 16.213821 12.135506)

-------------
DIPOLE MOMENT
-------------
                                X             Y             Z
Electronic contribution:      0.14318       0.10580       0.23250
Nuclear contribution   :      0.10390       0.08408       0.05212
                        -----------------------------------------
Total Dipole Moment    :      0.24708       0.18989       0.28462
                        -----------------------------------------
Magnitude (a.u.)       :      0.42204
Magnitude (Debye)      :      1.07273



--------------------
Rotational spectrum 
--------------------
 
Rotational constants in cm-1:     0.001767     0.001060     0.000968 
Rotational constants in MHz :    52.958543    31.782223    29.009440 

 Dipole components along the rotational axes: 
x,y,z [a.u.] :     0.002286     0.422029     0.000107 
x,y,z [Debye]:     0.005810     1.072713     0.000272 

 

Timings for individual modules:

Sum of individual times         ...     8747.243 sec (= 145.787 min)
GTO integral calculation        ...       12.552 sec (=   0.209 min)   0.1 %
SCF iterations                  ...        9.014 sec (=   0.150 min)   0.1 %
CASSCF iterations               ...     8725.678 sec (= 145.428 min)  99.8 %
                             ****ORCA TERMINATED NORMALLY****
TOTAL RUN TIME: 0 days 2 hours 25 minutes 48 seconds 298 msec
