
                                 *****************
                                 * O   R   C   A *
                                 *****************

                                            #,                                       
                                            ###                                      
                                            ####                                     
                                            #####                                    
                                            ######                                   
                                           ########,                                 
                                     ,,################,,,,,                         
                               ,,#################################,,                 
                          ,,##########################################,,             
                       ,#########################################, ''#####,          
                    ,#############################################,,   '####,        
                  ,##################################################,,,,####,       
                ,###########''''           ''''###############################       
              ,#####''   ,,,,##########,,,,          '''####'''          '####       
            ,##' ,,,,###########################,,,                        '##       
           ' ,,###''''                  '''############,,,                           
         ,,##''                                '''############,,,,        ,,,,,,###''
      ,#''                                            '''#######################'''  
     '                                                          ''''####''''         
             ,#######,   #######,   ,#######,      ##                                
            ,#'     '#,  ##    ##  ,#'     '#,    #''#        ######   ,####,        
            ##       ##  ##   ,#'  ##            #'  '#       #        #'  '#        
            ##       ##  #######   ##           ,######,      #####,   #    #        
            '#,     ,#'  ##    ##  '#,     ,#' ,#      #,         ##   #,  ,#        
             '#######'   ##     ##  '#######'  #'      '#     #####' # '####'        



                  #######################################################
                  #                        -***-                        #
                  #          Department of theory and spectroscopy      #
                  #    Directorship and core code : Frank Neese         #
                  #        Max Planck Institute fuer Kohlenforschung    #
                  #                Kaiser Wilhelm Platz 1               #
                  #                 D-45470 Muelheim/Ruhr               #
                  #                      Germany                        #
                  #                                                     #
                  #                  All rights reserved                #
                  #                        -***-                        #
                  #######################################################


                         Program Version 5.0.3 -  RELEASE  -


 With contributions from (in alphabetic order):
   Daniel Aravena         : Magnetic Suceptibility
   Michael Atanasov       : Ab Initio Ligand Field Theory (pilot matlab implementation)
   Alexander A. Auer      : GIAO ZORA, VPT2 properties, NMR spectrum
   Ute Becker             : Parallelization
   Giovanni Bistoni       : ED, misc. LED, open-shell LED, HFLD
   Martin Brehm           : Molecular dynamics
   Dmytro Bykov           : SCF Hessian
   Vijay G. Chilkuri      : MRCI spin determinant printing, contributions to CSF-ICE
   Dipayan Datta          : RHF DLPNO-CCSD density
   Achintya Kumar Dutta   : EOM-CC, STEOM-CC
   Dmitry Ganyushin       : Spin-Orbit,Spin-Spin,Magnetic field MRCI
   Miquel Garcia          : C-PCM and meta-GGA Hessian, CC/C-PCM, Gaussian charge scheme
   Yang Guo               : DLPNO-NEVPT2, F12-NEVPT2, CIM, IAO-localization
   Andreas Hansen         : Spin unrestricted coupled pair/coupled cluster methods
   Benjamin Helmich-Paris : MC-RPA, TRAH-SCF, COSX integrals
   Lee Huntington         : MR-EOM, pCC
   Robert Izsak           : Overlap fitted RIJCOSX, COSX-SCS-MP3, EOM
   Marcus Kettner         : VPT2
   Christian Kollmar      : KDIIS, OOCD, Brueckner-CCSD(T), CCSD density, CASPT2, CASPT2-K
   Simone Kossmann        : Meta GGA functionals, TD-DFT gradient, OOMP2, MP2 Hessian
   Martin Krupicka        : Initial AUTO-CI
   Lucas Lang             : DCDCAS
   Marvin Lechner         : AUTO-CI (C++ implementation), FIC-MRCC
   Dagmar Lenk            : GEPOL surface, SMD
   Dimitrios Liakos       : Extrapolation schemes; Compound Job, initial MDCI parallelization
   Dimitrios Manganas     : Further ROCIS development; embedding schemes
   Dimitrios Pantazis     : SARC Basis sets
   Anastasios Papadopoulos: AUTO-CI, single reference methods and gradients
   Taras Petrenko         : DFT Hessian,TD-DFT gradient, ASA, ECA, R-Raman, ABS, FL, XAS/XES, NRVS
   Peter Pinski           : DLPNO-MP2, DLPNO-MP2 Gradient
   Christoph Reimann      : Effective Core Potentials
   Marius Retegan         : Local ZFS, SOC
   Christoph Riplinger    : Optimizer, TS searches, QM/MM, DLPNO-CCSD(T), (RO)-DLPNO pert. Triples
   Tobias Risthaus        : Range-separated hybrids, TD-DFT gradient, RPA, STAB
   Michael Roemelt        : Original ROCIS implementation
   Masaaki Saitow         : Open-shell DLPNO-CCSD energy and density
   Barbara Sandhoefer     : DKH picture change effects
   Avijit Sen             : IP-ROCIS
   Kantharuban Sivalingam : CASSCF convergence, NEVPT2, FIC-MRCI
   Bernardo de Souza      : ESD, SOC TD-DFT
   Georgi Stoychev        : AutoAux, RI-MP2 NMR, DLPNO-MP2 response
   Willem Van den Heuvel  : Paramagnetic NMR
   Boris Wezisla          : Elementary symmetry handling
   Frank Wennmohs         : Technical directorship


 We gratefully acknowledge several colleagues who have allowed us to
 interface, adapt or use parts of their codes:
   Stefan Grimme, W. Hujo, H. Kruse, P. Pracht,  : VdW corrections, initial TS optimization,
                  C. Bannwarth, S. Ehlert          DFT functionals, gCP, sTDA/sTD-DF
   Ed Valeev, F. Pavosevic, A. Kumar             : LibInt (2-el integral package), F12 methods
   Garnet Chan, S. Sharma, J. Yang, R. Olivares  : DMRG
   Ulf Ekstrom                                   : XCFun DFT Library
   Mihaly Kallay                                 : mrcc  (arbitrary order and MRCC methods)
   Jiri Pittner, Ondrej Demel                    : Mk-CCSD
   Frank Weinhold                                : gennbo (NPA and NBO analysis)
   Christopher J. Cramer and Donald G. Truhlar   : smd solvation model
   Lars Goerigk                                  : TD-DFT with DH, B97 family of functionals
   V. Asgeirsson, H. Jonsson                     : NEB implementation
   FAccTs GmbH                                   : IRC, NEB, NEB-TS, DLPNO-Multilevel, CI-OPT
                                                   MM, QMMM, 2- and 3-layer-ONIOM, Crystal-QMMM,
                                                   LR-CPCM, SF, NACMEs, symmetry and pop. for TD-DFT,
                                                   nearIR, NL-DFT gradient (VV10), updates on ESD,
                                                   ML-optimized integration grids
   S Lehtola, MJT Oliveira, MAL Marques          : LibXC Library
   Liviu Ungur et al                             : ANISO software


 Your calculation uses the libint2 library for the computation of 2-el integrals
 For citations please refer to: http://libint.valeyev.net

 Your ORCA version has been built with support for libXC version: 5.1.0
 For citations please refer to: https://tddft.org/programs/libxc/

 This ORCA versions uses:
   CBLAS   interface :  Fast vector & matrix operations
   LAPACKE interface :  Fast linear algebra routines
   SCALAPACK package :  Parallel linear algebra routines
   Shared memory     :  Shared parallel matrices
   BLAS/LAPACK       :  OpenBLAS 0.3.15  USE64BITINT DYNAMIC_ARCH NO_AFFINITY Haswell SINGLE_THREADED
        Core in use  :  Haswell
   Copyright (c) 2011-2014, The OpenBLAS Project




***************************************
The coordinates will be read from file: pbe.xyz
***************************************


================================================================================

cite the ECPs for Au [Def2-ECP] as follows:
Ce-Yb(ecp-28): M. Dolg, H. Stoll, H.Preuss, J. Chem. Phys., 1989, 90, 1730-1734.
Y-Cd(ecp-28), Hf-Hg(ecp-46): D. Andrae,U. Haeussermann, M. Dolg, H. Stoll, H. Preuss, Theor. Chim. Acta, 1990, 77, 123-141.
In-Sb(ecp-28), Tl-Bi(ecp-46): B. Metz, H. Stoll, M. Dolg, J. Chem. Phys., 2000, 113, 2563-2569.
Te-Xe(ecp-28), Po-Rn(ecp-46): K. A. Peterson, D. Figgen, E. Goll, H. Stoll, M. Dolg, J. Chem. Phys., 2003, 119, 11113-11123.
Rb(ecp-28), Cs(ecp-46): T. Leininger, A. Nicklass, W. Kuechle, H. Stoll, M. Dolg, A. Bergner, Chem. Phys. Lett., 1996, 255, 274-280.
Sr(ecp-28), Ba(ecp-46): M. Kaupp, P. V. Schleyer, H. Stoll and H. Preuss, J. Chem. Phys., 1991, 94, 1360-1366.
La(ecp-46): M. Dolg, H. Stoll, A. Savin, H. Preuss, Theor. Chim. Acta, 1989, 75, 173-194.
Lu(ecp-28): X. Cao, M. Dolg, J. Chem. Phys., 2001, 115, 7348-7355.

ECP parameters for Au [Def2-ECP] have been obtained from:
TURBOMOLE (7.0.2)

----- Orbital basis set information -----
Your calculation utilizes the basis: def2-TZVP
   F. Weigend and R. Ahlrichs, Phys. Chem. Chem. Phys. 7, 3297 (2005).

----- AuxJ basis set information -----
Your calculation utilizes the auxiliary basis: def2/J
   F. Weigend, Phys. Chem. Chem. Phys. 8, 1057 (2006).

----- AuxC basis set information -----
Your calculation utilizes the auxiliary basis: def2-TZVP/C
  H-La, Hf-Rn : A. Hellweg, C. Hattig, S. Hofener and W. Klopper, Theor. Chem. Acc. 117, 587 (2007).
        Ce-Lu : J. Chmela and M. E. Harding, Mol. Phys. (2018).

================================================================================
                                        WARNINGS
                       Please study these warnings very carefully!
================================================================================


IMPORTANT NOTE: CASSCF must signal convergence for a subsequent CASPT2/NEVPT2! 
                Set maxiter=1 to run CASPT2/NEVPT2 with arbitrary orbitals.


INFO   : the flag for use of the SHARK integral package has been found!

================================================================================
                                       INPUT FILE
================================================================================
NAME = nevpt2.inp
|  1> !SC-NEVPT2 def2-TZVP def2-TZVP/C
|  2> !MOREAD RIJCOSX def2/J
|  3> %maxcore 4000
|  4> %moinp "casscf.gbw"
|  5> %pal nprocs 8 end 
|  6> 
|  7> %casscf
|  8>  mult 5,3
|  9>  bweight 1,1
| 10>  nroots 5,45
| 11>  nel 6
| 12>  norb 5
| 13>  ptsettings
| 14>   d4tpre 1e-14 # default = 1e-10
| 15>   d3tpre 1e-14
| 16>  end
| 17>  rel           
| 18>    dosoc true   
| 19>    gtensor true 
| 20>  end           
| 21> end
| 22> 
| 23> 
| 24> *xyzfile 0 5 pbe.xyz
| 25> 
| 26> 
| 27>                          ****END OF INPUT****
================================================================================

                       ****************************
                       * Single Point Calculation *
                       ****************************

---------------------------------
CARTESIAN COORDINATES (ANGSTROEM)
---------------------------------
  Au    10.011457    7.065733   10.487436
  Au     9.873189    4.281234   10.772495
  Au     7.428637    7.272020   11.469395
  Au     7.320504    4.488373   11.746587
  Au     5.385613    5.652747   10.146307
  Au     7.224322    9.112071    6.632718
  Au     8.161466    8.635301    9.202756
  Au     5.973222    7.137384    8.050946
  Au     8.810620    6.911329    6.973370
  Au    10.420799    5.252424    8.237934
  Cr     7.968217    5.680373    9.315708

----------------------------
CARTESIAN COORDINATES (A.U.)
----------------------------
  NO LB      ZA    FRAG     MASS         X           Y           Z
   0 Au   19.0000*   0   196.966   18.918913   13.352300   19.818382
   1 Au   19.0000*   0   196.966   18.657624    8.090360   20.357065
   2 Au   19.0000*   0   196.966   14.038089   13.742127   21.674015
   3 Au   19.0000*   0   196.966   13.833749    8.481796   22.197832
   4 Au   19.0000*   0   196.966   10.177334   10.682144   19.173741
   5 Au   19.0000*   0   196.966   13.651990   17.219320   12.534020
   6 Au   19.0000*   0   196.966   15.422935   16.318355   17.390688
   7 Au   19.0000*   0   196.966   11.287753   13.487701   15.214083
   8 Au   19.0000*   0   196.966   16.649659   13.060519   13.177759
   9 Au   19.0000*   0   196.966   19.692456    9.925642   15.567439
  10 Cr   24.0000    0    52.000   15.057747   10.734349   17.604137
* core charge reduced due to ECP

--------------------------------
INTERNAL COORDINATES (ANGSTROEM)
--------------------------------
 Au     0   0   0     0.000000000000     0.00000000     0.00000000
 Au     1   0   0     2.802464797507     0.00000000     0.00000000
 Au     1   2   0     2.770876995535    89.53788883     0.00000000
 Au     2   1   3     2.740066098075    90.40179281   359.92491994
 Au     4   2   1     2.767754920688   118.52445130    59.51925842
 Au     1   2   3     5.178269654009   116.21928127   287.57556389
 Au     3   1   2     2.744671875561    59.69759859   227.19740994
 Au     5   4   2     2.634381267333   122.75428508   342.91939070
 Au     6   1   2     2.734163586584    43.68906344   318.52993826
 Au     9   6   1     2.635102771913   157.07679787   358.19171630
 Cr    10   9   6     2.712912994820    62.54373868    59.13406470

---------------------------
INTERNAL COORDINATES (A.U.)
---------------------------
 Au     0   0   0     0.000000000000     0.00000000     0.00000000
 Au     1   0   0     5.295890967243     0.00000000     0.00000000
 Au     1   2   0     5.236198672344    89.53788883     0.00000000
 Au     2   1   3     5.177974514203    90.40179281   359.92491994
 Au     4   2   1     5.230298805913   118.52445130    59.51925842
 Au     1   2   3     9.785511493673   116.21928127   287.57556389
 Au     3   1   2     5.186678172287    59.69759859   227.19740994
 Au     5   4   2     4.978259127592   122.75428508   342.91939070
 Au     6   1   2     5.166820383984    43.68906344   318.52993826
 Au     9   6   1     4.979622573652   157.07679787   358.19171630
 Cr    10   9   6     5.126662585366    62.54373868    59.13406470

---------------------
BASIS SET INFORMATION
---------------------
There are 2 groups of distinct atoms

 Group   1 Type Au  : 8s7p6d1f contracted to 6s4p3d1f pattern {311111/4111/411/1}
 Group   2 Type Cr  : 17s11p7d1f contracted to 6s4p4d1f pattern {842111/6311/4111/1}

Atom   0Au   basis set group =>   1
Atom   1Au   basis set group =>   1
Atom   2Au   basis set group =>   1
Atom   3Au   basis set group =>   1
Atom   4Au   basis set group =>   1
Atom   5Au   basis set group =>   1
Atom   6Au   basis set group =>   1
Atom   7Au   basis set group =>   1
Atom   8Au   basis set group =>   1
Atom   9Au   basis set group =>   1
Atom  10Cr   basis set group =>   2
---------------------------------
AUXILIARY/J BASIS SET INFORMATION
---------------------------------
There are 2 groups of distinct atoms

 Group   1 Type Au  : 11s5p5d3f3g contracted to 8s5p5d2f3g pattern {41111111/11111/11111/21/111}
 Group   2 Type Cr  : 19s5p5d3f3g contracted to 8s5p5d2f3g pattern {121111111/11111/11111/21/111}

Atom   0Au   basis set group =>   1
Atom   1Au   basis set group =>   1
Atom   2Au   basis set group =>   1
Atom   3Au   basis set group =>   1
Atom   4Au   basis set group =>   1
Atom   5Au   basis set group =>   1
Atom   6Au   basis set group =>   1
Atom   7Au   basis set group =>   1
Atom   8Au   basis set group =>   1
Atom   9Au   basis set group =>   1
Atom  10Cr   basis set group =>   2
---------------------------------
AUXILIARY/C BASIS SET INFORMATION
---------------------------------
There are 2 groups of distinct atoms

 Group   1 Type Au  : 8s8p7d5f3g2h contracted to 8s8p7d5f3g2h pattern {11111111/11111111/1111111/11111/111/11}
 Group   2 Type Cr  : 11s9p8d6f5g2h contracted to 9s8p8d6f5g2h pattern {311111111/21111111/11111111/111111/11111/11}

Atom   0Au   basis set group =>   1
Atom   1Au   basis set group =>   1
Atom   2Au   basis set group =>   1
Atom   3Au   basis set group =>   1
Atom   4Au   basis set group =>   1
Atom   5Au   basis set group =>   1
Atom   6Au   basis set group =>   1
Atom   7Au   basis set group =>   1
Atom   8Au   basis set group =>   1
Atom   9Au   basis set group =>   1
Atom  10Cr   basis set group =>   2
-------------------------
ECP PARAMETER INFORMATION
-------------------------

 Group 1, Type Au ECP Def2-ECP (replacing 60 core electrons, lmax=3)

Atom   0Au   ECP group =>   1
Atom   1Au   ECP group =>   1
Atom   2Au   ECP group =>   1
Atom   3Au   ECP group =>   1
Atom   4Au   ECP group =>   1
Atom   5Au   ECP group =>   1
Atom   6Au   ECP group =>   1
Atom   7Au   ECP group =>   1
Atom   8Au   ECP group =>   1
Atom   9Au   ECP group =>   1



           ************************************************************
           *        Program running with 8 parallel MPI-processes     *
           *              working on a common directory               *
           ************************************************************
------------------------------------------------------------------------------
                           ORCA GTO INTEGRAL CALCULATION
                           -- RI-GTO INTEGRALS CHOSEN --
------------------------------------------------------------------------------
------------------------------------------------------------------------------
                   ___                                                        
                  /   \      - P O W E R E D   B Y -                         
                 /     \                                                     
                 |  |  |   _    _      __       _____    __    __             
                 |  |  |  | |  | |    /  \     |  _  \  |  |  /  |          
                  \  \/   | |  | |   /    \    | | | |  |  | /  /          
                 / \  \   | |__| |  /  /\  \   | |_| |  |  |/  /          
                |  |  |   |  __  | /  /__\  \  |    /   |      \           
                |  |  |   | |  | | |   __   |  |    \   |  |\   \          
                \     /   | |  | | |  |  |  |  | |\  \  |  | \   \       
                 \___/    |_|  |_| |__|  |__|  |_| \__\ |__|  \__/        
                                                                              
                      - O R C A' S   B I G   F R I E N D -                    
                                      &                                       
                       - I N T E G R A L  F E E D E R -                       
                                                                              
 v1 FN, 2020, v2 2021                                                         
------------------------------------------------------------------------------


Reading SHARK input file nevpt2.SHARKINP.tmp ... ok
----------------------
SHARK INTEGRAL PACKAGE
----------------------

Number of atoms                             ...     11
Number of basis functions                   ...    445
Number of shells                            ...    155
Maximum angular momentum                    ...      3
Integral batch strategy                     ... SHARK/LIBINT Hybrid
RI-J (if used) integral strategy            ... SPLIT-RIJ (Revised 2003 algorithm where possible)
Printlevel                                  ...      1
Contraction scheme used                     ... SEGMENTED contraction
Coulomb Range Separation                    ... NOT USED
Exchange Range Separation                   ... NOT USED
Finite Nucleus Model                        ... NOT USED
Auxiliary Coulomb fitting basis             ... AVAILABLE
   # of basis functions in Aux-J            ...    979
   # of shells in Aux-J                     ...    253
   Maximum angular momentum in Aux-J        ...      4
Auxiliary J/K fitting basis                 ... NOT available
Auxiliary Correlation fitting basis         ... AVAILABLE
   # of basis functions in Aux-C            ...   1692
   # of shells in Aux-C                     ...    368
   Maximum angular momentum in Aux-C        ...      5
Auxiliary 'external' fitting basis          ... NOT available
Integral threshold                          ...     1.000000e-10
Primitive cut-off                           ...     1.000000e-11
Primitive pair pre-selection threshold      ...     1.000000e-11

Calculating pre-screening integrals         ... done (  0.1 sec) Dimension = 155
Organizing shell pair data                  ... done (  0.2 sec)
Shell pair information
Total number of shell pairs                 ...     12090
Shell pairs after pre-screening             ...      9966
Total number of primitive shell pairs       ...     33105
Primitive shell pairs kept                  ...     20173
          la=0 lb=0:   1563 shell pairs
          la=1 lb=0:   2256 shell pairs
          la=1 lb=1:    859 shell pairs
          la=2 lb=0:   1971 shell pairs
          la=2 lb=1:   1388 shell pairs
          la=2 lb=2:    569 shell pairs
          la=3 lb=0:    551 shell pairs
          la=3 lb=1:    406 shell pairs
          la=3 lb=2:    346 shell pairs
          la=3 lb=3:     57 shell pairs

Calculating one electron integrals          ... done (  0.0 sec)
Calculating ECP integrals                   ... done (  4.0 sec)
Calculating RI/J V-Matrix + Cholesky decomp.... done (  0.0 sec)
Calculating RI/C V-Matrix + Cholesky decomp.... done (  0.1 sec)
Calculating Nuclear repulsion               ... done (  0.0 sec) ENN=   3144.347149470555 Eh

SHARK setup successfully completed in   4.5 seconds

Maximum memory used throughout the entire GTOINT-calculation: 30.0 MB


           ************************************************************
           *        Program running with 8 parallel MPI-processes     *
           *              working on a common directory               *
           ************************************************************
-------------------------------------------------------------------------------
                                 ORCA SCF
-------------------------------------------------------------------------------

------------
SCF SETTINGS
------------
Hamiltonian:
 Ab initio Hamiltonian  Method          .... Hartree-Fock(GTOs)
 RI-approximation to the Coulomb term is turned on
   Number of AuxJ basis functions       .... 979
   RIJ-COSX (HFX calculated with COS-X)).... on


General Settings:
 Integral files         IntName         .... nevpt2
 Hartree-Fock type      HFTyp           .... CASSCF
 Total Charge           Charge          ....    0
 Multiplicity           Mult            ....    5
 Number of Electrons    NEL             ....  214
 Basis Dimension        Dim             ....  445
 Nuclear Repulsion      ENuc            ....   3144.3471494706 Eh


Diagonalization of the overlap matrix:
Smallest eigenvalue                        ... 3.038e-04
Time for diagonalization                   ...    0.045 sec
Threshold for overlap eigenvalues          ... 1.000e-08
Number of eigenvalues below threshold      ... 0
Time for construction of square roots      ...    0.026 sec
Total time needed                          ...    0.073 sec

---------------------
INITIAL GUESS: MOREAD
---------------------
Guess MOs are being read from file: casscf.gbw
Input Geometry matches current geometry (good)
Input basis set matches current basis set (good)
MOs were renormalized
Gram-Schmidt orthogonalization of all MOs with pivot on actives
                      ------------------
                      INITIAL GUESS DONE (   0.7 sec)
                      ------------------
--------------------
COSX GRID GENERATION
--------------------

GRIDX 1
-------
General Integration Accuracy     IntAcc      ... 3.816
Radial Grid Type                 RadialGrid  ... OptM3 with GC (2021)
Angular Grid (max. ang.)         AngularGrid ... 1 (Lebedev-50)
Angular grid pruning method      GridPruning ... 4 (adaptive)
Weight generation scheme         WeightScheme... Becke
Basis function cutoff            BFCut       ... 1.0000e-10
Integration weight cutoff        WCut        ... 1.0000e-14
Angular grids for H and He will be reduced by one unit
Partially contracted basis set               ... on
Rotationally invariant grid construction     ... off

Total number of grid points                  ...    13006
Total number of batches                      ...      207
Average number of points per batch           ...       62
Average number of grid points per atom       ...     1182
UseSFitting                                  ... on

GRIDX 2
-------
General Integration Accuracy     IntAcc      ... 4.020
Radial Grid Type                 RadialGrid  ... OptM3 with GC (2021)
Angular Grid (max. ang.)         AngularGrid ... 2 (Lebedev-110)
Angular grid pruning method      GridPruning ... 4 (adaptive)
Weight generation scheme         WeightScheme... Becke
Basis function cutoff            BFCut       ... 1.0000e-10
Integration weight cutoff        WCut        ... 1.0000e-14
Angular grids for H and He will be reduced by one unit
Partially contracted basis set               ... on
Rotationally invariant grid construction     ... off

Total number of grid points                  ...    39385
Total number of batches                      ...      623
Average number of points per batch           ...       63
Average number of grid points per atom       ...     3580
UseSFitting                                  ... on

GRIDX 3
-------
General Integration Accuracy     IntAcc      ... 4.338
Radial Grid Type                 RadialGrid  ... OptM3 with GC (2021)
Angular Grid (max. ang.)         AngularGrid ... 3 (Lebedev-194)
Angular grid pruning method      GridPruning ... 4 (adaptive)
Weight generation scheme         WeightScheme... Becke
Basis function cutoff            BFCut       ... 1.0000e-10
Integration weight cutoff        WCut        ... 1.0000e-14
Angular grids for H and He will be reduced by one unit
Partially contracted basis set               ... on
Rotationally invariant grid construction     ... off

Total number of grid points                  ...    72445
Total number of batches                      ...     1137
Average number of points per batch           ...       63
Average number of grid points per atom       ...     6586
UseSFitting                                  ... on

Time for X-Grid setup             =    0.711 sec



 ... the calculation is a CASSCF calculation -I'm leaving here GOOD LUCK!!!



           ************************************************************
           *        Program running with 8 parallel MPI-processes     *
           *              working on a common directory               *
           ************************************************************
-------------------------------------------------------------------------------
                              ORCA-CASSCF
-------------------------------------------------------------------------------

Setting up the integral package       ... done
Setting up the integral package (RI)  ... done
Building the CAS space                ... done (5 configurations for Mult=5)
Building the CAS space                ... done (35 configurations for Mult=3)

 CASSCF (estimated) memory needed     ... 81.6 MB
 NEVPT2 (estimated) memory needed     ... 243.1 MB


SYSTEM-SPECIFIC SETTINGS:
Number of active electrons          ...    6
Number of active orbitals           ...    5
Total number of electrons           ...  214
Total number of orbitals            ...  445
Total number aux. functions         ... 1692

Determined orbital ranges:
   Internal       0 -  103 ( 104 orbitals)
   Active       104 -  108 (   5 orbitals)
   External     109 -  444 ( 336 orbitals)
Number of rotation parameters      ...  37144

CI-STEP:
CI strategy                         ... General CI
Number of multiplicity blocks       ...    2
BLOCK  1 WEIGHT=   0.5000
  Multiplicity                      ...    5
  #(Configurations)                 ...    5
  #(CSFs)                           ...    5
  #(Roots)                          ...    5
    ROOT=0 WEIGHT=    0.100000
    ROOT=1 WEIGHT=    0.100000
    ROOT=2 WEIGHT=    0.100000
    ROOT=3 WEIGHT=    0.100000
    ROOT=4 WEIGHT=    0.100000

BLOCK  2 WEIGHT=   0.5000
  Multiplicity                      ...    3
  #(Configurations)                 ...   35
  #(CSFs)                           ...   45
  #(Roots)                          ...   45
    ROOT=0 WEIGHT=    0.011111
    ROOT=1 WEIGHT=    0.011111
    ROOT=2 WEIGHT=    0.011111
    ROOT=3 WEIGHT=    0.011111
    ROOT=4 WEIGHT=    0.011111
    ROOT=5 WEIGHT=    0.011111
    ROOT=6 WEIGHT=    0.011111
    ROOT=7 WEIGHT=    0.011111
    ROOT=8 WEIGHT=    0.011111
    ROOT=9 WEIGHT=    0.011111
    ROOT=10 WEIGHT=    0.011111
    ROOT=11 WEIGHT=    0.011111
    ROOT=12 WEIGHT=    0.011111
    ROOT=13 WEIGHT=    0.011111
    ROOT=14 WEIGHT=    0.011111
    ROOT=15 WEIGHT=    0.011111
    ROOT=16 WEIGHT=    0.011111
    ROOT=17 WEIGHT=    0.011111
    ROOT=18 WEIGHT=    0.011111
    ROOT=19 WEIGHT=    0.011111
    ROOT=20 WEIGHT=    0.011111
    ROOT=21 WEIGHT=    0.011111
    ROOT=22 WEIGHT=    0.011111
    ROOT=23 WEIGHT=    0.011111
    ROOT=24 WEIGHT=    0.011111
    ROOT=25 WEIGHT=    0.011111
    ROOT=26 WEIGHT=    0.011111
    ROOT=27 WEIGHT=    0.011111
    ROOT=28 WEIGHT=    0.011111
    ROOT=29 WEIGHT=    0.011111
    ROOT=30 WEIGHT=    0.011111
    ROOT=31 WEIGHT=    0.011111
    ROOT=32 WEIGHT=    0.011111
    ROOT=33 WEIGHT=    0.011111
    ROOT=34 WEIGHT=    0.011111
    ROOT=35 WEIGHT=    0.011111
    ROOT=36 WEIGHT=    0.011111
    ROOT=37 WEIGHT=    0.011111
    ROOT=38 WEIGHT=    0.011111
    ROOT=39 WEIGHT=    0.011111
    ROOT=40 WEIGHT=    0.011111
    ROOT=41 WEIGHT=    0.011111
    ROOT=42 WEIGHT=    0.011111
    ROOT=43 WEIGHT=    0.011111
    ROOT=44 WEIGHT=    0.011111

  PrintLevel                        ...    1
  N(GuessMat)                       ...       512
  MaxDim(CI)                        ...        10
  MaxIter(CI)                       ...        64
  Energy Tolerance CI               ...  1.00e-08
  Residual Tolerance CI             ...  1.00e-08
  Shift(CI)                         ...  1.00e-04

INTEGRAL-TRANSFORMATION-STEP:
  Algorithm                         ... RI-MO

ORBITAL-IMPROVEMENT-STEP:
  Algorithm                         ... SuperCI(PT)
  Default Parametrization           ... CAYLEY
  Act-Act rotations                 ... depends on algorithm used

  Note: SuperCI(PT) will ignore FreezeIE, FreezeAct and FreezeGrad. In general Default settings are encouraged.
        In conjunction with ShiftUp, ShiftDn or GradScaling the performance of SuperCI(PT) is less optimal.  

  MaxRot                            ... 2.00e-01 
  Max. no of vectors (DIIS)         ... 15
  DThresh (cut-off) metric          ... 1.00e-06
  Switch step at gradient           ...  3.00e-02 
  Switch step at iteration          ...        50   
  Switch step to                    ... SuperCI(PT)    

SCF-SETTINGS:
  Incremental                       ... off
  RIJCOSX approximation             ... on
  UseFinalGrid                      ... on
  RI-JK approximation               ... off
  AO integral handling              ... DIRECT
  Integral Neglect Thresh           ...  1.00e-10
  Primitive cutoff TCut             ...  1.00e-11
  Energy convergence tolerance      ...  1.00e-07
  Orbital gradient convergence      ...  1.00e-03
  Max. number of iterations         ...        75  

PT2-SETTINGS:
  A PT2 calculation will be performed on top of the CASSCF wave function (PT2 = SC-NEVPT2)   
 CI step strategy                   ... General CI
  D4C handling                      ... on the fly 
  CI truncation for D4C at          ...  1.00e-14
  CI truncation for D3  at          ...  1.00e-14
  Orbitals                          ... canonical for each state 
  Last  frozen  orbital             ... 4
  First deleted orbital             ... 445
  RI Step                           ... store IJV(array) (MC_ONDISK during integral transformation) 

PROPERTIES-SETTINGS:
  Spin orbit coupling               ... true
  GTensor                           ... true
  QDPT diagonal energies            ... NEVPT2 energies 

FINAL ORBITALS:
  Active   Orbitals                 ... natural 
  Internal Orbitals                 ... canonical 
  External Orbitals                 ... canonical 

------------------
CAS-SCF ITERATIONS
------------------


MACRO-ITERATION   1: 
   --- Inactive Energy E0 = -2382.58311411 Eh
CI-ITERATION   0: 
 -2391.357053117   0.000000000000 (    0.00)
 -2391.319591904   0.000000000000
 -2391.309661345   0.000000000000
 -2391.302062734   0.000000000000
 -2391.288299012   0.000000000000
   CI-PROBLEM SOLVED
   DENSITIES MADE
CI-ITERATION   0: 
 -2391.311727374   0.000000000000 (    0.00)
 -2391.302942728   0.000000000000
 -2391.295502272   0.000000000000
 -2391.281256412   0.000000000000
 -2391.280043520   0.000000000000
 -2391.278213022   0.000000000000
 -2391.277850554   0.000000000000
 -2391.276983789   0.000000000000
 -2391.273364503   0.000000000000
 -2391.269994372   0.000000000000
 -2391.269354484   0.000000000000
 -2391.268748755   0.000000000000
 -2391.266049785   0.000000000000
 -2391.265973916   0.000000000000
 -2391.265187936   0.000000000000
 -2391.262593131   0.000000000000
 -2391.256016291   0.000000000000
 -2391.254388677   0.000000000000
 -2391.251923411   0.000000000000
 -2391.247454846   0.000000000000
 -2391.245630380   0.000000000000
 -2391.243908158   0.000000000000
 -2391.242968632   0.000000000000
 -2391.239634439   0.000000000000
 -2391.236514795   0.000000000000
 -2391.233778736   0.000000000000
 -2391.225755183   0.000000000000
 -2391.222139466   0.000000000000
 -2391.218410001   0.000000000000
 -2391.210977960   0.000000000000
 -2391.209828339   0.000000000000
 -2391.204186212   0.000000000000
 -2391.194394552   0.000000000000
 -2391.192747720   0.000000000000
 -2391.185645029   0.000000000000
 -2391.150010631   0.000000000000
 -2391.142459353   0.000000000000
 -2391.121315154   0.000000000000
 -2391.114159007   0.000000000000
 -2390.920559311   0.000000000000
 -2390.905870582   0.000000000000
 -2390.895292047   0.000000000000
 -2390.891961141   0.000000000000
 -2390.853341950   0.000000000000
 -2390.829507966   0.000000000000
   CI-PROBLEM SOLVED
   DENSITIES MADE

                 <<<<<<<<<<<<<<<<<<INITIAL CI STATE CHECK>>>>>>>>>>>>>>>>>>

BLOCK  1 MULT= 5 NROOTS= 5 
ROOT   0:  E=   -2391.3570531167 Eh
      0.94401 [     1]: 11121
      0.04142 [     3]: 12111
      0.01400 [     2]: 11211
ROOT   1:  E=   -2391.3195919039 Eh  1.019 eV   8221.8 cm**-1
      0.73414 [     2]: 11211
      0.24591 [     3]: 12111
      0.01991 [     0]: 11112
ROOT   2:  E=   -2391.3096613449 Eh  1.290 eV  10401.3 cm**-1
      0.88318 [     0]: 11112
      0.10655 [     3]: 12111
      0.00913 [     1]: 11121
ROOT   3:  E=   -2391.3020627343 Eh  1.496 eV  12069.0 cm**-1
      0.59356 [     3]: 12111
      0.24629 [     2]: 11211
      0.09442 [     0]: 11112
      0.04589 [     1]: 11121
      0.01984 [     4]: 21111
ROOT   4:  E=   -2391.2882990116 Eh  1.871 eV  15089.8 cm**-1
      0.98014 [     4]: 21111
      0.01256 [     3]: 12111
      0.00443 [     2]: 11211

BLOCK  2 MULT= 3 NROOTS=45 
ROOT   0:  E=   -2391.3117273736 Eh
      0.63856 [    13]: 11211
      0.20442 [    18]: 12111
      0.06909 [    20]: 12201
      0.03347 [     8]: 10221
      0.02651 [    11]: 11121
      0.01553 [    10]: 11112
      0.00416 [    16]: 12021
      0.00278 [     6]: 10122
      0.00256 [    19]: 12120
ROOT   1:  E=   -2391.3029427279 Eh  0.239 eV   1928.0 cm**-1
      0.74453 [    10]: 11112
      0.11256 [    18]: 12111
      0.04956 [     6]: 10122
      0.03990 [    17]: 12102
      0.01732 [     9]: 11022
      0.01499 [    12]: 11202
      0.00572 [     2]: 01221
      0.00336 [     8]: 10221
      0.00270 [     4]: 02121
ROOT   2:  E=   -2391.2955022722 Eh  0.442 eV   3561.0 cm**-1
      0.55996 [    18]: 12111
      0.24173 [    13]: 11211
      0.07115 [    10]: 11112
      0.03484 [    11]: 11121
      0.01980 [    28]: 21111
      0.01421 [    19]: 12120
      0.01028 [    16]: 12021
      0.00782 [    14]: 11220
      0.00684 [    17]: 12102
      0.00679 [     0]: 01122
      0.00595 [     6]: 10122
      0.00576 [     8]: 10221
      0.00457 [     9]: 11022
      0.00350 [    12]: 11202
ROOT   3:  E=   -2391.2812564116 Eh  0.829 eV   6687.6 cm**-1
      0.79554 [    28]: 21111
      0.04748 [    33]: 22101
      0.03422 [    23]: 20121
      0.02420 [    14]: 11220
      0.01800 [    26]: 21021
      0.01664 [    30]: 21201
      0.01209 [    18]: 12111
      0.00905 [    11]: 11121
      0.00678 [     6]: 10122
      0.00642 [     9]: 11022
      0.00598 [    10]: 11112
      0.00570 [    19]: 12120
      0.00528 [     8]: 10221
      0.00414 [    13]: 11211
ROOT   4:  E=   -2391.2800435197 Eh  0.862 eV   6953.8 cm**-1
      0.46254 [     2]: 01221
      0.21070 [    11]: 11121
      0.09133 [    26]: 21021
      0.06692 [     6]: 10122
      0.06471 [    19]: 12120
      0.02976 [     5]: 02211
      0.01400 [    18]: 12111
      0.01181 [     3]: 02112
      0.00926 [     1]: 01212
      0.00811 [    13]: 11211
      0.00800 [    10]: 11112
      0.00674 [    28]: 21111
      0.00483 [    32]: 22011
ROOT   5:  E=   -2391.2782130218 Eh  0.912 eV   7355.5 cm**-1
      0.32955 [     0]: 01122
      0.22514 [    29]: 21120
      0.08801 [    19]: 12120
      0.08600 [    11]: 11121
      0.06055 [     6]: 10122
      0.06019 [    14]: 11220
      0.03973 [     4]: 02121
      0.02926 [    23]: 20121
      0.01473 [     3]: 02112
      0.01263 [    34]: 22110
      0.00971 [    21]: 12210
      0.00889 [     9]: 11022
      0.00686 [    18]: 12111
      0.00536 [    10]: 11112
      0.00532 [     8]: 10221
      0.00407 [     5]: 02211
      0.00337 [    31]: 21210
ROOT   6:  E=   -2391.2778505542 Eh  0.922 eV   7435.1 cm**-1
      0.37301 [     4]: 02121
      0.16940 [    11]: 11121
      0.14077 [    23]: 20121
      0.06865 [     8]: 10221
      0.05511 [     0]: 01122
      0.03494 [    16]: 12021
      0.02541 [     2]: 01221
      0.02139 [    19]: 12120
      0.02089 [    29]: 21120
      0.01682 [     6]: 10122
      0.01336 [    14]: 11220
      0.01019 [    28]: 21111
      0.00970 [    13]: 11211
      0.00953 [    26]: 21021
      0.00677 [    10]: 11112
      0.00622 [    18]: 12111
      0.00494 [     9]: 11022
      0.00343 [     7]: 10212
ROOT   7:  E=   -2391.2769837894 Eh  0.945 eV   7625.3 cm**-1
      0.65898 [    11]: 11121
      0.08233 [     8]: 10221
      0.05088 [     2]: 01221
      0.04332 [    16]: 12021
      0.03118 [    18]: 12111
      0.03066 [    23]: 20121
      0.02641 [     4]: 02121
      0.01507 [    13]: 11211
      0.01488 [    26]: 21021
      0.00821 [    14]: 11220
      0.00657 [    28]: 21111
      0.00512 [     9]: 11022
      0.00440 [    19]: 12120
      0.00417 [    29]: 21120
      0.00383 [     6]: 10122
      0.00332 [     3]: 02112
ROOT   8:  E=   -2391.2733645030 Eh  1.044 eV   8419.7 cm**-1
      0.68346 [     1]: 01212
      0.10132 [    10]: 11112
      0.08541 [     5]: 02211
      0.03803 [    31]: 21210
      0.01718 [    25]: 21012
      0.01325 [    18]: 12111
      0.01000 [     0]: 01122
      0.00972 [     2]: 01221
      0.00561 [    28]: 21111
      0.00472 [    34]: 22110
      0.00448 [     7]: 10212
      0.00429 [    24]: 20211
      0.00417 [    22]: 20112
      0.00390 [    11]: 11121
      0.00292 [     6]: 10122
ROOT   9:  E=   -2391.2699943719 Eh  1.136 eV   9159.3 cm**-1
      0.46429 [    14]: 11220
      0.12808 [     0]: 01122
      0.08121 [     8]: 10221
      0.06625 [     9]: 11022
      0.05633 [    21]: 12210
      0.03611 [    19]: 12120
      0.03321 [    28]: 21111
      0.02196 [    18]: 12111
      0.01735 [     5]: 02211
      0.01440 [     4]: 02121
      0.01236 [     6]: 10122
      0.01080 [    10]: 11112
      0.01017 [    16]: 12021
      0.00915 [    13]: 11211
      0.00816 [     3]: 02112
      0.00669 [    24]: 20211
      0.00471 [    29]: 21120
      0.00371 [     7]: 10212
      0.00347 [    11]: 11121
      0.00284 [    15]: 12012
ROOT  10:  E=   -2391.2693544842 Eh  1.153 eV   9299.8 cm**-1
      0.55186 [     5]: 02211
      0.10746 [    13]: 11211
      0.08318 [     1]: 01212
      0.05966 [    18]: 12111
      0.05761 [    24]: 20211
      0.02422 [    14]: 11220
      0.01763 [     2]: 01221
      0.01422 [     4]: 02121
      0.01364 [    28]: 21111
      0.01274 [    32]: 22011
      0.01097 [    10]: 11112
      0.01070 [    11]: 11121
      0.00781 [     7]: 10212
      0.00777 [    31]: 21210
      0.00272 [    30]: 21201
ROOT  11:  E=   -2391.2687487550 Eh  1.170 eV   9432.7 cm**-1
      0.47263 [    11]: 11121
      0.14990 [     8]: 10221
      0.11214 [     2]: 01221
      0.04337 [    13]: 11211
      0.03524 [    19]: 12120
      0.03237 [    23]: 20121
      0.02900 [     6]: 10122
      0.02265 [    10]: 11112
      0.02167 [    14]: 11220
      0.01770 [     4]: 02121
      0.01198 [    21]: 12210
      0.00846 [    18]: 12111
      0.00725 [     0]: 01122
      0.00650 [     3]: 02112
      0.00631 [    15]: 12012
      0.00506 [     7]: 10212
      0.00407 [    34]: 22110
      0.00404 [    29]: 21120
      0.00306 [    31]: 21210
      0.00252 [    28]: 21111
ROOT  12:  E=   -2391.2660497852 Eh  1.243 eV  10025.1 cm**-1
      0.41275 [     3]: 02112
      0.26399 [    10]: 11112
      0.07011 [    19]: 12120
      0.06959 [     0]: 01122
      0.03771 [     1]: 01212
      0.02180 [    15]: 12012
      0.01692 [    18]: 12111
      0.01583 [     6]: 10122
      0.01481 [    21]: 12210
      0.01119 [    29]: 21120
      0.01083 [    11]: 11121
      0.01082 [    13]: 11211
      0.00882 [    17]: 12102
      0.00567 [    28]: 21111
      0.00502 [     4]: 02121
      0.00468 [    34]: 22110
      0.00386 [     8]: 10221
      0.00370 [     5]: 02211
      0.00289 [     2]: 01221
ROOT  13:  E=   -2391.2659739165 Eh  1.245 eV  10041.7 cm**-1
      0.26270 [    11]: 11121
      0.21055 [    19]: 12120
      0.09782 [    13]: 11211
      0.08248 [     6]: 10122
      0.06712 [    18]: 12111
      0.04718 [    29]: 21120
      0.04698 [     3]: 02112
      0.03717 [     0]: 01122
      0.03109 [     9]: 11022
      0.03066 [    14]: 11220
      0.02305 [    28]: 21111
      0.01517 [    23]: 20121
      0.01342 [     4]: 02121
      0.00832 [     8]: 10221
      0.00813 [    16]: 12021
      0.00530 [     1]: 01212
      0.00311 [    10]: 11112
ROOT  14:  E=   -2391.2651879365 Eh  1.266 eV  10214.2 cm**-1
      0.46226 [    13]: 11211
      0.31891 [    18]: 12111
      0.04078 [    19]: 12120
      0.03123 [    10]: 11112
      0.02543 [    28]: 21111
      0.02010 [     0]: 01122
      0.01864 [    11]: 11121
      0.01466 [    34]: 22110
      0.01120 [     6]: 10122
      0.01097 [    20]: 12201
      0.00896 [    22]: 20112
      0.00674 [    32]: 22011
      0.00434 [    29]: 21120
      0.00400 [    23]: 20121
      0.00358 [     4]: 02121
      0.00331 [     8]: 10221
      0.00288 [    14]: 11220
ROOT  15:  E=   -2391.2625931312 Eh  1.337 eV  10783.7 cm**-1
      0.23453 [    13]: 11211
      0.20041 [     7]: 10212
      0.17260 [    10]: 11112
      0.11063 [    21]: 12210
      0.05859 [    22]: 20112
      0.03390 [    18]: 12111
      0.02771 [    11]: 11121
      0.02160 [     3]: 02112
      0.01744 [    34]: 22110
      0.01577 [    12]: 11202
      0.01487 [    25]: 21012
      0.01386 [    14]: 11220
      0.01349 [     4]: 02121
      0.00900 [    20]: 12201
      0.00835 [    16]: 12021
      0.00559 [     1]: 01212
      0.00533 [     6]: 10122
      0.00485 [    15]: 12012
      0.00435 [     0]: 01122
      0.00425 [    28]: 21111
      0.00415 [    27]: 21102
      0.00407 [     2]: 01221
      0.00289 [    29]: 21120
      0.00278 [    23]: 20121
      0.00251 [    17]: 12102
ROOT  16:  E=   -2391.2560162910 Eh  1.516 eV  12227.2 cm**-1
      0.57795 [    11]: 11121
      0.15656 [     8]: 10221
      0.12557 [    16]: 12021
      0.04795 [    18]: 12111
      0.01875 [    21]: 12210
      0.01249 [     4]: 02121
      0.01005 [    23]: 20121
      0.00988 [     9]: 11022
      0.00600 [    14]: 11220
      0.00541 [     6]: 10122
      0.00412 [     2]: 01221
      0.00380 [    28]: 21111
      0.00364 [    13]: 11211
ROOT  17:  E=   -2391.2543886774 Eh  1.560 eV  12584.4 cm**-1
      0.37411 [    13]: 11211
      0.14156 [    21]: 12210
      0.13853 [     7]: 10212
      0.12940 [    18]: 12111
      0.03423 [    14]: 11220
      0.03278 [     5]: 02211
      0.02742 [    28]: 21111
      0.02331 [    10]: 11112
      0.01841 [    11]: 11121
      0.01764 [    32]: 22011
      0.01249 [    24]: 20211
      0.01066 [    12]: 11202
      0.00962 [    20]: 12201
      0.00504 [     1]: 01212
      0.00319 [    22]: 20112
      0.00289 [    34]: 22110
      0.00262 [    16]: 12021
      0.00257 [     9]: 11022
ROOT  18:  E=   -2391.2519234106 Eh  1.627 eV  13125.5 cm**-1
      0.17521 [     2]: 01221
      0.16672 [     4]: 02121
      0.14289 [     8]: 10221
      0.11723 [    11]: 11121
      0.06212 [     3]: 02112
      0.04712 [    23]: 20121
      0.03956 [    16]: 12021
      0.03267 [     6]: 10122
      0.03022 [    10]: 11112
      0.02689 [    19]: 12120
      0.02679 [    14]: 11220
      0.01934 [    22]: 20112
      0.01775 [    13]: 11211
      0.01581 [     5]: 02211
      0.01257 [     9]: 11022
      0.01167 [    18]: 12111
      0.00922 [    26]: 21021
      0.00836 [    28]: 21111
      0.00665 [     7]: 10212
      0.00652 [    34]: 22110
      0.00577 [     1]: 01212
      0.00572 [     0]: 01122
      0.00401 [    29]: 21120
      0.00358 [    25]: 21012
ROOT  19:  E=   -2391.2474548458 Eh  1.749 eV  14106.2 cm**-1
      0.31586 [    28]: 21111
      0.13979 [    29]: 21120
      0.12151 [    13]: 11211
      0.10264 [    24]: 20211
      0.06441 [    18]: 12111
      0.03453 [    32]: 22011
      0.03115 [    31]: 21210
      0.02373 [    22]: 20112
      0.02273 [     6]: 10122
      0.01816 [     0]: 01122
      0.01750 [     9]: 11022
      0.01625 [    10]: 11112
      0.01442 [    11]: 11121
      0.01197 [    30]: 21201
      0.01103 [    33]: 22101
      0.01091 [    34]: 22110
      0.00967 [    14]: 11220
      0.00896 [    23]: 20121
      0.00634 [    19]: 12120
      0.00330 [     4]: 02121
      0.00315 [     7]: 10212
      0.00293 [    25]: 21012
ROOT  20:  E=   -2391.2456303797 Eh  1.799 eV  14506.6 cm**-1
      0.28450 [    31]: 21210
      0.19318 [    10]: 11112
      0.10489 [    21]: 12210
      0.06726 [    34]: 22110
      0.05807 [    22]: 20112
      0.05603 [     3]: 02112
      0.04135 [    13]: 11211
      0.03680 [    24]: 20211
      0.03248 [    25]: 21012
      0.02144 [    11]: 11121
      0.02043 [    18]: 12111
      0.00986 [    26]: 21021
      0.00895 [    19]: 12120
      0.00733 [    29]: 21120
      0.00698 [     6]: 10122
      0.00672 [    32]: 22011
      0.00670 [     0]: 01122
      0.00491 [    27]: 21102
      0.00416 [     1]: 01212
      0.00402 [    28]: 21111
      0.00376 [    17]: 12102
      0.00374 [    30]: 21201
      0.00372 [    23]: 20121
      0.00361 [     4]: 02121
      0.00337 [    14]: 11220
ROOT  21:  E=   -2391.2439081584 Eh  1.845 eV  14884.6 cm**-1
      0.28861 [    29]: 21120
      0.12172 [     0]: 01122
      0.10752 [     6]: 10122
      0.09928 [    28]: 21111
      0.06699 [    24]: 20211
      0.04788 [    19]: 12120
      0.04713 [    34]: 22110
      0.04502 [     9]: 11022
      0.04276 [    23]: 20121
      0.02146 [    14]: 11220
      0.01981 [    13]: 11211
      0.01648 [    18]: 12111
      0.01353 [    22]: 20112
      0.01353 [     4]: 02121
      0.00811 [     5]: 02211
      0.00693 [     3]: 02112
      0.00670 [    30]: 21201
      0.00539 [    16]: 12021
      0.00491 [    10]: 11112
      0.00378 [    11]: 11121
      0.00303 [    21]: 12210
ROOT  22:  E=   -2391.2429686323 Eh  1.871 eV  15090.8 cm**-1
      0.26617 [    21]: 12210
      0.19975 [    34]: 22110
      0.11369 [    10]: 11112
      0.10105 [    28]: 21111
      0.08238 [     7]: 10212
      0.06472 [    15]: 12012
      0.04215 [    23]: 20121
      0.02792 [     3]: 02112
      0.01681 [    13]: 11211
      0.01578 [    22]: 20112
      0.01155 [    18]: 12111
      0.01018 [    14]: 11220
      0.00909 [    12]: 11202
      0.00629 [    19]: 12120
      0.00610 [     9]: 11022
      0.00586 [    11]: 11121
      0.00535 [    26]: 21021
      0.00331 [    33]: 22101
      0.00286 [     2]: 01221
ROOT  23:  E=   -2391.2396344392 Eh  1.962 eV  15822.6 cm**-1
      0.20528 [    26]: 21021
      0.14947 [    23]: 20121
      0.11219 [     4]: 02121
      0.10103 [    11]: 11121
      0.08882 [    16]: 12021
      0.05689 [    10]: 11112
      0.05557 [     7]: 10212
      0.04106 [    15]: 12012
      0.03321 [    28]: 21111
      0.02729 [    29]: 21120
      0.01621 [     9]: 11022
      0.01580 [    31]: 21210
      0.01501 [    25]: 21012
      0.01474 [     2]: 01221
      0.01074 [    18]: 12111
      0.01072 [     3]: 02112
      0.01066 [    13]: 11211
      0.00919 [     0]: 01122
      0.00709 [    19]: 12120
      0.00425 [     1]: 01212
      0.00396 [    34]: 22110
      0.00309 [     6]: 10122
ROOT  24:  E=   -2391.2365147950 Eh  2.047 eV  16507.3 cm**-1
      0.19888 [     7]: 10212
      0.16136 [    15]: 12012
      0.15948 [    10]: 11112
      0.08231 [    31]: 21210
      0.05272 [    23]: 20121
      0.05059 [    28]: 21111
      0.04245 [    34]: 22110
      0.04124 [    13]: 11211
      0.03068 [     4]: 02121
      0.02907 [    18]: 12111
      0.02570 [    26]: 21021
      0.02302 [     3]: 02112
      0.01286 [    29]: 21120
      0.01102 [     6]: 10122
      0.01039 [    25]: 21012
      0.00888 [    22]: 20112
      0.00826 [     0]: 01122
      0.00816 [    17]: 12102
      0.00599 [     2]: 01221
      0.00592 [    32]: 22011
      0.00590 [     8]: 10221
      0.00437 [     1]: 01212
      0.00337 [    24]: 20211
      0.00279 [    11]: 11121
      0.00274 [    21]: 12210
      0.00253 [     9]: 11022
ROOT  25:  E=   -2391.2337787360 Eh  2.121 eV  17107.7 cm**-1
      0.56889 [    18]: 12111
      0.09954 [    13]: 11211
      0.06317 [    28]: 21111
      0.05476 [    10]: 11112
      0.03528 [     5]: 02211
      0.02557 [     6]: 10122
      0.02536 [    32]: 22011
      0.02462 [     7]: 10212
      0.02396 [    11]: 11121
      0.01452 [     9]: 11022
      0.01377 [    21]: 12210
      0.00937 [    29]: 21120
      0.00663 [    14]: 11220
      0.00586 [     0]: 01122
      0.00488 [    24]: 20211
      0.00431 [    15]: 12012
      0.00388 [     1]: 01212
      0.00271 [    17]: 12102
ROOT  26:  E=   -2391.2257551830 Eh  2.339 eV  18868.7 cm**-1
      0.26377 [    10]: 11112
      0.13994 [     3]: 02112
      0.10254 [    31]: 21210
      0.10106 [    22]: 20112
      0.07454 [    28]: 21111
      0.06138 [    25]: 21012
      0.05870 [     1]: 01212
      0.04421 [    34]: 22110
      0.03525 [    18]: 12111
      0.01915 [    16]: 12021
      0.01285 [    11]: 11121
      0.01147 [    24]: 20211
      0.00929 [    32]: 22011
      0.00895 [     5]: 02211
      0.00834 [    23]: 20121
      0.00807 [     9]: 11022
      0.00750 [     2]: 01221
      0.00602 [    26]: 21021
      0.00597 [     8]: 10221
      0.00505 [    21]: 12210
      0.00356 [    15]: 12012
ROOT  27:  E=   -2391.2221394663 Eh  2.438 eV  19662.3 cm**-1
      0.20636 [     6]: 10122
      0.16279 [    19]: 12120
      0.14563 [    28]: 21111
      0.11233 [    18]: 12111
      0.06488 [     9]: 11022
      0.05928 [    34]: 22110
      0.04633 [    22]: 20112
      0.03327 [     0]: 01122
      0.03143 [    10]: 11112
      0.02864 [    14]: 11220
      0.02173 [     5]: 02211
      0.01626 [    13]: 11211
      0.01048 [    23]: 20121
      0.00933 [     7]: 10212
      0.00835 [    29]: 21120
      0.00808 [    11]: 11121
      0.00747 [    24]: 20211
      0.00456 [    31]: 21210
      0.00421 [     8]: 10221
      0.00347 [    16]: 12021
      0.00317 [    27]: 21102
      0.00272 [    15]: 12012
ROOT  28:  E=   -2391.2184100009 Eh  2.539 eV  20480.8 cm**-1
      0.21451 [    18]: 12111
      0.19850 [    13]: 11211
      0.15771 [    28]: 21111
      0.10482 [     5]: 02211
      0.05503 [    32]: 22011
      0.04918 [     9]: 11022
      0.04613 [    10]: 11112
      0.02622 [    24]: 20211
      0.01841 [     1]: 01212
      0.01787 [    11]: 11121
      0.01493 [    16]: 12021
      0.01143 [     0]: 01122
      0.01126 [    25]: 21012
      0.01060 [    14]: 11220
      0.00970 [    19]: 12120
      0.00881 [    31]: 21210
      0.00761 [    26]: 21021
      0.00714 [     4]: 02121
      0.00621 [     6]: 10122
      0.00576 [    29]: 21120
      0.00494 [    30]: 21201
      0.00369 [     2]: 01221
      0.00258 [    34]: 22110
ROOT  29:  E=   -2391.2109779599 Eh  2.742 eV  22111.9 cm**-1
      0.28081 [    10]: 11112
      0.16626 [    25]: 21012
      0.13005 [    15]: 12012
      0.08161 [    28]: 21111
      0.07748 [    31]: 21210
      0.05170 [    34]: 22110
      0.04819 [    22]: 20112
      0.02354 [    18]: 12111
      0.02258 [    32]: 22011
      0.02092 [    21]: 12210
      0.01578 [     3]: 02112
      0.01283 [     9]: 11022
      0.01152 [    24]: 20211
      0.00943 [    11]: 11121
      0.00810 [    27]: 21102
      0.00762 [     6]: 10122
      0.00669 [    29]: 21120
      0.00602 [    13]: 11211
      0.00390 [    33]: 22101
      0.00369 [     8]: 10221
ROOT  30:  E=   -2391.2098283393 Eh  2.773 eV  22364.3 cm**-1
      0.36794 [    28]: 21111
      0.17251 [    32]: 22011
      0.17011 [    24]: 20211
      0.08634 [    18]: 12111
      0.02920 [    22]: 20112
      0.02452 [    34]: 22110
      0.01935 [    19]: 12120
      0.01641 [    31]: 21210
      0.01639 [     6]: 10122
      0.01631 [    10]: 11112
      0.01419 [    25]: 21012
      0.01171 [    29]: 21120
      0.01078 [    13]: 11211
      0.00915 [    14]: 11220
      0.00639 [     9]: 11022
      0.00581 [    23]: 20121
      0.00519 [     0]: 01122
      0.00448 [    21]: 12210
ROOT  31:  E=   -2391.2041862116 Eh  2.926 eV  23602.6 cm**-1
      0.18855 [    24]: 20211
      0.13805 [    32]: 22011
      0.13444 [    28]: 21111
      0.10084 [     6]: 10122
      0.08229 [    19]: 12120
      0.05231 [    22]: 20112
      0.04692 [    18]: 12111
      0.04126 [    29]: 21120
      0.04081 [    34]: 22110
      0.02391 [    31]: 21210
      0.02329 [    10]: 11112
      0.02186 [    25]: 21012
      0.02163 [     0]: 01122
      0.01434 [     9]: 11022
      0.01159 [    14]: 11220
      0.00839 [    30]: 21201
      0.00761 [    33]: 22101
      0.00612 [     7]: 10212
      0.00607 [    27]: 21102
      0.00546 [    26]: 21021
      0.00528 [    11]: 11121
      0.00340 [     4]: 02121
      0.00307 [    13]: 11211
      0.00268 [    23]: 20121
ROOT  32:  E=   -2391.1943945522 Eh  3.193 eV  25751.6 cm**-1
      0.39476 [    16]: 12021
      0.18154 [     8]: 10221
      0.13585 [    23]: 20121
      0.07499 [     4]: 02121
      0.04333 [     9]: 11022
      0.02554 [    14]: 11220
      0.02238 [    11]: 11121
      0.01604 [     3]: 02112
      0.01556 [    29]: 21120
      0.01538 [    15]: 12012
      0.00885 [    13]: 11211
      0.00827 [    26]: 21021
      0.00714 [    18]: 12111
      0.00653 [    28]: 21111
      0.00624 [     0]: 01122
      0.00586 [    34]: 22110
      0.00523 [    10]: 11112
      0.00447 [     7]: 10212
      0.00405 [     6]: 10122
      0.00403 [    24]: 20211
      0.00338 [     5]: 02211
      0.00322 [    25]: 21012
ROOT  33:  E=   -2391.1927477197 Eh  3.238 eV  26113.0 cm**-1
      0.49131 [     9]: 11022
      0.11028 [    14]: 11220
      0.06952 [    16]: 12021
      0.06641 [     0]: 01122
      0.06307 [     6]: 10122
      0.04432 [    29]: 21120
      0.01829 [    10]: 11112
      0.01756 [    15]: 12012
      0.01629 [     8]: 10221
      0.01253 [    19]: 12120
      0.01096 [     4]: 02121
      0.00994 [    18]: 12111
      0.00990 [    28]: 21111
      0.00830 [    11]: 11121
      0.00723 [    23]: 20121
      0.00710 [    13]: 11211
      0.00615 [     5]: 02211
      0.00566 [    34]: 22110
      0.00538 [    24]: 20211
      0.00475 [    21]: 12210
      0.00421 [     1]: 01212
      0.00420 [    31]: 21210
ROOT  34:  E=   -2391.1856450289 Eh  3.431 eV  27671.9 cm**-1
      0.53446 [    26]: 21021
      0.15187 [    23]: 20121
      0.09510 [    16]: 12021
      0.08062 [     2]: 01221
      0.02663 [     4]: 02121
      0.02056 [    32]: 22011
      0.01682 [     8]: 10221
      0.01663 [    28]: 21111
      0.01177 [     9]: 11022
      0.00978 [    29]: 21120
      0.00943 [    11]: 11121
      0.00549 [     5]: 02211
      0.00339 [     3]: 02112
      0.00283 [    22]: 20112
      0.00275 [    34]: 22110
ROOT  35:  E=   -2391.1500106308 Eh  4.401 eV  35492.7 cm**-1
      0.27473 [    15]: 12012
      0.27016 [    22]: 20112
      0.13022 [     7]: 10212
      0.08682 [    34]: 22110
      0.05628 [     3]: 02112
      0.03838 [    21]: 12210
      0.02097 [    25]: 21012
      0.02010 [    10]: 11112
      0.01529 [    28]: 21111
      0.01463 [    27]: 21102
      0.00886 [    13]: 11211
      0.00824 [    29]: 21120
      0.00804 [    31]: 21210
      0.00800 [     9]: 11022
      0.00621 [    17]: 12102
      0.00593 [    23]: 20121
      0.00477 [    12]: 11202
      0.00365 [     8]: 10221
      0.00324 [    14]: 11220
      0.00304 [    18]: 12111
      0.00300 [    16]: 12021
ROOT  36:  E=   -2391.1424593527 Eh  4.606 eV  37150.0 cm**-1
      0.20976 [    31]: 21210
      0.20785 [    34]: 22110
      0.15521 [    21]: 12210
      0.11270 [    15]: 12012
      0.05670 [     7]: 10212
      0.03577 [    25]: 21012
      0.03504 [    22]: 20112
      0.03008 [    28]: 21111
      0.02491 [    29]: 21120
      0.02420 [    24]: 20211
      0.02202 [    10]: 11112
      0.01774 [     3]: 02112
      0.01334 [     1]: 01212
      0.01159 [    13]: 11211
      0.00696 [     9]: 11022
      0.00624 [    14]: 11220
      0.00511 [    19]: 12120
      0.00472 [    11]: 11121
      0.00409 [    27]: 21102
      0.00327 [    30]: 21201
      0.00310 [    32]: 22011
ROOT  37:  E=   -2391.1213151541 Eh  5.181 eV  41790.7 cm**-1
      0.48381 [    25]: 21012
      0.13676 [    22]: 20112
      0.11016 [    15]: 12012
      0.06044 [    32]: 22011
      0.04350 [    31]: 21210
      0.03617 [    10]: 11112
      0.03596 [     1]: 01212
      0.02579 [     3]: 02112
      0.01660 [    34]: 22110
      0.01387 [    28]: 21111
      0.00692 [    24]: 20211
      0.00562 [    26]: 21021
      0.00501 [     5]: 02211
      0.00411 [    18]: 12111
      0.00398 [    23]: 20121
ROOT  38:  E=   -2391.1141590068 Eh  5.376 eV  43361.2 cm**-1
      0.37237 [    32]: 22011
      0.19750 [    24]: 20211
      0.17905 [    28]: 21111
      0.05833 [    25]: 21012
      0.05077 [     5]: 02211
      0.02698 [    18]: 12111
      0.02593 [    26]: 21021
      0.02127 [    31]: 21210
      0.01319 [    22]: 20112
      0.01275 [    13]: 11211
      0.01049 [    23]: 20121
      0.00694 [     1]: 01212
      0.00434 [    10]: 11112
      0.00383 [    34]: 22110
ROOT  39:  E=   -2390.9205593114 Eh 10.644 eV  85851.5 cm**-1
      0.60319 [    12]: 11202
      0.18294 [    17]: 12102
      0.08153 [    20]: 12201
      0.05935 [    27]: 21102
      0.02631 [     7]: 10212
      0.01663 [    10]: 11112
      0.01113 [    13]: 11211
      0.00731 [    33]: 22101
      0.00330 [    18]: 12111
      0.00291 [    15]: 12012
ROOT  40:  E=   -2390.9058705824 Eh 11.044 eV  89075.3 cm**-1
      0.73621 [    20]: 12201
      0.09891 [    12]: 11202
      0.05936 [    13]: 11211
      0.04713 [    33]: 22101
      0.02249 [    18]: 12111
      0.01039 [    30]: 21201
      0.00656 [    27]: 21102
      0.00530 [    28]: 21111
      0.00386 [     7]: 10212
ROOT  41:  E=   -2390.8952920469 Eh 11.332 eV  91397.0 cm**-1
      0.62538 [    17]: 12102
      0.20711 [    12]: 11202
      0.07552 [    10]: 11112
      0.04253 [    27]: 21102
      0.01438 [    20]: 12201
      0.00949 [    15]: 12012
      0.00878 [     7]: 10212
      0.00520 [    33]: 22101
      0.00363 [    13]: 11211
      0.00250 [     6]: 10122
ROOT  42:  E=   -2390.8919611413 Eh 11.422 eV  92128.0 cm**-1
      0.56407 [    30]: 21201
      0.34051 [    33]: 22101
      0.03341 [    27]: 21102
      0.02524 [    24]: 20211
      0.02355 [    28]: 21111
      0.00565 [    32]: 22011
      0.00426 [    20]: 12201
ROOT  43:  E=   -2390.8533419504 Eh 12.473 eV 100604.0 cm**-1
      0.73120 [    27]: 21102
      0.09841 [    17]: 12102
      0.08703 [    33]: 22101
      0.03132 [    22]: 20112
      0.01355 [    28]: 21111
      0.01237 [    12]: 11202
      0.01105 [    25]: 21012
      0.00650 [    10]: 11112
ROOT  44:  E=   -2390.8295079656 Eh 13.122 eV 105834.9 cm**-1
      0.41834 [    33]: 22101
      0.35263 [    30]: 21201
      0.07058 [    27]: 21102
      0.06251 [    28]: 21111
      0.05212 [    20]: 12201
      0.01568 [    24]: 20211
      0.00740 [    12]: 11202
      0.00631 [    32]: 22011
      0.00416 [    13]: 11211
      0.00302 [    22]: 20112

                 <<<<<<<<<<<<<<<<<<INITIAL CI STATE CHECK>>>>>>>>>>>>>>>>>>

   E(CAS)= -2391.253073106 Eh DE=    0.000000e+00
   --- Energy gap subspaces: Ext-Act = 0.056   Act-Int = 0.091
   N(occ)=  1.20000 1.20000 1.20000 1.20000 1.20000
   ||g|| =     9.481704e-04 Max(G)=   -2.586948e-04 Rot=152,108
                     ---- THE CAS-SCF GRADIENT HAS CONVERGED ----
                            --- FINALIZING ORBITALS ---
                    ---- DOING ONE FINAL ITERATION FOR PRINTING ----
   --- Forming Natural Orbitals
   --- Canonicalize Internal Space
   --- Canonicalize External Space

MACRO-ITERATION   2: 
   --- Inactive Energy E0 = -2382.58311411 Eh
   --- All densities will be recomputed
CI-ITERATION   0: 
 -2391.357053116   0.000000000000 (    0.00)
 -2391.319591903   0.000000000000
 -2391.309661344   0.000000000000
 -2391.302062734   0.000000000000
 -2391.288299011   0.000000000000
   CI-PROBLEM SOLVED
   DENSITIES MADE
CI-ITERATION   0: 
 -2391.311727373   0.000000000000 (    0.00)
 -2391.302942727   0.000000000000
 -2391.295502272   0.000000000000
 -2391.281256411   0.000000000000
 -2391.280043519   0.000000000000
 -2391.278213021   0.000000000000
 -2391.277850554   0.000000000000
 -2391.276983789   0.000000000000
 -2391.273364503   0.000000000000
 -2391.269994372   0.000000000000
 -2391.269354484   0.000000000000
 -2391.268748755   0.000000000000
 -2391.266049784   0.000000000000
 -2391.265973916   0.000000000000
 -2391.265187936   0.000000000000
 -2391.262593131   0.000000000000
 -2391.256016291   0.000000000000
 -2391.254388677   0.000000000000
 -2391.251923410   0.000000000000
 -2391.247454845   0.000000000000
 -2391.245630379   0.000000000000
 -2391.243908158   0.000000000000
 -2391.242968632   0.000000000000
 -2391.239634439   0.000000000000
 -2391.236514795   0.000000000000
 -2391.233778735   0.000000000000
 -2391.225755183   0.000000000000
 -2391.222139466   0.000000000000
 -2391.218410000   0.000000000000
 -2391.210977959   0.000000000000
 -2391.209828339   0.000000000000
 -2391.204186211   0.000000000000
 -2391.194394552   0.000000000000
 -2391.192747719   0.000000000000
 -2391.185645029   0.000000000000
 -2391.150010631   0.000000000000
 -2391.142459352   0.000000000000
 -2391.121315154   0.000000000000
 -2391.114159006   0.000000000000
 -2390.920559311   0.000000000000
 -2390.905870582   0.000000000000
 -2390.895292046   0.000000000000
 -2390.891961141   0.000000000000
 -2390.853341950   0.000000000000
 -2390.829507965   0.000000000000
   CI-PROBLEM SOLVED
   DENSITIES MADE
   E(CAS)= -2391.253073105 Eh DE=    4.361027e-10
   --- Energy gap subspaces: Ext-Act = 0.057   Act-Int = 0.087
   N(occ)=  1.20000 1.20000 1.20000 1.20000 1.20000
   ||g|| =     9.481704e-04 Max(G)=    2.586948e-04 Rot=152,108
--------------
CASSCF RESULTS
--------------

Final CASSCF energy       : -2391.253073105 Eh  -65069.3042 eV

----------------
ORBITAL ENERGIES
----------------

  NO   OCC          E(Eh)            E(eV) 
   0   2.0000    -220.494101     -5999.9495 
   1   2.0000     -26.331904      -716.5275 
   2   2.0000     -22.265531      -605.8759 
   3   2.0000     -22.265394      -605.8722 
   4   2.0000     -22.251727      -605.5003 
   5   2.0000      -4.712185      -128.2251 
   6   2.0000      -4.711913      -128.2177 
   7   2.0000      -4.711301      -128.2010 
   8   2.0000      -4.707354      -128.0936 
   9   2.0000      -4.707247      -128.0907 
  10   2.0000      -4.705488      -128.0428 
  11   2.0000      -4.703909      -127.9999 
  12   2.0000      -4.703718      -127.9947 
  13   2.0000      -4.701440      -127.9327 
  14   2.0000      -4.701159      -127.9250 
  15   2.0000      -3.385561       -92.1258 
  16   2.0000      -2.755264       -74.9745 
  17   2.0000      -2.751349       -74.8680 
  18   2.0000      -2.750406       -74.8424 
  19   2.0000      -2.750309       -74.8397 
  20   2.0000      -2.749683       -74.8227 
  21   2.0000      -2.749184       -74.8091 
  22   2.0000      -2.749067       -74.8059 
  23   2.0000      -2.748201       -74.7824 
  24   2.0000      -2.746000       -74.7225 
  25   2.0000      -2.745660       -74.7132 
  26   2.0000      -2.745262       -74.7024 
  27   2.0000      -2.743904       -74.6654 
  28   2.0000      -2.742572       -74.6292 
  29   2.0000      -2.742327       -74.6225 
  30   2.0000      -2.741979       -74.6130 
  31   2.0000      -2.741435       -74.5982 
  32   2.0000      -2.740808       -74.5812 
  33   2.0000      -2.740259       -74.5662 
  34   2.0000      -2.740006       -74.5593 
  35   2.0000      -2.739270       -74.5393 
  36   2.0000      -2.738991       -74.5317 
  37   2.0000      -2.737837       -74.5003 
  38   2.0000      -2.737576       -74.4932 
  39   2.0000      -2.736574       -74.4660 
  40   2.0000      -2.736387       -74.4609 
  41   2.0000      -2.736049       -74.4517 
  42   2.0000      -2.735711       -74.4425 
  43   2.0000      -2.734268       -74.4032 
  44   2.0000      -2.734136       -74.3996 
  45   2.0000      -2.733029       -74.3695 
  46   2.0000      -2.151484       -58.5449 
  47   2.0000      -2.150079       -58.5066 
  48   2.0000      -2.137531       -58.1652 
  49   2.0000      -0.556997       -15.1567 
  50   2.0000      -0.551228       -14.9997 
  51   2.0000      -0.542734       -14.7685 
  52   2.0000      -0.539889       -14.6911 
  53   2.0000      -0.536698       -14.6043 
  54   2.0000      -0.533680       -14.5222 
  55   2.0000      -0.533591       -14.5198 
  56   2.0000      -0.527060       -14.3420 
  57   2.0000      -0.524200       -14.2642 
  58   2.0000      -0.522195       -14.2097 
  59   2.0000      -0.522109       -14.2073 
  60   2.0000      -0.516960       -14.0672 
  61   2.0000      -0.507582       -13.8120 
  62   2.0000      -0.506924       -13.7941 
  63   2.0000      -0.506097       -13.7716 
  64   2.0000      -0.505975       -13.7683 
  65   2.0000      -0.501672       -13.6512 
  66   2.0000      -0.497561       -13.5393 
  67   2.0000      -0.494172       -13.4471 
  68   2.0000      -0.490553       -13.3486 
  69   2.0000      -0.487123       -13.2553 
  70   2.0000      -0.480545       -13.0763 
  71   2.0000      -0.476464       -12.9652 
  72   2.0000      -0.475547       -12.9403 
  73   2.0000      -0.469003       -12.7622 
  74   2.0000      -0.467055       -12.7092 
  75   2.0000      -0.466097       -12.6831 
  76   2.0000      -0.463873       -12.6226 
  77   2.0000      -0.462225       -12.5778 
  78   2.0000      -0.453527       -12.3411 
  79   2.0000      -0.453088       -12.3292 
  80   2.0000      -0.452926       -12.3247 
  81   2.0000      -0.448213       -12.1965 
  82   2.0000      -0.448111       -12.1937 
  83   2.0000      -0.446278       -12.1438 
  84   2.0000      -0.445676       -12.1275 
  85   2.0000      -0.441079       -12.0024 
  86   2.0000      -0.440689       -11.9918 
  87   2.0000      -0.435218       -11.8429 
  88   2.0000      -0.434272       -11.8171 
  89   2.0000      -0.433200       -11.7880 
  90   2.0000      -0.431702       -11.7472 
  91   2.0000      -0.431317       -11.7367 
  92   2.0000      -0.427944       -11.6449 
  93   2.0000      -0.419866       -11.4251 
  94   2.0000      -0.417516       -11.3612 
  95   2.0000      -0.417400       -11.3580 
  96   2.0000      -0.413723       -11.2580 
  97   2.0000      -0.400979       -10.9112 
  98   2.0000      -0.399603       -10.8737 
  99   2.0000      -0.386359       -10.5134 
 100   2.0000      -0.349208        -9.5024 
 101   2.0000      -0.320020        -8.7082 
 102   2.0000      -0.271148        -7.3783 
 103   2.0000      -0.237879        -6.4730 
 104   1.2000      -0.150414        -4.0930 
 105   1.2000      -0.068998        -1.8775 
 106   1.2000      -0.089156        -2.4261 
 107   1.2000      -0.099076        -2.6960 
 108   1.2000      -0.083217        -2.2644 
 109   0.0000      -0.011963        -0.3255 
 110   0.0000       0.000064         0.0017 
 111   0.0000       0.002972         0.0809 
 112   0.0000       0.018022         0.4904 
 113   0.0000       0.030880         0.8403 
 114   0.0000       0.034249         0.9320 
 115   0.0000       0.051962         1.4140 
 116   0.0000       0.058364         1.5882 
 117   0.0000       0.068582         1.8662 
 118   0.0000       0.079349         2.1592 
 119   0.0000       0.080797         2.1986 
 120   0.0000       0.086617         2.3570 
 121   0.0000       0.091351         2.4858 
 122   0.0000       0.106182         2.8894 
 123   0.0000       0.106556         2.8995 
 124   0.0000       0.118042         3.2121 
 125   0.0000       0.125820         3.4237 
 126   0.0000       0.133484         3.6323 
 127   0.0000       0.138511         3.7691 
 128   0.0000       0.138955         3.7812 
 129   0.0000       0.141500         3.8504 
 130   0.0000       0.149451         4.0668 
 131   0.0000       0.154366         4.2005 
 132   0.0000       0.159703         4.3457 
 133   0.0000       0.161654         4.3988 
 134   0.0000       0.170358         4.6357 
 135   0.0000       0.172417         4.6917 
 136   0.0000       0.182791         4.9740 
 137   0.0000       0.187170         5.0932 
 138   0.0000       0.189309         5.1514 
 139   0.0000       0.197286         5.3684 
 140   0.0000       0.201350         5.4790 
 141   0.0000       0.211920         5.7666 
 142   0.0000       0.214719         5.8428 
 143   0.0000       0.222829         6.0635 
 144   0.0000       0.224380         6.1057 
 145   0.0000       0.243182         6.6173 
 146   0.0000       0.246001         6.6940 
 147   0.0000       0.254935         6.9371 
 148   0.0000       0.266633         7.2555 
 149   0.0000       0.283398         7.7117 
 150   0.0000       0.285673         7.7736 
 151   0.0000       0.300657         8.1813 
 152   0.0000       0.315704         8.5907 
 153   0.0000       0.348731         9.4894 
 154   0.0000       0.376781        10.2527 
 155   0.0000       0.388411        10.5692 
 156   0.0000       0.397755        10.8235 
 157   0.0000       0.402861        10.9624 
 158   0.0000       0.405210        11.0263 
 159   0.0000       0.411745        11.2042 
 160   0.0000       0.414761        11.2862 
 161   0.0000       0.422148        11.4872 
 162   0.0000       0.425029        11.5656 
 163   0.0000       0.434250        11.8165 
 164   0.0000       0.434978        11.8363 
 165   0.0000       0.440460        11.9855 
 166   0.0000       0.446157        12.1406 
 167   0.0000       0.450705        12.2643 
 168   0.0000       0.458716        12.4823 
 169   0.0000       0.462105        12.5745 
 170   0.0000       0.470389        12.7999 
 171   0.0000       0.472113        12.8468 
 172   0.0000       0.481885        13.1127 
 173   0.0000       0.482130        13.1194 
 174   0.0000       0.482908        13.1406 
 175   0.0000       0.502764        13.6809 
 176   0.0000       0.503505        13.7011 
 177   0.0000       0.510440        13.8898 
 178   0.0000       0.514409        13.9978 
 179   0.0000       0.518148        14.0995 
 180   0.0000       0.521564        14.1925 
 181   0.0000       0.526609        14.3298 
 182   0.0000       0.540186        14.6992 
 183   0.0000       0.541434        14.7332 
 184   0.0000       0.546104        14.8603 
 185   0.0000       0.556451        15.1418 
 186   0.0000       0.563228        15.3262 
 187   0.0000       0.565774        15.3955 
 188   0.0000       0.567804        15.4507 
 189   0.0000       0.575074        15.6486 
 190   0.0000       0.575682        15.6651 
 191   0.0000       0.585283        15.9264 
 192   0.0000       0.597454        16.2576 
 193   0.0000       0.600018        16.3273 
 194   0.0000       0.602370        16.3913 
 195   0.0000       0.605318        16.4715 
 196   0.0000       0.616247        16.7689 
 197   0.0000       0.623877        16.9766 
 198   0.0000       0.636803        17.3283 
 199   0.0000       0.650327        17.6963 
 200   0.0000       0.651337        17.7238 
 201   0.0000       0.658567        17.9205 
 202   0.0000       0.666954        18.1488 
 203   0.0000       0.669930        18.2297 
 204   0.0000       0.682441        18.5702 
 205   0.0000       0.687361        18.7040 
 206   0.0000       0.689597        18.7649 
 207   0.0000       0.696326        18.9480 
 208   0.0000       0.703679        19.1481 
 209   0.0000       0.718694        19.5567 
 210   0.0000       0.723081        19.6760 
 211   0.0000       0.724643        19.7185 
 212   0.0000       0.726441        19.7675 
 213   0.0000       0.757655        20.6168 
 214   0.0000       0.765065        20.8185 
 215   0.0000       0.770102        20.9555 
 216   0.0000       0.793481        21.5917 
 217   0.0000       0.799466        21.7546 
 218   0.0000       0.815469        22.1900 
 219   0.0000       0.819047        22.2874 
 220   0.0000       0.918997        25.0072 
 221   0.0000       0.920013        25.0348 
 222   0.0000       0.950313        25.8593 
 223   0.0000       0.951212        25.8838 
 224   0.0000       0.964535        26.2463 
 225   0.0000       0.995280        27.0829 
 226   0.0000       1.003232        27.2993 
 227   0.0000       1.034677        28.1550 
 228   0.0000       1.040694        28.3187 
 229   0.0000       1.055344        28.7174 
 230   0.0000       1.068943        29.0874 
 231   0.0000       1.073906        29.2225 
 232   0.0000       1.090668        29.6786 
 233   0.0000       1.092027        29.7156 
 234   0.0000       1.109344        30.1868 
 235   0.0000       1.131952        30.8020 
 236   0.0000       1.138954        30.9925 
 237   0.0000       1.156762        31.4771 
 238   0.0000       1.168494        31.7963 
 239   0.0000       1.179048        32.0835 
 240   0.0000       1.184036        32.2193 
 241   0.0000       1.217333        33.1253 
 242   0.0000       1.234219        33.5848 
 243   0.0000       1.236951        33.6592 
 244   0.0000       1.256303        34.1857 
 245   0.0000       1.279539        34.8180 
 246   0.0000       1.305850        35.5340 
 247   0.0000       1.331692        36.2372 
 248   0.0000       1.349638        36.7255 
 249   0.0000       1.563310        42.5398 
 250   0.0000       1.574405        42.8417 
 251   0.0000       1.610345        43.8197 
 252   0.0000       1.610797        43.8320 
 253   0.0000       1.620890        44.1066 
 254   0.0000       1.647026        44.8179 
 255   0.0000       1.654252        45.0145 
 256   0.0000       1.667155        45.3656 
 257   0.0000       1.678901        45.6852 
 258   0.0000       1.684053        45.8254 
 259   0.0000       1.686937        45.9039 
 260   0.0000       1.704867        46.3918 
 261   0.0000       1.720742        46.8238 
 262   0.0000       1.722721        46.8776 
 263   0.0000       1.724225        46.9185 
 264   0.0000       1.741385        47.3855 
 265   0.0000       1.742765        47.4230 
 266   0.0000       1.751718        47.6667 
 267   0.0000       1.765836        48.0508 
 268   0.0000       1.767491        48.0959 
 269   0.0000       1.769188        48.1421 
 270   0.0000       1.783836        48.5406 
 271   0.0000       1.787617        48.6435 
 272   0.0000       1.798382        48.9365 
 273   0.0000       1.802448        49.0471 
 274   0.0000       1.803652        49.0799 
 275   0.0000       1.808079        49.2003 
 276   0.0000       1.810918        49.2776 
 277   0.0000       1.818804        49.4922 
 278   0.0000       1.825693        49.6796 
 279   0.0000       1.826060        49.6896 
 280   0.0000       1.829179        49.7745 
 281   0.0000       1.835098        49.9356 
 282   0.0000       1.838341        50.0238 
 283   0.0000       1.844928        50.2030 
 284   0.0000       1.846982        50.2589 
 285   0.0000       1.849111        50.3169 
 286   0.0000       1.849802        50.3357 
 287   0.0000       1.856414        50.5156 
 288   0.0000       1.858026        50.5594 
 289   0.0000       1.859935        50.6114 
 290   0.0000       1.861050        50.6417 
 291   0.0000       1.863435        50.7067 
 292   0.0000       1.867447        50.8158 
 293   0.0000       1.867814        50.8258 
 294   0.0000       1.871091        50.9150 
 295   0.0000       1.872986        50.9665 
 296   0.0000       1.876575        51.0642 
 297   0.0000       1.877608        51.0923 
 298   0.0000       1.877910        51.1005 
 299   0.0000       1.879041        51.1313 
 300   0.0000       1.881322        51.1934 
 301   0.0000       1.883156        51.2433 
 302   0.0000       1.883802        51.2609 
 303   0.0000       1.885071        51.2954 
 304   0.0000       1.888779        51.3963 
 305   0.0000       1.889775        51.4234 
 306   0.0000       1.893205        51.5167 
 307   0.0000       1.895685        51.5842 
 308   0.0000       1.898610        51.6638 
 309   0.0000       1.898870        51.6709 
 310   0.0000       1.901425        51.7404 
 311   0.0000       1.906018        51.8654 
 312   0.0000       1.907867        51.9157 
 313   0.0000       1.909925        51.9717 
 314   0.0000       1.912459        52.0406 
 315   0.0000       1.916004        52.1371 
 316   0.0000       1.917110        52.1672 
 317   0.0000       1.922094        52.3028 
 318   0.0000       1.922753        52.3208 
 319   0.0000       1.923774        52.3486 
 320   0.0000       1.924734        52.3747 
 321   0.0000       1.925947        52.4077 
 322   0.0000       1.927558        52.4515 
 323   0.0000       1.932561        52.5877 
 324   0.0000       1.933750        52.6200 
 325   0.0000       1.936469        52.6940 
 326   0.0000       1.937488        52.7217 
 327   0.0000       1.942016        52.8449 
 328   0.0000       1.944442        52.9109 
 329   0.0000       1.948519        53.0219 
 330   0.0000       1.950207        53.0678 
 331   0.0000       1.951102        53.0922 
 332   0.0000       1.954265        53.1783 
[...]
 3 117   65588.8    152.5   0.000000010   0.00000   0.00040   0.00052   0.00110
 3 118   65731.7    152.1   0.000000179   0.00003   0.00502   0.00038   0.00191
 3 119   65736.6    152.1   0.000000001   0.00000   0.00028   0.00019   0.00008
 3 120   65755.2    152.1   0.000000015   0.00000   0.00150   0.00009   0.00045
 3 121   66121.1    151.2   0.000000000   0.00000   0.00017   0.00002   0.00007
 3 122   66123.0    151.2   0.000000001   0.00000   0.00016   0.00007   0.00031
 3 123   66125.0    151.2   0.000000004   0.00000   0.00025   0.00063   0.00042
 3 124   66625.7    150.1   0.000000000   0.00000   0.00003   0.00001   0.00004
 3 125   66631.9    150.1   0.000000124   0.00002   0.00415   0.00028   0.00162
 3 126   66632.6    150.1   0.000000092   0.00001   0.00358   0.00026   0.00138
 3 127   70484.6    141.9   0.000000000   0.00000   0.00014   0.00002   0.00006
 3 128   70488.7    141.9   0.000000004   0.00000   0.00025   0.00050   0.00052
 3 129   70491.4    141.9   0.000000005   0.00000   0.00028   0.00031   0.00078
 3 130   70766.3    141.3   0.000000001   0.00000   0.00036   0.00005   0.00011
 3 131   70767.5    141.3   0.000000019   0.00000   0.00156   0.00012   0.00059
 3 132   70768.1    141.3   0.000000000   0.00000   0.00001   0.00000   0.00004
 3 133   77697.0    128.7   0.000000000   0.00000   0.00002   0.00000   0.00000
 3 134   77698.6    128.7   0.000000001   0.00000   0.00032   0.00006   0.00012
 3 135   77700.1    128.7   0.000000018   0.00000   0.00147   0.00010   0.00056
 3 136   79182.3    126.3   0.000000004   0.00000   0.00068   0.00005   0.00027
 3 137   79183.3    126.3   0.000000000   0.00000   0.00001   0.00002   0.00003
 3 138   79185.2    126.3   0.000000000   0.00000   0.00001   0.00000   0.00001
 3 139   82883.6    120.7   0.000000000   0.00000   0.00000   0.00000   0.00000
 3 140   82887.7    120.6   0.000000000   0.00000   0.00005   0.00001   0.00002
 3 141   82890.7    120.6   0.000000001   0.00000   0.00036   0.00001   0.00013
 3 142   84625.8    118.2   0.000000000   0.00000   0.00000   0.00005   0.00001
 3 143   84626.2    118.2   0.000000001   0.00000   0.00011   0.00017   0.00032
 3 144   84629.1    118.2   0.000000000   0.00000   0.00000   0.00000   0.00000
 3 145   90707.2    110.2   0.000000004   0.00000   0.00068   0.00005   0.00024
 3 146   90707.4    110.2   0.000000000   0.00000   0.00002   0.00001   0.00001
 3 147   90707.9    110.2   0.000000000   0.00000   0.00000   0.00000   0.00000
 3 148  141394.2     70.7   0.000000000   0.00000   0.00000   0.00000   0.00000
 3 149  141394.9     70.7   0.000000001   0.00000   0.00020   0.00001   0.00009
 3 150  141395.5     70.7   0.000000000   0.00000   0.00015   0.00001   0.00006
 3 151  182500.4     54.8   0.000000000   0.00000   0.00001   0.00002   0.00002
 3 152  182500.7     54.8   0.000000000   0.00000   0.00000   0.00002   0.00003
 3 153  182502.0     54.8   0.000000000   0.00000   0.00000   0.00000   0.00000
 3 154  201136.8     49.7   0.000000000   0.00000   0.00000   0.00000   0.00000
 3 155  201137.2     49.7   0.000000000   0.00000   0.00004   0.00003   0.00009
 3 156  201137.7     49.7   0.000000000   0.00000   0.00002   0.00002   0.00003
 3 157  265475.7     37.7   0.000000000   0.00000   0.00000   0.00000   0.00000
 3 158  265475.9     37.7   0.000000000   0.00000   0.00001   0.00009   0.00001
 3 159  265476.0     37.7   0.000000000   0.00000   0.00002   0.00002   0.00005
 4  5   18821.5    531.3   0.000000001   0.00000   0.00082   0.00006   0.00030
 4  6   18822.4    531.3   0.000000004   0.00000   0.00146   0.00010   0.00056
 4  7   18829.3    531.1   0.000000006   0.00000   0.00043   0.00121   0.00133
 4  8   18839.2    530.8   0.000000000   0.00000   0.00006   0.00033   0.00014
 4  9   18843.9    530.7   0.000000001   0.00000   0.00070   0.00005   0.00028
 4 10   18869.2    530.0   0.000000000   0.00000   0.00041   0.00000   0.00014
 4 11   18886.9    529.5   0.000000000   0.00000   0.00010   0.00024   0.00022
 4 12   18903.9    529.0   0.000000004   0.00000   0.00023   0.00125   0.00061
 4 13   18910.1    528.8   0.000000000   0.00000   0.00025   0.00002   0.00011
 4 14   20453.3    488.9   0.000000000   0.00000   0.00029   0.00002   0.00009
 4 15   20453.9    488.9   0.000000003   0.00000   0.00119   0.00012   0.00040
 4 16   20454.0    488.9   0.000000002   0.00000   0.00014   0.00061   0.00075
 4 17   23672.3    422.4   0.000000003   0.00000   0.00100   0.00007   0.00038
 4 18   23674.5    422.4   0.000000001   0.00000   0.00003   0.00075   0.00012
 4 19   23674.9    422.4   0.000000000   0.00000   0.00001   0.00003   0.00001
 4 20   26109.9    383.0   0.000000006   0.00000   0.00145   0.00012   0.00058
 4 21   26111.1    383.0   0.000000000   0.00000   0.00004   0.00000   0.00003
 4 22   26116.6    382.9   0.000000000   0.00000   0.00010   0.00031   0.00026
 4 23   30216.4    330.9   0.000000001   0.00000   0.00005   0.00039   0.00018
 4 24   30218.2    330.9   0.000000005   0.00000   0.00126   0.00009   0.00047
 4 25   30304.7    330.0   0.000000000   0.00000   0.00015   0.00002   0.00006
 4 26   30396.1    329.0   0.000000000   0.00000   0.00000   0.00010   0.00002
 4 27   30421.6    328.7   0.000000000   0.00000   0.00010   0.00007   0.00022
 4 28   30428.0    328.6   0.000000000   0.00000   0.00028   0.00003   0.00012
 4 29   30492.3    328.0   0.000000002   0.00000   0.00006   0.00082   0.00036
 4 30   30536.4    327.5   0.000000003   0.00000   0.00102   0.00007   0.00037
 4 31   30542.7    327.4   0.000000000   0.00000   0.00002   0.00015   0.00004
 4 32   31727.2    315.2   0.000000000   0.00000   0.00027   0.00005   0.00010
 4 33   31747.3    315.0   0.000000000   0.00000   0.00035   0.00003   0.00014
 4 34   31748.5    315.0   0.000000000   0.00000   0.00009   0.00006   0.00016
 4 35   32882.9    304.1   0.000000003   0.00000   0.00079   0.00004   0.00053
 4 36   32885.7    304.1   0.000000001   0.00000   0.00013   0.00046   0.00040
 4 37   32897.2    304.0   0.000000001   0.00000   0.00009   0.00046   0.00049
 4 38   34419.9    290.5   0.000000008   0.00000   0.00142   0.00010   0.00055
 4 39   34426.8    290.5   0.000000000   0.00000   0.00002   0.00001   0.00005
 4 40   34429.4    290.4   0.000000000   0.00000   0.00027   0.00002   0.00013
 4 41   35876.3    278.7   0.000000001   0.00000   0.00022   0.00041   0.00020
 4 42   35884.1    278.7   0.000000002   0.00000   0.00062   0.00007   0.00025
 4 43   35884.6    278.7   0.000000000   0.00000   0.00034   0.00003   0.00015
 4 44   38959.1    256.7   0.000000009   0.00000   0.00100   0.00066   0.00104
 4 45   38960.0    256.7   0.000000048   0.00001   0.00348   0.00002   0.00102
 4 46   38961.4    256.7   0.000000001   0.00000   0.00023   0.00007   0.00040
 4 47   49056.9    203.8   0.000000000   0.00000   0.00003   0.00008   0.00002
 4 48   49057.0    203.8   0.000000001   0.00000   0.00045   0.00005   0.00017
 4 49   49057.4    203.8   0.000000001   0.00000   0.00037   0.00003   0.00014
 4 50   49258.2    203.0   0.000000003   0.00000   0.00059   0.00024   0.00045
 4 51   49258.4    203.0   0.000000026   0.00001   0.00043   0.00131   0.00194
 4 52   49258.5    203.0   0.000000020   0.00000   0.00081   0.00013   0.00192
 4 53   53180.6    188.0   0.000000052   0.00001   0.00298   0.00050   0.00114
 4 54   53180.9    188.0   0.000000002   0.00000   0.00055   0.00031   0.00014
 4 55   53203.3    188.0   0.000011500   0.00231   0.04470   0.00315   0.01731
 4 56   53462.6    187.0   0.000001741   0.00035   0.00652   0.00636   0.01627
 4 57   53482.4    187.0   0.000096627   0.01929   0.04898   0.04733   0.12103
 4 58   53482.6    187.0   0.000933358   0.18630   0.40130   0.02821   0.15642
 4 59   53487.6    187.0   0.000004463   0.00089   0.02932   0.00467   0.00310
 4 60   53488.1    187.0   0.000006789   0.00136   0.03058   0.00048   0.02049
 4 61   53539.8    186.8   0.000004091   0.00082   0.02677   0.00230   0.00970
 4 62   53548.0    186.7   0.000000286   0.00006   0.00091   0.00243   0.00709
 4 63   53580.5    186.6   0.000082409   0.01642   0.04057   0.04339   0.11354
 4 64   53619.4    186.5   0.001298054   0.25844   0.47314   0.03384   0.18285
 4 65   53653.0    186.4   0.000000283   0.00006   0.00535   0.00251   0.00461
 4 66   53654.1    186.4   0.000013800   0.00275   0.04866   0.00365   0.01910
 4 67   53698.1    186.2   0.001827434   0.36330   0.56241   0.04176   0.21272
 4 68   53698.1    186.2   0.000061564   0.01224   0.01156   0.03495   0.10433
 4 69   55184.5    181.2   0.000000025   0.00000   0.00085   0.00060   0.00192
 4 70   55188.0    181.2   0.000000183   0.00004   0.00561   0.00036   0.00194
 4 71   55196.5    181.2   0.000000009   0.00000   0.00023   0.00023   0.00125
 4 72   55855.3    179.0   0.000014801   0.00283   0.04882   0.00754   0.01971
 4 73   55878.8    179.0   0.000003647   0.00070   0.02447   0.00100   0.00984
 4 74   55880.2    179.0   0.000000132   0.00003   0.00355   0.00169   0.00313
 4 75   55972.3    178.7   0.000034458   0.00657   0.07434   0.01198   0.03003
 4 76   55972.4    178.7   0.000000154   0.00003   0.00521   0.00145   0.00031
 4 77   56194.8    178.0   0.000001045   0.00020   0.01320   0.00075   0.00487
 4 78   56199.5    177.9   0.000000102   0.00002   0.00037   0.00129   0.00419
 4 79   56213.3    177.9   0.000003684   0.00070   0.02429   0.00424   0.00957
 4 80   58473.5    171.0   0.000000007   0.00000   0.00037   0.00059   0.00090
 4 81   58476.8    171.0   0.000000001   0.00000   0.00008   0.00036   0.00006
 4 82   58488.1    171.0   0.000000005   0.00000   0.00086   0.00010   0.00037
 4 83   58800.7    170.1   0.000000104   0.00002   0.00405   0.00025   0.00154
 4 84   58814.8    170.0   0.000000014   0.00000   0.00075   0.00050   0.00133
 4 85   58816.4    170.0   0.000000004   0.00000   0.00023   0.00001   0.00078
 4 86   59817.0    167.2   0.000000005   0.00000   0.00007   0.00027   0.00094
 4 87   59818.1    167.2   0.000000003   0.00000   0.00066   0.00013   0.00026
 4 88   59829.1    167.1   0.000001288   0.00023   0.01412   0.00104   0.00543
 4 89   60157.8    166.2   0.000068252   0.01211   0.10267   0.00695   0.03902
 4 90   60158.0    166.2   0.000001090   0.00019   0.01291   0.00118   0.00504
 4 91   60164.0    166.2   0.000000001   0.00000   0.00026   0.00019   0.00009
 4 92   60167.6    166.2   0.000000094   0.00002   0.00100   0.00139   0.00370
 4 93   60169.6    166.2   0.000032358   0.00574   0.07068   0.00482   0.02686
 4 94   60231.0    166.0   0.000000003   0.00000   0.00049   0.00021   0.00048
 4 95   60236.4    166.0   0.000000021   0.00000   0.00179   0.00016   0.00070
 4 96   60238.3    166.0   0.000000013   0.00000   0.00085   0.00027   0.00124
 4 97   60990.3    164.0   0.000000002   0.00000   0.00034   0.00009   0.00043
 4 98   60992.5    164.0   0.000000200   0.00003   0.00554   0.00027   0.00205
 4 99   60999.3    163.9   0.000000002   0.00000   0.00042   0.00031   0.00002
 4 100   61081.8    163.7   0.000000104   0.00002   0.00397   0.00028   0.00151
 4 101   61084.2    163.7   0.000000005   0.00000   0.00084   0.00005   0.00027
 4 102   61097.8    163.7   0.000000004   0.00000   0.00024   0.00008   0.00084
 4 103   61640.8    162.2   0.000000004   0.00000   0.00019   0.00070   0.00045
 4 104   61654.2    162.2   0.000000000   0.00000   0.00019   0.00009   0.00005
 4 105   61661.0    162.2   0.000000194   0.00003   0.00539   0.00040   0.00210
 4 106   63587.1    157.3   0.000000003   0.00000   0.00003   0.00059   0.00035
 4 107   63589.4    157.3   0.000000009   0.00000   0.00038   0.00089   0.00079
 4 108   63591.1    157.3   0.000000010   0.00000   0.00119   0.00013   0.00047
 4 109   63675.1    157.0   0.000000013   0.00000   0.00137   0.00008   0.00051
 4 110   63683.1    157.0   0.000000000   0.00000   0.00003   0.00017   0.00008
 4 111   63687.2    157.0   0.000000001   0.00000   0.00013   0.00007   0.00041
 4 112   65020.3    153.8   0.000000064   0.00001   0.00307   0.00013   0.00103
 4 113   65032.0    153.8   0.000000007   0.00000   0.00097   0.00006   0.00037
 4 114   65049.7    153.7   0.000000001   0.00000   0.00026   0.00003   0.00014
 4 115   65570.1    152.5   0.000000014   0.00000   0.00047   0.00048   0.00136
 4 116   65572.8    152.5   0.000000005   0.00000   0.00084   0.00007   0.00037
 4 117   65588.4    152.5   0.000000001   0.00000   0.00013   0.00026   0.00003
 4 118   65731.3    152.1   0.000000003   0.00000   0.00072   0.00004   0.00021
 4 119   65736.2    152.1   0.000000000   0.00000   0.00015   0.00016   0.00011
 4 120   65754.8    152.1   0.000000266   0.00004   0.00612   0.00047   0.00234
 4 121   66120.7    151.2   0.000000011   0.00000   0.00122   0.00012   0.00047
 4 122   66122.6    151.2   0.000000003   0.00000   0.00020   0.00061   0.00033
 4 123   66124.6    151.2   0.000000000   0.00000   0.00007   0.00009   0.00018
 4 124   66625.3    150.1   0.000000003   0.00000   0.00017   0.00049   0.00039
 4 125   66631.5    150.1   0.000000034   0.00001   0.00218   0.00016   0.00084
 4 126   66632.2    150.1   0.000000055   0.00001   0.00276   0.00017   0.00107
 4 127   70484.2    141.9   0.000000000   0.00000   0.00016   0.00003   0.00006
 4 128   70488.4    141.9   0.000000002   0.00000   0.00017   0.00024   0.00050
 4 129   70491.0    141.9   0.000000004   0.00000   0.00026   0.00057   0.00052
 4 130   70765.9    141.3   0.000000024   0.00000   0.00178   0.00013   0.00068
 4 131   70767.1    141.3   0.000000000   0.00000   0.00015   0.00003   0.00005
 4 132   70767.7    141.3   0.000000001   0.00000   0.00015   0.00004   0.00043
 4 133   77696.6    128.7   0.000000000   0.00000   0.00001   0.00009   0.00003
 4 134   77698.2    128.7   0.000000024   0.00000   0.00171   0.00012   0.00065
 4 135   77699.7    128.7   0.000000000   0.00000   0.00022   0.00004   0.00008
 4 136   79182.0    126.3   0.000000000   0.00000   0.00001   0.00001   0.00002
 4 137   79182.9    126.3   0.000000005   0.00000   0.00076   0.00006   0.00029
 4 138   79184.8    126.3   0.000000000   0.00000   0.00006   0.00004   0.00012
 4 139   82883.3    120.7   0.000000000   0.00000   0.00004   0.00006   0.00011
 4 140   82887.3    120.6   0.000000000   0.00000   0.00023   0.00001   0.00008
 4 141   82890.3    120.6   0.000000000   0.00000   0.00007   0.00001   0.00002
 4 142   84625.5    118.2   0.000000001   0.00000   0.00007   0.00012   0.00022
 4 143   84625.8    118.2   0.000000000   0.00000   0.00000   0.00006   0.00002
 4 144   84628.7    118.2   0.000000000   0.00000   0.00020   0.00002   0.00007
 4 145   90706.9    110.2   0.000000000   0.00000   0.00002   0.00000   0.00001
 4 146   90707.1    110.2   0.000000002   0.00000   0.00046   0.00004   0.00016
 4 147   90707.5    110.2   0.000000000   0.00000   0.00000   0.00001   0.00001
 4 148  141393.8     70.7   0.000000000   0.00000   0.00002   0.00001   0.00001
 4 149  141394.5     70.7   0.000000000   0.00000   0.00016   0.00001   0.00006
 4 150  141395.1     70.7   0.000000000   0.00000   0.00013   0.00000   0.00005
 4 151  182500.0     54.8   0.000000000   0.00000   0.00000   0.00001   0.00002
 4 152  182500.3     54.8   0.000000000   0.00000   0.00001   0.00003   0.00002
 4 153  182501.6     54.8   0.000000000   0.00000   0.00000   0.00000   0.00001
 4 154  201136.4     49.7   0.000000006   0.00000   0.00054   0.00004   0.00021
 4 155  201136.8     49.7   0.000000000   0.00000   0.00001   0.00001   0.00003
 4 156  201137.3     49.7   0.000000000   0.00000   0.00004   0.00004   0.00011
 4 157  265475.3     37.7   0.000000000   0.00000   0.00001   0.00000   0.00000
 4 158  265475.5     37.7   0.000000000   0.00000   0.00002   0.00001   0.00005
 4 159  265475.6     37.7   0.000000000   0.00000   0.00000   0.00007   0.00002

------------------------------------------------------------------------------
                           SOC CORRECTED DIPOLE MOMENTS
------------------------------------------------------------------------------
      TX        TY        TZ           |T|
   (Debye)   (Debye)   (Debye)      (Debye)
------------------------------------------------------------------------------
  -8.24138 -79.99955  -5.00051     80.57824

--------------
CASSCF TIMINGS
--------------

Total time                       ...     1487.3 sec
Sum of individual times          ...     1489.5 sec (100.2%)

Calculation of AO operators
   F(Core) operator              ...       14.6 sec (  1.0%)
   G(Act) operator               ...       14.1 sec (  0.9%)
   J(AO) operators               ...        0.0 sec (  0.0%)
Calculation of MO transformed quantities
   J(MO) operators               ...        1.4 sec (  0.1%)
   (pq|rs) integrals             ...        0.0 sec (  0.0%)
   AO->MO one electron integrals ...        0.1 sec (  0.0%)
Configuration interaction steps
   CI-setup phase                ...        0.0 sec (  0.0%)
   CI-solution phase             ...        0.1 sec (  0.0%)
   Generation of densities       ...        0.0 sec (  0.0%)
Orbital improvement steps
   Orbital gradient              ...        0.0 sec (  0.0%)
PT2 
   NEVPT2 time                   ...     1447.5 sec ( 97.3%)
Properties                       ...        6.4 sec (  0.4%)
   SOC integral calculation      ...        5.3 sec (  0.4%)
   SSC RMEs (incl. integrals)    ...        0.0 sec (  0.0%)
   SOC RMEs                      ...        0.0 sec (  0.0%)

Maximum memory used throughout the entire CASSCF-calculation: 733.0 MB

-------------------------   --------------------
FINAL SINGLE POINT ENERGY     -2396.332351825772
-------------------------   --------------------


                            ***************************************
                            *     ORCA property calculations      *
                            ***************************************

                                    ---------------------
                                    Active property flags
                                    ---------------------
   (+) Dipole Moment


------------------------------------------------------------------------------
                       ORCA ELECTRIC PROPERTIES CALCULATION
------------------------------------------------------------------------------

Dipole Moment Calculation                       ... on
Quadrupole Moment Calculation                   ... off
Polarizability Calculation                      ... off
GBWName                                         ... nevpt2.gbw
Electron density                                ... nevpt2.scfp
The origin for moment calculation is the CENTER OF MASS  = (15.228541, 12.392257 17.707767)

-------------
DIPOLE MOMENT
-------------
                                X             Y             Z
Electronic contribution:      3.33387      31.83086       2.12037
Nuclear contribution   :     -3.24234     -31.47360      -1.96730
                        -----------------------------------------
Total Dipole Moment    :      0.09153       0.35727       0.15306
                        -----------------------------------------
Magnitude (a.u.)       :      0.39931
Magnitude (Debye)      :      1.01496



--------------------
Rotational spectrum 
--------------------
 
Rotational constants in cm-1:     0.002237     0.001584     0.001234 
Rotational constants in MHz :    67.059353    47.501317    36.993885 

 Dipole components along the rotational axes: 
x,y,z [a.u.] :    -0.095290    -0.004556    -0.387744 
x,y,z [Debye]:    -0.242209    -0.011581    -0.985567 

 

Timings for individual modules:

Sum of individual times         ...     1496.758 sec (=  24.946 min)
GTO integral calculation        ...        4.650 sec (=   0.078 min)   0.3 %
SCF iterations                  ...        1.875 sec (=   0.031 min)   0.1 %
CASSCF iterations               ...     1490.233 sec (=  24.837 min)  99.6 %
                             ****ORCA TERMINATED NORMALLY****
TOTAL RUN TIME: 0 days 0 hours 24 minutes 57 seconds 185 msec
