
                                 *****************
                                 * O   R   C   A *
                                 *****************

                                            #,                                       
                                            ###                                      
                                            ####                                     
                                            #####                                    
                                            ######                                   
                                           ########,                                 
                                     ,,################,,,,,                         
                               ,,#################################,,                 
                          ,,##########################################,,             
                       ,#########################################, ''#####,          
                    ,#############################################,,   '####,        
                  ,##################################################,,,,####,       
                ,###########''''           ''''###############################       
              ,#####''   ,,,,##########,,,,          '''####'''          '####       
            ,##' ,,,,###########################,,,                        '##       
           ' ,,###''''                  '''############,,,                           
         ,,##''                                '''############,,,,        ,,,,,,###''
      ,#''                                            '''#######################'''  
     '                                                          ''''####''''         
             ,#######,   #######,   ,#######,      ##                                
            ,#'     '#,  ##    ##  ,#'     '#,    #''#        ######   ,####,        
            ##       ##  ##   ,#'  ##            #'  '#       #        #'  '#        
            ##       ##  #######   ##           ,######,      #####,   #    #        
            '#,     ,#'  ##    ##  '#,     ,#' ,#      #,         ##   #,  ,#        
             '#######'   ##     ##  '#######'  #'      '#     #####' # '####'        



                  #######################################################
                  #                        -***-                        #
                  #          Department of theory and spectroscopy      #
                  #    Directorship and core code : Frank Neese         #
                  #        Max Planck Institute fuer Kohlenforschung    #
                  #                Kaiser Wilhelm Platz 1               #
                  #                 D-45470 Muelheim/Ruhr               #
                  #                      Germany                        #
                  #                                                     #
                  #                  All rights reserved                #
                  #                        -***-                        #
                  #######################################################


                         Program Version 5.0.3 -  RELEASE  -


 With contributions from (in alphabetic order):
   Daniel Aravena         : Magnetic Suceptibility
   Michael Atanasov       : Ab Initio Ligand Field Theory (pilot matlab implementation)
   Alexander A. Auer      : GIAO ZORA, VPT2 properties, NMR spectrum
   Ute Becker             : Parallelization
   Giovanni Bistoni       : ED, misc. LED, open-shell LED, HFLD
   Martin Brehm           : Molecular dynamics
   Dmytro Bykov           : SCF Hessian
   Vijay G. Chilkuri      : MRCI spin determinant printing, contributions to CSF-ICE
   Dipayan Datta          : RHF DLPNO-CCSD density
   Achintya Kumar Dutta   : EOM-CC, STEOM-CC
   Dmitry Ganyushin       : Spin-Orbit,Spin-Spin,Magnetic field MRCI
   Miquel Garcia          : C-PCM and meta-GGA Hessian, CC/C-PCM, Gaussian charge scheme
   Yang Guo               : DLPNO-NEVPT2, F12-NEVPT2, CIM, IAO-localization
   Andreas Hansen         : Spin unrestricted coupled pair/coupled cluster methods
   Benjamin Helmich-Paris : MC-RPA, TRAH-SCF, COSX integrals
   Lee Huntington         : MR-EOM, pCC
   Robert Izsak           : Overlap fitted RIJCOSX, COSX-SCS-MP3, EOM
   Marcus Kettner         : VPT2
   Christian Kollmar      : KDIIS, OOCD, Brueckner-CCSD(T), CCSD density, CASPT2, CASPT2-K
   Simone Kossmann        : Meta GGA functionals, TD-DFT gradient, OOMP2, MP2 Hessian
   Martin Krupicka        : Initial AUTO-CI
   Lucas Lang             : DCDCAS
   Marvin Lechner         : AUTO-CI (C++ implementation), FIC-MRCC
   Dagmar Lenk            : GEPOL surface, SMD
   Dimitrios Liakos       : Extrapolation schemes; Compound Job, initial MDCI parallelization
   Dimitrios Manganas     : Further ROCIS development; embedding schemes
   Dimitrios Pantazis     : SARC Basis sets
   Anastasios Papadopoulos: AUTO-CI, single reference methods and gradients
   Taras Petrenko         : DFT Hessian,TD-DFT gradient, ASA, ECA, R-Raman, ABS, FL, XAS/XES, NRVS
   Peter Pinski           : DLPNO-MP2, DLPNO-MP2 Gradient
   Christoph Reimann      : Effective Core Potentials
   Marius Retegan         : Local ZFS, SOC
   Christoph Riplinger    : Optimizer, TS searches, QM/MM, DLPNO-CCSD(T), (RO)-DLPNO pert. Triples
   Tobias Risthaus        : Range-separated hybrids, TD-DFT gradient, RPA, STAB
   Michael Roemelt        : Original ROCIS implementation
   Masaaki Saitow         : Open-shell DLPNO-CCSD energy and density
   Barbara Sandhoefer     : DKH picture change effects
   Avijit Sen             : IP-ROCIS
   Kantharuban Sivalingam : CASSCF convergence, NEVPT2, FIC-MRCI
   Bernardo de Souza      : ESD, SOC TD-DFT
   Georgi Stoychev        : AutoAux, RI-MP2 NMR, DLPNO-MP2 response
   Willem Van den Heuvel  : Paramagnetic NMR
   Boris Wezisla          : Elementary symmetry handling
   Frank Wennmohs         : Technical directorship


 We gratefully acknowledge several colleagues who have allowed us to
 interface, adapt or use parts of their codes:
   Stefan Grimme, W. Hujo, H. Kruse, P. Pracht,  : VdW corrections, initial TS optimization,
                  C. Bannwarth, S. Ehlert          DFT functionals, gCP, sTDA/sTD-DF
   Ed Valeev, F. Pavosevic, A. Kumar             : LibInt (2-el integral package), F12 methods
   Garnet Chan, S. Sharma, J. Yang, R. Olivares  : DMRG
   Ulf Ekstrom                                   : XCFun DFT Library
   Mihaly Kallay                                 : mrcc  (arbitrary order and MRCC methods)
   Jiri Pittner, Ondrej Demel                    : Mk-CCSD
   Frank Weinhold                                : gennbo (NPA and NBO analysis)
   Christopher J. Cramer and Donald G. Truhlar   : smd solvation model
   Lars Goerigk                                  : TD-DFT with DH, B97 family of functionals
   V. Asgeirsson, H. Jonsson                     : NEB implementation
   FAccTs GmbH                                   : IRC, NEB, NEB-TS, DLPNO-Multilevel, CI-OPT
                                                   MM, QMMM, 2- and 3-layer-ONIOM, Crystal-QMMM,
                                                   LR-CPCM, SF, NACMEs, symmetry and pop. for TD-DFT,
                                                   nearIR, NL-DFT gradient (VV10), updates on ESD,
                                                   ML-optimized integration grids
   S Lehtola, MJT Oliveira, MAL Marques          : LibXC Library
   Liviu Ungur et al                             : ANISO software


 Your calculation uses the libint2 library for the computation of 2-el integrals
 For citations please refer to: http://libint.valeyev.net

 Your ORCA version has been built with support for libXC version: 5.1.0
 For citations please refer to: https://tddft.org/programs/libxc/

 This ORCA versions uses:
   CBLAS   interface :  Fast vector & matrix operations
   LAPACKE interface :  Fast linear algebra routines
   SCALAPACK package :  Parallel linear algebra routines
   Shared memory     :  Shared parallel matrices
   BLAS/LAPACK       :  OpenBLAS 0.3.15  USE64BITINT DYNAMIC_ARCH NO_AFFINITY Sandybridge SINGLE_THREADED
        Core in use  :  Sandybridge
   Copyright (c) 2011-2014, The OpenBLAS Project




***************************************
The coordinates will be read from file: pbe.xyz
***************************************


================================================================================

cite the ECPs for Au [Def2-ECP] as follows:
Ce-Yb(ecp-28): M. Dolg, H. Stoll, H.Preuss, J. Chem. Phys., 1989, 90, 1730-1734.
Y-Cd(ecp-28), Hf-Hg(ecp-46): D. Andrae,U. Haeussermann, M. Dolg, H. Stoll, H. Preuss, Theor. Chim. Acta, 1990, 77, 123-141.
In-Sb(ecp-28), Tl-Bi(ecp-46): B. Metz, H. Stoll, M. Dolg, J. Chem. Phys., 2000, 113, 2563-2569.
Te-Xe(ecp-28), Po-Rn(ecp-46): K. A. Peterson, D. Figgen, E. Goll, H. Stoll, M. Dolg, J. Chem. Phys., 2003, 119, 11113-11123.
Rb(ecp-28), Cs(ecp-46): T. Leininger, A. Nicklass, W. Kuechle, H. Stoll, M. Dolg, A. Bergner, Chem. Phys. Lett., 1996, 255, 274-280.
Sr(ecp-28), Ba(ecp-46): M. Kaupp, P. V. Schleyer, H. Stoll and H. Preuss, J. Chem. Phys., 1991, 94, 1360-1366.
La(ecp-46): M. Dolg, H. Stoll, A. Savin, H. Preuss, Theor. Chim. Acta, 1989, 75, 173-194.
Lu(ecp-28): X. Cao, M. Dolg, J. Chem. Phys., 2001, 115, 7348-7355.

ECP parameters for Au [Def2-ECP] have been obtained from:
TURBOMOLE (7.0.2)

----- Orbital basis set information -----
Your calculation utilizes the basis: def2-TZVP
   F. Weigend and R. Ahlrichs, Phys. Chem. Chem. Phys. 7, 3297 (2005).

----- AuxJ basis set information -----
Your calculation utilizes the auxiliary basis: def2/J
   F. Weigend, Phys. Chem. Chem. Phys. 8, 1057 (2006).

================================================================================
                                        WARNINGS
                       Please study these warnings very carefully!
================================================================================

Using LibXC functional ID 497 : Re-regularized SCAN exchange by Furness et al
[ 1]  J. W. Furness, A. D. Kaplan, J. Ning, J. P. Perdew, and J. Sun, J. Phys. Chem. Lett. 11, 8208 (2020)
[ 2]  J. W. Furness, A. D. Kaplan, J. Ning, J. P. Perdew, and J. Sun, J. Phys. Chem. Lett. 11, 9248 (2020)
Using LibXC functional ID 498 : Re-regularized SCAN correlation by Furness et al
[ 1]  J. W. Furness, A. D. Kaplan, J. Ning, J. P. Perdew, and J. Sun, J. Phys. Chem. Lett. 11, 8208 (2020)
[ 2]  J. W. Furness, A. D. Kaplan, J. Ning, J. P. Perdew, and J. Sun, J. Phys. Chem. Lett. 11, 9248 (2020)
Using LibXC functional ID 497 : Re-regularized SCAN exchange by Furness et al
[ 1]  J. W. Furness, A. D. Kaplan, J. Ning, J. P. Perdew, and J. Sun, J. Phys. Chem. Lett. 11, 8208 (2020)
[ 2]  J. W. Furness, A. D. Kaplan, J. Ning, J. P. Perdew, and J. Sun, J. Phys. Chem. Lett. 11, 9248 (2020)
Using LibXC functional ID 498 : Re-regularized SCAN correlation by Furness et al
[ 1]  J. W. Furness, A. D. Kaplan, J. Ning, J. P. Perdew, and J. Sun, J. Phys. Chem. Lett. 11, 8208 (2020)
[ 2]  J. W. Furness, A. D. Kaplan, J. Ning, J. P. Perdew, and J. Sun, J. Phys. Chem. Lett. 11, 9248 (2020)

WARNING: your system is open-shell and RHF/RKS was chosen
  ===> : WILL SWITCH to UHF/UKS


INFO   : the flag for use of the SHARK integral package has been found!



***************************************
The coordinates will be read from file: pbe.xyz
***************************************


================================================================================

cite the ECPs for Au [Def2-ECP] as follows:
Ce-Yb(ecp-28): M. Dolg, H. Stoll, H.Preuss, J. Chem. Phys., 1989, 90, 1730-1734.
Y-Cd(ecp-28), Hf-Hg(ecp-46): D. Andrae,U. Haeussermann, M. Dolg, H. Stoll, H. Preuss, Theor. Chim. Acta, 1990, 77, 123-141.
In-Sb(ecp-28), Tl-Bi(ecp-46): B. Metz, H. Stoll, M. Dolg, J. Chem. Phys., 2000, 113, 2563-2569.
Te-Xe(ecp-28), Po-Rn(ecp-46): K. A. Peterson, D. Figgen, E. Goll, H. Stoll, M. Dolg, J. Chem. Phys., 2003, 119, 11113-11123.
Rb(ecp-28), Cs(ecp-46): T. Leininger, A. Nicklass, W. Kuechle, H. Stoll, M. Dolg, A. Bergner, Chem. Phys. Lett., 1996, 255, 274-280.
Sr(ecp-28), Ba(ecp-46): M. Kaupp, P. V. Schleyer, H. Stoll and H. Preuss, J. Chem. Phys., 1991, 94, 1360-1366.
La(ecp-46): M. Dolg, H. Stoll, A. Savin, H. Preuss, Theor. Chim. Acta, 1989, 75, 173-194.
Lu(ecp-28): X. Cao, M. Dolg, J. Chem. Phys., 2001, 115, 7348-7355.

ECP parameters for Au [Def2-ECP] have been obtained from:
TURBOMOLE (7.0.2)

----- Orbital basis set information -----
Your calculation utilizes the basis: def2-TZVP
   F. Weigend and R. Ahlrichs, Phys. Chem. Chem. Phys. 7, 3297 (2005).

----- AuxJ basis set information -----
Your calculation utilizes the auxiliary basis: def2/J
   F. Weigend, Phys. Chem. Chem. Phys. 8, 1057 (2006).

================================================================================
                                        WARNINGS
                       Please study these warnings very carefully!
================================================================================

Using LibXC functional ID 497 : Re-regularized SCAN exchange by Furness et al
[ 1]  J. W. Furness, A. D. Kaplan, J. Ning, J. P. Perdew, and J. Sun, J. Phys. Chem. Lett. 11, 8208 (2020)
[ 2]  J. W. Furness, A. D. Kaplan, J. Ning, J. P. Perdew, and J. Sun, J. Phys. Chem. Lett. 11, 9248 (2020)
Using LibXC functional ID 498 : Re-regularized SCAN correlation by Furness et al
[ 1]  J. W. Furness, A. D. Kaplan, J. Ning, J. P. Perdew, and J. Sun, J. Phys. Chem. Lett. 11, 8208 (2020)
[ 2]  J. W. Furness, A. D. Kaplan, J. Ning, J. P. Perdew, and J. Sun, J. Phys. Chem. Lett. 11, 9248 (2020)
Using LibXC functional ID 497 : Re-regularized SCAN exchange by Furness et al
[ 1]  J. W. Furness, A. D. Kaplan, J. Ning, J. P. Perdew, and J. Sun, J. Phys. Chem. Lett. 11, 8208 (2020)
[ 2]  J. W. Furness, A. D. Kaplan, J. Ning, J. P. Perdew, and J. Sun, J. Phys. Chem. Lett. 11, 9248 (2020)
Using LibXC functional ID 498 : Re-regularized SCAN correlation by Furness et al
[ 1]  J. W. Furness, A. D. Kaplan, J. Ning, J. P. Perdew, and J. Sun, J. Phys. Chem. Lett. 11, 8208 (2020)
[ 2]  J. W. Furness, A. D. Kaplan, J. Ning, J. P. Perdew, and J. Sun, J. Phys. Chem. Lett. 11, 9248 (2020)

INFO   : the flag for use of the SHARK integral package has been found!

================================================================================
                                       INPUT FILE
================================================================================
NAME = scan.inp
|  1> !R2SCAN def2-TZVP VERYSLOWCONV
|  2> !KDIIS
|  3> %scf
|  4>   AutoTRAHIter 200
|  5>   maxiter 400
|  6> end
|  7> 
|  8> %pal nprocs 6 end 
|  9> 
| 10> *xyzfile 0 5 pbe.xyz
| 11> 
| 12> $new_job
| 13> 
| 14> !R2SCAN def2-TZVP VERYSLOWCONV
| 15> !KDIIS
| 16> %scf
| 17>   AutoTRAHIter 200
| 18>   maxiter 400
| 19> end
| 20> 
| 21> 
| 22> %pal nprocs 6 end 
| 23> 
| 24> *xyzfile 0 3 pbe.xyz
| 25> 
| 26> 
| 27> 
| 28> 
| 29> 
| 30>                          ****END OF INPUT****
================================================================================


                 $$$$$$$$$$$$$$$$$$$$$$$$$$$$$$$$$$$$$$$$$$$$$$ 
                 $ THERE ARE  2 JOBS TO BE PROCESSED THIS RUN $
                 $$$$$$$$$$$$$$$$$$$$$$$$$$$$$$$$$$$$$$$$$$$$$$ 




                 $$$$$$$$$$$$$$$$  JOB NUMBER  1 $$$$$$$$$$$$$$


                       ****************************
                       * Single Point Calculation *
                       ****************************

---------------------------------
CARTESIAN COORDINATES (ANGSTROEM)
---------------------------------
  Au     7.547249    7.336289    3.852044
  Au     4.831003    7.641231    4.334740
  Au     4.836273    5.755754    6.370296
  Au     7.558319    5.478969    5.912984
  Au     9.287035    7.709757    5.978770
  Au     6.593218    6.140445    8.481452
  Au     6.561848    9.868892    4.400605
  Au     8.324029    8.368095    8.547542
  Au     5.596777   10.530026    6.969272
  Au     3.868363    8.299372    6.903423
  Au     5.607696    8.673088    9.029924
  Au     8.318790   10.253743    6.511569
  Fe     6.577554    8.004658    6.441081

----------------------------
CARTESIAN COORDINATES (A.U.)
----------------------------
  NO LB      ZA    FRAG     MASS         X           Y           Z
   0 Au   19.0000*   0   196.966   14.262234   13.863576    7.279308
   1 Au   19.0000*   0   196.966    9.129272   14.439835    8.191471
   2 Au   19.0000*   0   196.966    9.139231   10.876799   12.038115
   3 Au   19.0000*   0   196.966   14.283153   10.353751   11.173920
   4 Au   19.0000*   0   196.966   17.549953   14.569328   11.298237
   5 Au   19.0000*   0   196.966   12.459377   11.603759   16.027621
   6 Au   19.0000*   0   196.966   12.400095   18.649503    8.315938
   7 Au   19.0000*   0   196.966   15.730134   15.813408   16.152514
   8 Au   19.0000*   0   196.966   10.576375   19.898865   13.170015
   9 Au   19.0000*   0   196.966    7.310146   15.683541   13.045579
  10 Au   19.0000*   0   196.966   10.597010   16.389762   17.064084
  11 Au   19.0000*   0   196.966   15.720234   19.376765   12.305082
  12 Fe   26.0000    0    55.850   12.429776   15.126612   12.171880
* core charge reduced due to ECP

--------------------------------
INTERNAL COORDINATES (ANGSTROEM)
--------------------------------
 Au     0   0   0     0.000000000000     0.00000000     0.00000000
 Au     1   0   0     2.775604669096     0.00000000     0.00000000
 Au     2   1   0     2.774624857587    92.92716429     0.00000000
 Au     3   2   1     2.774036861434    87.06081320     0.79218104
 Au     1   2   3     2.772957824028   117.76324945   304.15228325
 Au     3   2   1     2.773413533747   117.73588068    55.85929595
 Au     1   2   3     2.772366429030    61.14399184   235.06159845
 Au     5   1   2     2.821238178730   121.03662635     0.22171628
 Au     7   1   2     2.822500991311   121.03644727    68.93075705
 Au     3   2   1     2.773277689717    61.12498221   124.90379894
 Au     6   3   2     2.772428204266    92.98710392    55.50661415
 Au     7   1   2     2.773287906249    92.99241547   124.67083550
 Fe     9   7   1     2.760143575431    59.33862433     0.08132441

---------------------------
INTERNAL COORDINATES (A.U.)
---------------------------
 Au     0   0   0     0.000000000000     0.00000000     0.00000000
 Au     1   0   0     5.245132680625     0.00000000     0.00000000
 Au     2   1   0     5.243281105209    92.92716429     0.00000000
 Au     3   2   1     5.242169953512    87.06081320     0.79218104
 Au     1   2   3     5.240130868327   117.76324945   304.15228325
 Au     3   2   1     5.240992034893   117.73588068    55.85929595
 Au     1   2   3     5.239013293744    61.14399184   235.06159845
 Au     5   1   2     5.331367516363   121.03662635     0.22171628
 Au     7   1   2     5.333753886299   121.03644727    68.93075705
 Au     3   2   1     5.240735326880    61.12498221   124.90379894
 Au     6   3   2     5.239130032023    92.98710392    55.50661415
 Au     7   1   2     5.240754633326    92.99241547   124.67083550
 Fe     9   7   1     5.215915447867    59.33862433     0.08132441

---------------------
BASIS SET INFORMATION
---------------------
There are 2 groups of distinct atoms

 Group   1 Type Au  : 8s7p6d1f contracted to 6s4p3d1f pattern {311111/4111/411/1}
 Group   2 Type Fe  : 17s11p7d1f contracted to 6s4p4d1f pattern {842111/6311/4111/1}

Atom   0Au   basis set group =>   1
Atom   1Au   basis set group =>   1
Atom   2Au   basis set group =>   1
Atom   3Au   basis set group =>   1
Atom   4Au   basis set group =>   1
Atom   5Au   basis set group =>   1
Atom   6Au   basis set group =>   1
Atom   7Au   basis set group =>   1
Atom   8Au   basis set group =>   1
Atom   9Au   basis set group =>   1
Atom  10Au   basis set group =>   1
Atom  11Au   basis set group =>   1
Atom  12Fe   basis set group =>   2
---------------------------------
AUXILIARY/J BASIS SET INFORMATION
---------------------------------
There are 2 groups of distinct atoms

 Group   1 Type Au  : 11s5p5d3f3g contracted to 8s5p5d2f3g pattern {41111111/11111/11111/21/111}
 Group   2 Type Fe  : 19s5p5d3f3g contracted to 8s5p5d2f3g pattern {121111111/11111/11111/21/111}

Atom   0Au   basis set group =>   1
Atom   1Au   basis set group =>   1
Atom   2Au   basis set group =>   1
Atom   3Au   basis set group =>   1
Atom   4Au   basis set group =>   1
Atom   5Au   basis set group =>   1
Atom   6Au   basis set group =>   1
Atom   7Au   basis set group =>   1
Atom   8Au   basis set group =>   1
Atom   9Au   basis set group =>   1
Atom  10Au   basis set group =>   1
Atom  11Au   basis set group =>   1
Atom  12Fe   basis set group =>   2
-------------------------
ECP PARAMETER INFORMATION
-------------------------

 Group 1, Type Au ECP Def2-ECP (replacing 60 core electrons, lmax=3)

Atom   0Au   ECP group =>   1
Atom   1Au   ECP group =>   1
Atom   2Au   ECP group =>   1
Atom   3Au   ECP group =>   1
Atom   4Au   ECP group =>   1
Atom   5Au   ECP group =>   1
Atom   6Au   ECP group =>   1
Atom   7Au   ECP group =>   1
Atom   8Au   ECP group =>   1
Atom   9Au   ECP group =>   1
Atom  10Au   ECP group =>   1
Atom  11Au   ECP group =>   1



           ************************************************************
           *        Program running with 6 parallel MPI-processes     *
           *              working on a common directory               *
           ************************************************************
------------------------------------------------------------------------------
                           ORCA GTO INTEGRAL CALCULATION
                           -- RI-GTO INTEGRALS CHOSEN --
------------------------------------------------------------------------------
------------------------------------------------------------------------------
                   ___                                                        
                  /   \      - P O W E R E D   B Y -                         
                 /     \                                                     
                 |  |  |   _    _      __       _____    __    __             
                 |  |  |  | |  | |    /  \     |  _  \  |  |  /  |          
                  \  \/   | |  | |   /    \    | | | |  |  | /  /          
                 / \  \   | |__| |  /  /\  \   | |_| |  |  |/  /          
                |  |  |   |  __  | /  /__\  \  |    /   |      \           
                |  |  |   | |  | | |   __   |  |    \   |  |\   \          
                \     /   | |  | | |  |  |  |  | |\  \  |  | \   \       
                 \___/    |_|  |_| |__|  |__|  |_| \__\ |__|  \__/        
                                                                              
                      - O R C A' S   B I G   F R I E N D -                    
                                      &                                       
                       - I N T E G R A L  F E E D E R -                       
                                                                              
 v1 FN, 2020, v2 2021                                                         
------------------------------------------------------------------------------


Reading SHARK input file scan.SHARKINP.tmp ... ok
----------------------
SHARK INTEGRAL PACKAGE
----------------------

Number of atoms                             ...     13
Number of basis functions                   ...    525
Number of shells                            ...    183
Maximum angular momentum                    ...      3
Integral batch strategy                     ... SHARK/LIBINT Hybrid
RI-J (if used) integral strategy            ... SPLIT-RIJ (Revised 2003 algorithm where possible)
Printlevel                                  ...      1
Contraction scheme used                     ... SEGMENTED contraction
Coulomb Range Separation                    ... NOT USED
Exchange Range Separation                   ... NOT USED
Finite Nucleus Model                        ... NOT USED
Auxiliary Coulomb fitting basis             ... AVAILABLE
   # of basis functions in Aux-J            ...   1157
   # of shells in Aux-J                     ...    299
   Maximum angular momentum in Aux-J        ...      4
Auxiliary J/K fitting basis                 ... NOT available
Auxiliary Correlation fitting basis         ... NOT available
Auxiliary 'external' fitting basis          ... NOT available
Integral threshold                          ...     1.000000e-10
Primitive cut-off                           ...     1.000000e-11
Primitive pair pre-selection threshold      ...     1.000000e-11

Calculating pre-screening integrals         ... done (  0.2 sec) Dimension = 183
Organizing shell pair data                  ... done (  0.5 sec)
Shell pair information
Total number of shell pairs                 ...     16836
Shell pairs after pre-screening             ...     13902
Total number of primitive shell pairs       ...     45389
Primitive shell pairs kept                  ...     27447
          la=0 lb=0:   2157 shell pairs
          la=1 lb=0:   3140 shell pairs
          la=1 lb=1:   1206 shell pairs
          la=2 lb=0:   2756 shell pairs
          la=2 lb=1:   1938 shell pairs
          la=2 lb=2:    790 shell pairs
          la=3 lb=0:    750 shell pairs
          la=3 lb=1:    572 shell pairs
          la=3 lb=2:    508 shell pairs
          la=3 lb=3:     85 shell pairs

Calculating one electron integrals          ... done (  0.1 sec)
Calculating ECP integrals                   ... done ( 15.6 sec)
Calculating RI/J V-Matrix + Cholesky decomp.... done (  0.1 sec)
Calculating Nuclear repulsion               ... done (  0.0 sec) ENN=   4504.072836483460 Eh

SHARK setup successfully completed in  17.0 seconds

Maximum memory used throughout the entire GTOINT-calculation: 30.9 MB


           ************************************************************
           *        Program running with 6 parallel MPI-processes     *
           *              working on a common directory               *
           ************************************************************
-------------------------------------------------------------------------------
                                 ORCA SCF
-------------------------------------------------------------------------------

------------
SCF SETTINGS
------------
Hamiltonian:
 Density Functional     Method          .... DFT(GTOs)
  Functional kind                       .... Exchange
  Functional name                       .... Re-regularized SCAN exchange by Furness et al
  Functional family                     .... MGGA
  Functional refs                              
    [ 0] J. W. Furness, A. D. Kaplan, J. Ning, J. P. Perdew, and J. Sun, J. Phys. Chem. Lett. 11, 8208 (2020)
    [ 1] J. W. Furness, A. D. Kaplan, J. Ning, J. P. Perdew, and J. Sun, J. Phys. Chem. Lett. 11, 9248 (2020)
  Functional external parameters         .... 8
 Parameter  0 :         c1 parameter
 Parameter  1 :         c2 parameter
 Parameter  2 :          d parameter
 Parameter  3 :         k1 parameter
 Parameter  4 :       taur parameter
 Parameter  5 :     alphar parameter
 Parameter  6 :        eta parameter
 Parameter  7 :        dp2 parameter
  Functional kind                       .... Correlation
  Functional name                       .... Re-regularized SCAN correlation by Furness et al
  Functional family                     .... MGGA
  Functional refs                              
    [ 0] J. W. Furness, A. D. Kaplan, J. Ning, J. P. Perdew, and J. Sun, J. Phys. Chem. Lett. 11, 8208 (2020)
    [ 1] J. W. Furness, A. D. Kaplan, J. Ning, J. P. Perdew, and J. Sun, J. Phys. Chem. Lett. 11, 9248 (2020)
  Functional external parameters         .... 0
 Gradients option       PostSCFGGA      .... off
   Density functional embedding theory  .... OFF
   NL short-range parameter             .... 12.300000
 RI-approximation to the Coulomb term is turned on
   Number of AuxJ basis functions       .... 1157


General Settings:
 Integral files         IntName         .... scan
 Hartree-Fock type      HFTyp           .... UHF
 Total Charge           Charge          ....    0
 Multiplicity           Mult            ....    5
 Number of Electrons    NEL             ....  254
 Basis Dimension        Dim             ....  525
 Nuclear Repulsion      ENuc            ....   4504.0728364835 Eh

Convergence Acceleration:
 DIIS                   CNVDIIS         .... off
 Trust-Rad. Augm. Hess. CNVTRAH         .... auto
   Auto Start mean grad. ratio tolernc. ....  1.125000
   Auto Start start iteration           ....   200
   Auto Start num. interpolation iter.  ....    10
   Max. Number of Micro iterations      ....    16
   Max. Number of Macro iterations      .... Maxiter - #DIIS iter
   Number of Davidson start vectors     ....     2
   Converg. threshold I  (grad. norm)   ....   5.000e-05
   Converg. threshold II (energy diff.) ....   1.000e-06
   Grad. Scal. Fac. for Micro threshold ....   0.100
   Minimum threshold for Micro iter.    ....   0.010
   NR start threshold (gradient norm)   ....   0.001
   Initial trust radius                 ....   0.400
   Minimum AH scaling param. (alpha)    ....   1.000
   Maximum AH scaling param. (alpha)    .... 1000.000
   Orbital update algorithm             .... Taylor
   White noise on init. David. guess    .... on
   Maximum white noise                  ....   0.010
   Quad. conv. algorithm                .... NR
 SOSCF                  CNVSOSCF        .... off
 Level Shifting         CNVShift        .... off
 Zerner damping         CNVZerner       .... off
 Static damping         CNVDamp         .... off
 Fernandez-Rico         CNVRico         .... off

SCF Procedure:
 Maximum # iterations   MaxIter         ....   400
 SCF integral mode      SCFMode         .... Direct
   Integral package                     .... SHARK and LIBINT hybrid scheme
 Reset frequency        DirectResetFreq ....    20
 Integral Threshold     Thresh          ....  1.000e-10 Eh
 Primitive CutOff       TCut            ....  1.000e-11 Eh

Convergence Tolerance:
 Convergence Check Mode ConvCheckMode   .... All-Criteria
 Convergence forced     ConvForced      .... 0
 Energy Change          TolE            ....  1.000e-06 Eh
 Max Density Change     TolMaxP         ....  1.000e-05
 RMS Density Change     TolRMSP         ....  1.000e-06


Diagonalization of the overlap matrix:
Smallest eigenvalue                        ... 6.071e-04
Time for diagonalization                   ...    0.108 sec
Threshold for overlap eigenvalues          ... 1.000e-08
Number of eigenvalues below threshold      ... 0
Time for construction of square roots      ...    0.081 sec
Total time needed                          ...    0.191 sec

Time for model grid setup =    0.792 sec

------------------------------
INITIAL GUESS: MODEL POTENTIAL
------------------------------
Loading Hartree-Fock densities                     ... done
  calling /home/ehlert/src/miniconda3/envs/orca500/Programs/ORCA501/orca scan_atom79.inp > scan_atom79.out in order to generate an atomic fitting density for atom 0 (Au with ECP) on-the-fly... 
    atom 0 (Au), assumed electronic state with S=2: 1s2 2s2 2p6 3s2 3p6 4s2 3d10 4p6 5s2 4d10 5p6 6s1 4f14 5d10           ... done
Calculating cut-offs                               ... done
Initializing the effective Hamiltonian             ... done
Setting up the integral package (SHARK)            ... done
Starting the Coulomb interaction                   ... done (   0.7 sec)
Reading the grid                                   ... done
Mapping shells                                     ... done
Starting the XC term evaluation                    ... done (   0.8 sec)
  promolecular density results
     # of electrons  =    974.012885230
     EX              =  -4443.986892642
     EC              =    -59.285164985
     EX+EC           =  -4503.272057628
Transforming the Hamiltonian                       ... done (   0.1 sec)
Diagonalizing the Hamiltonian                      ... done (   0.1 sec)
Back transforming the eigenvectors                 ... done (   0.0 sec)
Now organizing SCF variables                       ... done
                      ------------------
                      INITIAL GUESS DONE (   3.7 sec)
                      ------------------
-------------------
DFT GRID GENERATION
-------------------

General Integration Accuracy     IntAcc      ... 4.388
Radial Grid Type                 RadialGrid  ... OptM3 with GC (2021)
Angular Grid (max. ang.)         AngularGrid ... 4 (Lebedev-302)
Angular grid pruning method      GridPruning ... 4 (adaptive)
Weight generation scheme         WeightScheme... Becke
Basis function cutoff            BFCut       ... 1.0000e-10
Integration weight cutoff        WCut        ... 1.0000e-14
Angular grids for H and He will be reduced by one unit
Partially contracted basis set               ... off
Rotationally invariant grid construction     ... off

Total number of grid points                  ...   144432
Total number of batches                      ...     2265
Average number of points per batch           ...       63
Average number of grid points per atom       ...    11110
Time for grid setup =    2.486 sec

--------------
SCF ITERATIONS
--------------
ITER       Energy         Delta-E        Max-DP      RMS-DP      [F,P]   Gradient Norm
               ***  Starting incremental Fock matrix formation  ***
                             ****Resetting KDIIS****
                             ****Turning on KDIIS(Cayley)****
  0  -2890.4207400021   0.000000000000 0.49853880  0.00171933  0.4694699   0.261520683
  1  -2892.0455223734  -1.624782371359 0.55594843  0.00229325  0.3926673   0.189492423
  2  -2893.0511560503  -1.005633676868 0.79894211  0.00235636  0.3112933   0.130526263
  3  -2893.3530089441  -0.301852893772 0.40785901  0.00185811  0.1820455   0.087536739
  4  -2893.4464223636  -0.093413419487 0.06275696  0.00043748  0.1309300   0.036396934
  5  -2893.5292283152  -0.082805951690 0.02133453  0.00025491  0.0929687   0.017938926
  6  -2893.5501009098  -0.020872594524 0.71809633  0.00182331  0.0926856   0.016931725
  7  -2893.5797968698  -0.029695960054 0.20160701  0.00080231  0.1170315   0.028576672
  8  -2893.6496663259  -0.069869456080 0.03726197  0.00049750  0.0384152   0.011984714
  9  -2893.6831046332  -0.033438307265 0.07557166  0.00042489  0.0443565   0.024907633
 10  -2893.6989770241  -0.015872390915 0.01429936  0.00025546  0.0375180   0.013070803
 11  -2893.7205376719  -0.021560647780 0.00866557  0.00014146  0.0474784   0.007682319
 12  -2893.7339422826  -0.013404610766 0.08895793  0.00126331  0.0423663   0.006440545
 13  -2893.7960046368  -0.062062354148 0.01374216  0.00020757  0.0196329   0.007414345
 14  -2893.7986472252  -0.002642588436 0.03121972  0.00028140  0.0106333   0.004973677
 15  -2893.7998243535  -0.001177128310 0.02068274  0.00013780  0.0180805   0.008982343
 16  -2893.8047997144  -0.004975360845 0.01739386  0.00013218  0.0106526   0.002640132
 17  -2893.8063251326  -0.001525418203 0.00777335  0.00009007  0.0052747   0.002580075
 18  -2893.8074453321  -0.001120199486 0.01109599  0.00009654  0.0034178   0.001250034
 19  -2893.8078911281  -0.000445796064 0.00954768  0.00004720  0.0040335   0.002231689
               *** Restarting incremental Fock matrix formation ***
                             ****Resetting KDIIS****
 20  -2893.8080325498  -0.000141421647 0.00046180  0.00000744  0.0034809   0.001127630
 21  -2893.8081293490  -0.000096799248 0.00051455  0.00000845  0.0023621   0.000766938
 22  -2893.8081790487  -0.000049699738 0.00104718  0.00001478  0.0026453   0.000564081
 23  -2893.8082592779  -0.000080229135 0.00364224  0.00005173  0.0022862   0.000421005
 24  -2893.8084554698  -0.000196191881 0.00759478  0.00010304  0.0014533   0.000481109
 25  -2893.8086748283  -0.000219358496 0.00202028  0.00001266  0.0004241   0.000153233
 26  -2893.8086400793   0.000034748928 0.00123714  0.00001677  0.0007147   0.000315546
 27  -2893.8086682671  -0.000028187812 0.00130413  0.00001370  0.0003105   0.000062443
 28  -2893.8086570147   0.000011252436 0.00137370  0.00001604  0.0003226   0.000199502
 29  -2893.8086558195   0.000001195166 0.00013947  0.00000235  0.0001612   0.000068879
 30  -2893.8086489260   0.000006893525 0.00017724  0.00000176  0.0000948   0.000039326
 31  -2893.8086531386  -0.000004212564 0.00015288  0.00000160  0.0001845   0.000083351
                           ***RMSP convergence achieved***
 32  -2893.8086487772   0.000004361346 0.00007225  0.00000095  0.0000647   0.000014368
                          ***Energy convergence achieved***
 33  -2893.8086492198  -0.000000442580 0.00004987  0.00000064  0.0000700   0.000011748

            ***Energy convergence in two consecutive cycles with***
                    ***'reasonable' density convergence***
                       *** signaling convergence ***

                    *** KDIIS BlockDiag ( 0.179 sec) ***

               *****************************************************
               *                     SUCCESS                       *
               *           SCF CONVERGED AFTER  34 CYCLES          *
               *****************************************************


----------------
TOTAL SCF ENERGY
----------------

Total Energy       :        -2893.80864865 Eh          -78744.53662 eV

Components:
Nuclear Repulsion  :         4504.07283648 Eh          122562.05282 eV
Electronic Energy  :        -7397.88148513 Eh         -201306.58944 eV
One Electron Energy:       -13609.51145207 Eh         -370333.63401 eV
Two Electron Energy:         6211.62996693 Eh          169027.04457 eV

Virial components:
Potential Energy   :        -4705.60587981 Eh         -128046.04572 eV
Kinetic Energy     :         1811.79723116 Eh           49301.50910 eV
Virial Ratio       :            2.59720337


DFT components:
N(Alpha)           :      129.000045330942 electrons
N(Beta)            :      125.000056654892 electrons
N(Total)           :      254.000101985834 electrons
E(X)               :     -200.087613932346 Eh       
E(C)               :      -10.569410619275 Eh       
E(XC)              :     -210.657024551621 Eh       
DFET-embed. en.    :        0.000000000000 Eh       

---------------
SCF CONVERGENCE
---------------

  Last Energy change         ...    5.7007e-07  Tolerance :   1.0000e-06
  Last MAX-Density change    ...    5.9573e-05  Tolerance :   1.0000e-05
  Last RMS-Density change    ...    7.7955e-07  Tolerance :   1.0000e-06

             **** THE GBW FILE WAS UPDATED (scan.gbw) ****
             **** DENSITY scan.scfp WAS UPDATED ****
             **** ENERGY FILE WAS UPDATED (scan.en.tmp) ****
----------------------
UHF SPIN CONTAMINATION
----------------------

Warning: in a DFT calculation there is little theoretical justification to 
         calculate <S**2> as in Hartree-Fock theory. We will do it anyways
         but you should keep in mind that the values have only limited relevance

Expectation value of <S**2>     :     6.735075
Ideal value S*(S+1) for S=2.0   :     6.000000
Deviation                       :     0.735075

             **** THE GBW FILE WAS UPDATED (scan.gbw) ****
             **** DENSITY scan.scfp WAS UPDATED ****
----------------
ORBITAL ENERGIES
----------------
                 SPIN UP ORBITALS
  NO   OCC          E(Eh)            E(eV) 
   0   1.0000    -255.643505     -6956.4134 
   1   1.0000     -29.941196      -814.7414 
   2   1.0000     -25.772514      -701.3058 
   3   1.0000     -25.772395      -701.3025 
   4   1.0000     -25.769004      -701.2102 
   5   1.0000      -4.126300      -112.2823 
   6   1.0000      -4.126264      -112.2813 
   7   1.0000      -4.126243      -112.2808 
   8   1.0000      -4.126210      -112.2799 
   9   1.0000      -4.125666      -112.2651 
  10   1.0000      -4.125591      -112.2630 
  11   1.0000      -4.125554      -112.2620 
  12   1.0000      -4.125546      -112.2618 
  13   1.0000      -4.125517      -112.2610 
  14   1.0000      -4.125509      -112.2608 
  15   1.0000      -4.125440      -112.2589 
  16   1.0000      -4.125421      -112.2584 
  17   1.0000      -3.521453       -95.8236 
  18   1.0000      -2.317208       -63.0544 
  19   1.0000      -2.315936       -63.0198 
  20   1.0000      -2.315917       -63.0193 
  21   1.0000      -2.315453       -63.0067 
  22   1.0000      -2.314900       -62.9916 
  23   1.0000      -2.314602       -62.9835 
  24   1.0000      -2.314591       -62.9832 
  25   1.0000      -2.313299       -62.9481 
  26   1.0000      -2.312684       -62.9313 
  27   1.0000      -2.312485       -62.9259 
  28   1.0000      -2.312462       -62.9253 
  29   1.0000      -2.312353       -62.9223 
  30   1.0000      -2.312338       -62.9219 
  31   1.0000      -2.311797       -62.9072 
  32   1.0000      -2.311714       -62.9049 
  33   1.0000      -2.311624       -62.9025 
  34   1.0000      -2.311536       -62.9001 
  35   1.0000      -2.311465       -62.8982 
  36   1.0000      -2.309979       -62.8577 
  37   1.0000      -2.309960       -62.8572 
  38   1.0000      -2.309868       -62.8547 
  39   1.0000      -2.309473       -62.8439 
  40   1.0000      -2.309256       -62.8381 
  41   1.0000      -2.309249       -62.8378 
  42   1.0000      -2.309233       -62.8374 
  43   1.0000      -2.309216       -62.8370 
  44   1.0000      -2.309058       -62.8327 
  45   1.0000      -2.309053       -62.8325 
  46   1.0000      -2.309046       -62.8323 
  47   1.0000      -2.309009       -62.8313 
  48   1.0000      -2.308334       -62.8130 
  49   1.0000      -2.308119       -62.8071 
  50   1.0000      -2.308098       -62.8065 
  51   1.0000      -2.307913       -62.8015 
  52   1.0000      -2.307896       -62.8010 
  53   1.0000      -2.307737       -62.7967 
  54   1.0000      -2.288947       -62.2854 
  55   1.0000      -2.288692       -62.2785 
  56   1.0000      -2.281473       -62.0820 
  57   1.0000      -0.438133       -11.9222 
  58   1.0000      -0.390614       -10.6291 
  59   1.0000      -0.388306       -10.5663 
  60   1.0000      -0.388229       -10.5642 
  61   1.0000      -0.386986       -10.5304 
  62   1.0000      -0.386860       -10.5270 
  63   1.0000      -0.383795       -10.4436 
  64   1.0000      -0.379764       -10.3339 
  65   1.0000      -0.374246       -10.1837 
  66   1.0000      -0.373125       -10.1532 
  67   1.0000      -0.369877       -10.0649 
  68   1.0000      -0.358966        -9.7680 
  69   1.0000      -0.358879        -9.7656 
  70   1.0000      -0.356797        -9.7089 
  71   1.0000      -0.356674        -9.7056 
  72   1.0000      -0.356640        -9.7047 
  73   1.0000      -0.355378        -9.6703 
  74   1.0000      -0.349499        -9.5103 
  75   1.0000      -0.345673        -9.4063 
  76   1.0000      -0.345356        -9.3976 
  77   1.0000      -0.341083        -9.2814 
  78   1.0000      -0.341004        -9.2792 
  79   1.0000      -0.338833        -9.2201 
  80   1.0000      -0.338446        -9.2096 
  81   1.0000      -0.338331        -9.2064 
  82   1.0000      -0.335768        -9.1367 
  83   1.0000      -0.335570        -9.1313 
  84   1.0000      -0.334200        -9.0940 
  85   1.0000      -0.329544        -8.9674 
  86   1.0000      -0.328411        -8.9365 
  87   1.0000      -0.321039        -8.7359 
  88   1.0000      -0.320845        -8.7306 
  89   1.0000      -0.315672        -8.5899 
  90   1.0000      -0.315443        -8.5836 
  91   1.0000      -0.311512        -8.4767 
  92   1.0000      -0.310384        -8.4460 
  93   1.0000      -0.300249        -8.1702 
  94   1.0000      -0.297452        -8.0941 
  95   1.0000      -0.294387        -8.0107 
  96   1.0000      -0.294290        -8.0080 
  97   1.0000      -0.289735        -7.8841 
  98   1.0000      -0.289645        -7.8816 
  99   1.0000      -0.289590        -7.8801 
 100   1.0000      -0.281138        -7.6501 
 101   1.0000      -0.280313        -7.6277 
 102   1.0000      -0.278018        -7.5653 
 103   1.0000      -0.276497        -7.5239 
 104   1.0000      -0.275845        -7.5061 
 105   1.0000      -0.275762        -7.5039 
 106   1.0000      -0.274921        -7.4810 
 107   1.0000      -0.274633        -7.4731 
 108   1.0000      -0.270812        -7.3692 
 109   1.0000      -0.269813        -7.3420 
 110   1.0000      -0.269714        -7.3393 
 111   1.0000      -0.269396        -7.3306 
 112   1.0000      -0.268642        -7.3101 
 113   1.0000      -0.268440        -7.3046 
 114   1.0000      -0.267805        -7.2874 
 115   1.0000      -0.267159        -7.2698 
 116   1.0000      -0.267087        -7.2678 
 117   1.0000      -0.266562        -7.2535 
 118   1.0000      -0.264233        -7.1902 
 119   1.0000      -0.262040        -7.1305 
 120   1.0000      -0.261383        -7.1126 
 121   1.0000      -0.261286        -7.1099 
 122   1.0000      -0.256275        -6.9736 
 123   1.0000      -0.256164        -6.9706 
 124   1.0000      -0.253798        -6.9062 
 125   1.0000      -0.239512        -6.5174 
 126   1.0000      -0.206276        -5.6131 
 127   1.0000      -0.202093        -5.4992 
 128   1.0000      -0.201920        -5.4945 
 129   0.0000      -0.172563        -4.6957 
 130   0.0000      -0.166618        -4.5339 
 131   0.0000      -0.126696        -3.4476 
 132   0.0000      -0.106259        -2.8915 
 133   0.0000      -0.106161        -2.8888 
 134   0.0000      -0.106097        -2.8871 
 135   0.0000      -0.085685        -2.3316 
 136   0.0000      -0.058313        -1.5868 
 137   0.0000      -0.058252        -1.5851 
 138   0.0000      -0.057481        -1.5641 
 139   0.0000      -0.040379        -1.0988 
 140   0.0000      -0.040012        -1.0888 
 141   0.0000      -0.030195        -0.8217 
 142   0.0000       0.004776         0.1300 
 143   0.0000       0.008318         0.2263 
 144   0.0000       0.008461         0.2302 
 145   0.0000       0.012807         0.3485 
 146   0.0000       0.013024         0.3544 
 147   0.0000       0.042928         1.1681 
 148   0.0000       0.049517         1.3474 
 149   0.0000       0.049709         1.3527 
 150   0.0000       0.051161         1.3922 
 151   0.0000       0.054214         1.4752 
 152   0.0000       0.054331         1.4784 
 153   0.0000       0.058170         1.5829 
 154   0.0000       0.060764         1.6535 
 155   0.0000       0.064231         1.7478 
 156   0.0000       0.086747         2.3605 
 157   0.0000       0.086797         2.3619 
 158   0.0000       0.086915         2.3651 
 159   0.0000       0.095291         2.5930 
 160   0.0000       0.095322         2.5938 
 161   0.0000       0.095541         2.5998 
 162   0.0000       0.125819         3.4237 
 163   0.0000       0.125923         3.4265 
 164   0.0000       0.128678         3.5015 
 165   0.0000       0.139634         3.7996 
 166   0.0000       0.140956         3.8356 
 167   0.0000       0.148044         4.0285 
 168   0.0000       0.149506         4.0683 
 169   0.0000       0.149569         4.0700 
 170   0.0000       0.165718         4.5094 
 171   0.0000       0.169239         4.6052 
 172   0.0000       0.169391         4.6094 
 173   0.0000       0.188342         5.1250 
 174   0.0000       0.191896         5.2218 
 175   0.0000       0.192368         5.2346 
 176   0.0000       0.192399         5.2354 
 177   0.0000       0.192793         5.2462 
 178   0.0000       0.196825         5.3559 
 179   0.0000       0.197828         5.3832 
 180   0.0000       0.215218         5.8564 
 181   0.0000       0.215501         5.8641 
 182   0.0000       0.222756         6.0615 
 183   0.0000       0.233211         6.3460 
 184   0.0000       0.247404         6.7322 
 185   0.0000       0.251322         6.8388 
 186   0.0000       0.251975         6.8566 
 187   0.0000       0.252256         6.8642 
 188   0.0000       0.260692         7.0938 
 189   0.0000       0.263100         7.1593 
 190   0.0000       0.265727         7.2308 
 191   0.0000       0.265897         7.2354 
 192   0.0000       0.266983         7.2650 
 193   0.0000       0.274956         7.4819 
 194   0.0000       0.275180         7.4880 
 195   0.0000       0.309055         8.4098 
 196   0.0000       0.313655         8.5350 
 197   0.0000       0.316068         8.6006 
 198   0.0000       0.316155         8.6030 
 199   0.0000       0.316301         8.6070 
 200   0.0000       0.320128         8.7111 
 201   0.0000       0.323247         8.7960 
 202   0.0000       0.325546         8.8586 
 203   0.0000       0.325596         8.8599 
 204   0.0000       0.360204         9.8016 
 205   0.0000       0.369827        10.0635 
 206   0.0000       0.370609        10.0848 
 207   0.0000       0.371043        10.0966 
 208   0.0000       0.375876        10.2281 
 209   0.0000       0.376789        10.2529 
 210   0.0000       0.377610        10.2753 
 211   0.0000       0.377709        10.2780 
 212   0.0000       0.381416        10.3789 
 213   0.0000       0.381561        10.3828 
 214   0.0000       0.395492        10.7619 
 215   0.0000       0.396986        10.8025 
 216   0.0000       0.397088        10.8053 
 217   0.0000       0.398851        10.8533 
 218   0.0000       0.405730        11.0405 
 219   0.0000       0.406034        11.0487 
 220   0.0000       0.419967        11.4279 
 221   0.0000       0.420119        11.4320 
 222   0.0000       0.430830        11.7235 
 223   0.0000       0.462135        12.5753 
 224   0.0000       0.466273        12.6879 
 225   0.0000       0.468251        12.7418 
 226   0.0000       0.476965        12.9789 
 227   0.0000       0.477016        12.9803 
 228   0.0000       0.477134        12.9835 
 229   0.0000       0.477592        12.9959 
 230   0.0000       0.477975        13.0064 
 231   0.0000       0.492205        13.3936 
 232   0.0000       0.494708        13.4617 
 233   0.0000       0.506100        13.7717 
 234   0.0000       0.506249        13.7757 
 235   0.0000       0.508068        13.8252 
 236   0.0000       0.530705        14.4412 
 237   0.0000       0.543352        14.7853 
 238   0.0000       0.543381        14.7862 
 239   0.0000       0.543416        14.7871 
 240   0.0000       0.545553        14.8452 
 241   0.0000       0.545653        14.8480 
 242   0.0000       0.549316        14.9476 
 243   0.0000       0.550736        14.9863 
 244   0.0000       0.558631        15.2011 
 245   0.0000       0.559050        15.2125 
 246   0.0000       0.560919        15.2634 
 247   0.0000       0.568648        15.4737 
 248   0.0000       0.569254        15.4902 
 249   0.0000       0.607854        16.5405 
 250   0.0000       0.608977        16.5711 
 251   0.0000       0.623483        16.9658 
 252   0.0000       0.624066        16.9817 
 253   0.0000       0.634078        17.2541 
 254   0.0000       0.671408        18.2700 
 255   0.0000       0.672240        18.2926 
 256   0.0000       0.686156        18.6712 
 257   0.0000       0.687521        18.7084 
 258   0.0000       0.720765        19.6130 
 259   0.0000       0.739981        20.1359 
 260   0.0000       0.776573        21.1316 
 261   0.0000       0.777275        21.1507 
 262   0.0000       0.786303        21.3964 
 263   0.0000       0.796153        21.6644 
 264   0.0000       0.808056        21.9883 
 265   0.0000       0.812798        22.1174 
 266   0.0000       0.813166        22.1274 
 267   0.0000       0.820952        22.3392 
 268   0.0000       0.823251        22.4018 
 269   0.0000       0.824328        22.4311 
 270   0.0000       0.835145        22.7254 
 271   0.0000       0.843277        22.9467 
 272   0.0000       0.863696        23.5024 
 273   0.0000       0.864706        23.5299 
 274   0.0000       0.865050        23.5392 
 275   0.0000       0.900292        24.4982 
 276   0.0000       0.902604        24.5611 
 277   0.0000       0.903070        24.5738 
 278   0.0000       0.912943        24.8424 
 279   0.0000       0.916031        24.9265 
 280   0.0000       0.924401        25.1542 
 281   0.0000       0.924745        25.1636 
 282   0.0000       0.933313        25.3967 
 283   0.0000       0.933955        25.4142 
 284   0.0000       0.951046        25.8793 
 285   0.0000       0.951973        25.9045 
 286   0.0000       0.972039        26.4505 
 287   0.0000       1.065131        28.9837 
 288   0.0000       1.079111        29.3641 
 289   0.0000       1.115280        30.3483 
 290   0.0000       1.273915        34.6650 
 291   0.0000       1.275236        34.7009 
 292   0.0000       1.277318        34.7576 
 293   0.0000       1.281183        34.8628 
 294   0.0000       1.288808        35.0702 
 295   0.0000       1.289260        35.0825 
 296   0.0000       1.297999        35.3203 
 297   0.0000       1.321327        35.9551 
 298   0.0000       1.334576        36.3157 
 299   0.0000       1.335538        36.3418 
 300   0.0000       1.344787        36.5935 
 301   0.0000       1.349183        36.7131 
 302   0.0000       1.355151        36.8755 
 303   0.0000       1.355285        36.8792 
 304   0.0000       1.362350        37.0714 
 305   0.0000       1.366757        37.1913 
 306   0.0000       1.366900        37.1953 
 307   0.0000       1.374460        37.4009 
 308   0.0000       1.388918        37.7944 
 309   0.0000       1.395296        37.9679 
 310   0.0000       1.408270        38.3210 
 311   0.0000       1.421976        38.6939 
 312   0.0000       1.430105        38.9151 
 313   0.0000       1.432462        38.9793 
 314   0.0000       1.432681        38.9852 
 315   0.0000       1.467022        39.9197 
 316   0.0000       1.467381        39.9295 
 317   0.0000       1.470252        40.0076 
 318   0.0000       1.475315        40.1454 
 319   0.0000       1.481409        40.3112 
 320   0.0000       1.481418        40.3114 
 321   0.0000       1.485002        40.4090 
 322   0.0000       1.486629        40.4532 
 323   0.0000       1.486992        40.4631 
 324   0.0000       1.487402        40.4743 
 325   0.0000       1.494165        40.6583 
 326   0.0000       1.495011        40.6813 
 327   0.0000       1.498129        40.7662 
 328   0.0000       1.512783        41.1649 
 329   0.0000       1.529638        41.6236 
 330   0.0000       1.530241        41.6400 
 331   0.0000       1.536354        41.8063 
 332   0.0000       1.536545        41.8115 
 333   0.0000       1.536601        41.8130 
 334   0.0000       1.536650        41.8144 
 335   0.0000       1.538089        41.8535 
 336   0.0000       1.538190        41.8563 
 337   0.0000       1.542187        41.9650 
 338   0.0000       1.542761        41.9806 
 339   0.0000       1.543112        41.9902 
 340   0.0000       1.543982        42.0139 
 341   0.0000       1.545604        42.0580 
 342   0.0000       1.551622        42.2218 
 343   0.0000       1.551775        42.2259 
 344   0.0000       1.555748        42.3341 
 345   0.0000       1.555926        42.3389 
 346   0.0000       1.556229        42.3471 
 347   0.0000       1.557341        42.3774 
 348   0.0000       1.561358        42.4867 
 349   0.0000       1.562894        42.5285 
 350   0.0000       1.564263        42.5658 
 351   0.0000       1.565439        42.5978 
 352   0.0000       1.565487        42.5991 
 353   0.0000       1.571188        42.7542 
 354   0.0000       1.571282        42.7568 
 355   0.0000       1.571420        42.7605 
 356   0.0000       1.572651        42.7940 
 357   0.0000       1.572772        42.7973 
 358   0.0000       1.576091        42.8876 
 359   0.0000       1.577554        42.9274 
 360   0.0000       1.581640        43.0386 
 361   0.0000       1.584685        43.1215 
 362   0.0000       1.585294        43.1380 
 363   0.0000       1.585714        43.1495 
 364   0.0000       1.587656        43.2023 
 365   0.0000       1.587900        43.2090 
 366   0.0000       1.588988        43.2386 
 367   0.0000       1.589073        43.2409 
 368   0.0000       1.589199        43.2443 
 369   0.0000       1.592847        43.3436 
 370   0.0000       1.595447        43.4143 
 371   0.0000       1.606240        43.7080 
 372   0.0000       1.608792        43.7775 
 373   0.0000       1.609148        43.7871 
 374   0.0000       1.609177        43.7879 
 375   0.0000       1.612735        43.8848 
 376   0.0000       1.612876        43.8886 
 377   0.0000       1.614622        43.9361 
 378   0.0000       1.621785        44.1310 
 379   0.0000       1.623021        44.1646 
 380   0.0000       1.624094        44.1938 
 381   0.0000       1.624108        44.1942 
 382   0.0000       1.626275        44.2532 
 383   0.0000       1.628410        44.3113 
 384   0.0000       1.628599        44.3164 
 385   0.0000       1.634157        44.4677 
 386   0.0000       1.634510        44.4773 
 387   0.0000       1.637825        44.5675 
 388   0.0000       1.638926        44.5974 
 389   0.0000       1.638995        44.5993 
 390   0.0000       1.643741        44.7285 
 391   0.0000       1.650567        44.9142 
 392   0.0000       1.651405        44.9370 
 393   0.0000       1.651463        44.9386 
 394   0.0000       1.662602        45.2417 
 395   0.0000       1.670994        45.4701 
 396   0.0000       1.674247        45.5586 
 397   0.0000       1.680647        45.7327 
 398   0.0000       1.680981        45.7418 
 399   0.0000       1.684006        45.8241 
 400   0.0000       1.684562        45.8393 
 401   0.0000       1.684626        45.8410 
 402   0.0000       1.685557        45.8663 
 403   0.0000       1.687280        45.9132 
 404   0.0000       1.688322        45.9416 
 405   0.0000       1.692680        46.0602 
 406   0.0000       1.692803        46.0635 
 407   0.0000       1.716048        46.6960 
 408   0.0000       1.725739        46.9598 
 409   0.0000       1.734301        47.1927 
 410   0.0000       1.740579        47.3636 
 411   0.0000       1.741570        47.3905 
 412   0.0000       1.757027        47.8111 
 413   0.0000       1.766681        48.0738 
 414   0.0000       1.766802        48.0771 
 415   0.0000       1.774105        48.2758 
 416   0.0000       1.812566        49.3224 
 417   0.0000       1.845642        50.2225 
 418   0.0000       1.846824        50.2546 
 419   0.0000       1.848103        50.2894 
 420   0.0000       1.855641        50.4945 
 421   0.0000       1.878470        51.1158 
 422   0.0000       1.878677        51.1214 
 423   0.0000       1.881497        51.1981 
 424   0.0000       1.882199        51.2172 
 425   0.0000       1.882348        51.2213 
 426   0.0000       1.893350        51.5207 
 427   0.0000       1.895496        51.5791 
 428   0.0000       1.905139        51.8415 
 429   0.0000       1.931788        52.5666 
 430   0.0000       1.952463        53.1292 
 431   0.0000       1.981698        53.9247 
 432   0.0000       1.983454        53.9725 
 433   0.0000       2.020078        54.9691 
 434   0.0000       2.224881        60.5421 
 435   0.0000       2.225495        60.5588 
 436   0.0000       2.227626        60.6168 
 437   0.0000       2.280865        62.0655 
 438   0.0000       2.330936        63.4280 
 439   0.0000       2.331553        63.4448 
 440   0.0000       2.342948        63.7548 
 441   0.0000       2.519403        68.5564 
 442   0.0000       2.540328        69.1258 
 443   0.0000       2.541898        69.1686 
 444   0.0000       2.547377        69.3176 
 445   0.0000       2.563534        69.7573 
 446   0.0000       2.564518        69.7841 
 447   0.0000       2.586141        70.3725 
 448   0.0000       2.589178        70.4551 
 449   0.0000       2.589697        70.4692 
 450   0.0000       2.590275        70.4850 
 451   0.0000       2.590694        70.4964 
 452   0.0000       3.325301        90.4861 
 453   0.0000       3.625357        98.6510 
 454   0.0000       3.664165        99.7070 
 455   0.0000       3.842346       104.5556 
 456   0.0000       3.890668       105.8705 
 457   0.0000       3.894077       105.9632 
 458   0.0000       3.993571       108.6706 
 459   0.0000       3.993691       108.6738 
 460   0.0000       3.995708       108.7287 
 461   0.0000       3.995778       108.7306 
 462   0.0000       3.997932       108.7893 
 463   0.0000       3.998207       108.7968 
 464   0.0000       3.999146       108.8223 
 465   0.0000      23.347446       635.3163 
 466   0.0000      23.433403       637.6553 
 467   0.0000      23.438570       637.7959 
 468   0.0000      24.059244       654.6853 
 469   0.0000      24.998114       680.2333 
 470   0.0000      25.001842       680.3347 
 471   0.0000      25.098051       682.9527 
 472   0.0000      25.137555       684.0277 
 473   0.0000      25.208485       685.9577 
 474   0.0000      25.209700       685.9908 
 475   0.0000      25.312693       688.7934 
 476   0.0000      25.315105       688.8590 
 477   0.0000      25.412154       691.4999 
 478   0.0000      26.391438       718.1475 
 479   0.0000      26.394430       718.2290 
 480   0.0000      26.488663       720.7932 
 481   0.0000      26.522458       721.7128 
 482   0.0000      26.660054       725.4570 
 483   0.0000      26.679954       725.9985 
 484   0.0000      26.957848       733.5603 
 485   0.0000      26.969042       733.8649 
 486   0.0000      27.064694       736.4678 
 487   0.0000      27.102751       737.5034 
 488   0.0000      27.244038       741.3480 
 489   0.0000      27.347905       744.1743 
 490   0.0000      27.554701       749.8015 
 491   0.0000      27.651556       752.4371 
 492   0.0000      27.721678       754.3452 
 493   0.0000      27.724000       754.4084 
 494   0.0000      27.741389       754.8816 
 495   0.0000      27.745593       754.9960 
 496   0.0000      27.748105       755.0643 
 497   0.0000      28.412794       773.1514 
 498   0.0000      31.322012       852.3153 
 499   0.0000      31.346051       852.9694 
 500   0.0000      31.851512       866.7237 
 501   0.0000      44.374229      1207.4842 
 502   0.0000      44.488776      1210.6011 
 503   0.0000      44.500701      1210.9256 
 504   0.0000      44.501232      1210.9401 
 505   0.0000      44.582212      1213.1437 
 506   0.0000      44.586545      1213.2616 
 507   0.0000      44.586694      1213.2656 
 508   0.0000      44.653546      1215.0847 
 509   0.0000      44.656411      1215.1627 
 510   0.0000      44.656482      1215.1647 
 511   0.0000      44.693891      1216.1826 
 512   0.0000      44.705154      1216.4891 
 513   0.0000     205.241182      5584.8965 
 514   0.0000     205.288713      5586.1899 
 515   0.0000     205.292940      5586.3049 
 516   0.0000     205.293141      5586.3104 
 517   0.0000     205.330040      5587.3144 
 518   0.0000     205.332768      5587.3887 
 519   0.0000     205.332853      5587.3910 
 520   0.0000     205.361011      5588.1572 
 521   0.0000     205.361018      5588.1574 
 522   0.0000     205.361168      5588.1615 
 523   0.0000     205.370905      5588.4264 
 524   0.0000     205.376058      5588.5667 

                 SPIN DOWN ORBITALS
  NO   OCC          E(Eh)            E(eV) 
   0   1.0000    -255.642514     -6956.3865 
   1   1.0000     -29.861102      -812.5619 
   2   1.0000     -25.710782      -699.6260 
   3   1.0000     -25.710730      -699.6245 
   4   1.0000     -25.709173      -699.5822 
   5   1.0000      -4.123726      -112.2123 
   6   1.0000      -4.123694      -112.2114 
   7   1.0000      -4.123673      -112.2109 
   8   1.0000      -4.123644      -112.2101 
   9   1.0000      -4.123008      -112.1927 
  10   1.0000      -4.122941      -112.1909 
  11   1.0000      -4.122897      -112.1897 
  12   1.0000      -4.122884      -112.1894 
  13   1.0000      -4.122864      -112.1888 
  14   1.0000      -4.122851      -112.1885 
  15   1.0000      -4.122780      -112.1865 
  16   1.0000      -4.122762      -112.1861 
  17   1.0000      -3.348446       -91.1159 
  18   1.0000      -2.313263       -62.9471 
  19   1.0000      -2.312125       -62.9161 
  20   1.0000      -2.312109       -62.9157 
  21   1.0000      -2.311831       -62.9081 
  22   1.0000      -2.311187       -62.8906 
  23   1.0000      -2.311031       -62.8863 
  24   1.0000      -2.311023       -62.8861 
  25   1.0000      -2.310109       -62.8613 
  26   1.0000      -2.309484       -62.8443 
  27   1.0000      -2.309471       -62.8439 
  28   1.0000      -2.309440       -62.8431 
  29   1.0000      -2.309201       -62.8366 
  30   1.0000      -2.308779       -62.8251 
  31   1.0000      -2.308553       -62.8189 
  32   1.0000      -2.308526       -62.8182 
  33   1.0000      -2.308337       -62.8130 
  34   1.0000      -2.307744       -62.7969 
  35   1.0000      -2.307629       -62.7938 
  36   1.0000      -2.307277       -62.7842 
  37   1.0000      -2.307231       -62.7829 
  38   1.0000      -2.307219       -62.7826 
  39   1.0000      -2.307198       -62.7821 
  40   1.0000      -2.307188       -62.7818 
  41   1.0000      -2.306928       -62.7747 
  42   1.0000      -2.306297       -62.7575 
  43   1.0000      -2.306288       -62.7573 
  44   1.0000      -2.306072       -62.7514 
  45   1.0000      -2.306004       -62.7496 
  46   1.0000      -2.305766       -62.7431 
  47   1.0000      -2.305540       -62.7369 
  48   1.0000      -2.305313       -62.7307 
  49   1.0000      -2.305287       -62.7301 
  50   1.0000      -2.305138       -62.7260 
  51   1.0000      -2.305125       -62.7256 
  52   1.0000      -2.305070       -62.7242 
  53   1.0000      -2.304508       -62.7088 
  54   1.0000      -2.116322       -57.5880 
  55   1.0000      -2.116229       -57.5855 
  56   1.0000      -2.113772       -57.5187 
  57   1.0000      -0.436091       -11.8667 
  58   1.0000      -0.387130       -10.5344 
  59   1.0000      -0.387017       -10.5313 
  60   1.0000      -0.384244       -10.4558 
  61   1.0000      -0.379245       -10.3198 
  62   1.0000      -0.375403       -10.2152 
  63   1.0000      -0.374942       -10.2027 
  64   1.0000      -0.374925       -10.2022 
  65   1.0000      -0.373026       -10.1506 
  66   1.0000      -0.361739        -9.8434 
  67   1.0000      -0.359179        -9.7738 
  68   1.0000      -0.356376        -9.6975 
  69   1.0000      -0.356340        -9.6965 
  70   1.0000      -0.355000        -9.6600 
  71   1.0000      -0.353516        -9.6197 
  72   1.0000      -0.353439        -9.6176 
  73   1.0000      -0.351668        -9.5694 
  74   1.0000      -0.345793        -9.4095 
  75   1.0000      -0.343451        -9.3458 
  76   1.0000      -0.339420        -9.2361 
  77   1.0000      -0.339031        -9.2255 
  78   1.0000      -0.338851        -9.2206 
  79   1.0000      -0.333880        -9.0853 
  80   1.0000      -0.333849        -9.0845 
  81   1.0000      -0.333691        -9.0802 
  82   1.0000      -0.331961        -9.0331 
  83   1.0000      -0.326919        -8.8959 
  84   1.0000      -0.319916        -8.7054 
  85   1.0000      -0.319489        -8.6937 
  86   1.0000      -0.315302        -8.5798 
  87   1.0000      -0.315056        -8.5731 
  88   1.0000      -0.310050        -8.4369 
  89   1.0000      -0.309867        -8.4319 
  90   1.0000      -0.308915        -8.4060 
  91   1.0000      -0.308731        -8.4010 
  92   1.0000      -0.293840        -7.9958 
  93   1.0000      -0.293429        -7.9846 
  94   1.0000      -0.293389        -7.9835 
  95   1.0000      -0.293341        -7.9822 
  96   1.0000      -0.288322        -7.8456 
  97   1.0000      -0.286390        -7.7931 
  98   1.0000      -0.286341        -7.7917 
  99   1.0000      -0.286292        -7.7904 
 100   1.0000      -0.279008        -7.5922 
 101   1.0000      -0.277767        -7.5584 
 102   1.0000      -0.275756        -7.5037 
 103   1.0000      -0.275680        -7.5016 
 104   1.0000      -0.273847        -7.4517 
 105   1.0000      -0.268929        -7.3179 
 106   1.0000      -0.265865        -7.2345 
 107   1.0000      -0.264882        -7.2078 
 108   1.0000      -0.264753        -7.2043 
 109   1.0000      -0.264587        -7.1998 
 110   1.0000      -0.264423        -7.1953 
 111   1.0000      -0.264345        -7.1932 
 112   1.0000      -0.263980        -7.1833 
 113   1.0000      -0.262668        -7.1476 
 114   1.0000      -0.260393        -7.0857 
 115   1.0000      -0.258953        -7.0465 
 116   1.0000      -0.258808        -7.0425 
 117   1.0000      -0.255261        -6.9460 
 118   1.0000      -0.255149        -6.9430 
 119   1.0000      -0.252644        -6.8748 
 120   1.0000      -0.215753        -5.8709 
 121   1.0000      -0.214430        -5.8349 
 122   1.0000      -0.214399        -5.8341 
 123   1.0000      -0.195868        -5.3298 
 124   1.0000      -0.191428        -5.2090 
 125   0.0000      -0.231160        -6.2902 
 126   0.0000      -0.153860        -4.1867 
 127   0.0000      -0.152614        -4.1528 
 128   0.0000      -0.139612        -3.7990 
 129   0.0000      -0.134503        -3.6600 
 130   0.0000      -0.134320        -3.6550 
 131   0.0000      -0.118866        -3.2345 
 132   0.0000      -0.104613        -2.8467 
 133   0.0000      -0.104575        -2.8456 
 134   0.0000      -0.104517        -2.8441 
 135   0.0000      -0.085972        -2.3394 
 136   0.0000      -0.055700        -1.5157 
 137   0.0000      -0.055672        -1.5149 
 138   0.0000      -0.055661        -1.5146 
 139   0.0000      -0.042077        -1.1450 
 140   0.0000      -0.041674        -1.1340 
 141   0.0000      -0.031144        -0.8475 
 142   0.0000       0.006742         0.1835 
 143   0.0000       0.010850         0.2952 
 144   0.0000       0.014711         0.4003 
 145   0.0000       0.019064         0.5188 
 146   0.0000       0.019269         0.5243 
 147   0.0000       0.041567         1.1311 
 148   0.0000       0.048478         1.3192 
 149   0.0000       0.048699         1.3252 
 150   0.0000       0.055737         1.5167 
 151   0.0000       0.055836         1.5194 
 152   0.0000       0.056805         1.5458 
 153   0.0000       0.059079         1.6076 
 154   0.0000       0.061328         1.6688 
 155   0.0000       0.064907         1.7662 
 156   0.0000       0.086736         2.3602 
 157   0.0000       0.086782         2.3615 
 158   0.0000       0.086815         2.3624 
 159   0.0000       0.097293         2.6475 
 160   0.0000       0.097307         2.6479 
 161   0.0000       0.097330         2.6485 
 162   0.0000       0.125632         3.4186 
 163   0.0000       0.125745         3.4217 
 164   0.0000       0.128546         3.4979 
 165   0.0000       0.139535         3.7969 
 166   0.0000       0.140901         3.8341 
 167   0.0000       0.151648         4.1266 
 168   0.0000       0.153922         4.1884 
 169   0.0000       0.154026         4.1913 
 170   0.0000       0.171654         4.6709 
 171   0.0000       0.176324         4.7980 
 172   0.0000       0.176539         4.8039 
 173   0.0000       0.192035         5.2255 
 174   0.0000       0.192167         5.2291 
 175   0.0000       0.192199         5.2300 
 176   0.0000       0.192596         5.2408 
 177   0.0000       0.198091         5.3903 
 178   0.0000       0.200126         5.4457 
 179   0.0000       0.208921         5.6850 
 180   0.0000       0.215585         5.8664 
 181   0.0000       0.215872         5.8742 
 182   0.0000       0.223254         6.0750 
 183   0.0000       0.232841         6.3359 
 184   0.0000       0.247184         6.7262 
 185   0.0000       0.251847         6.8531 
 186   0.0000       0.252126         6.8607 
 187   0.0000       0.252446         6.8694 
 188   0.0000       0.260890         7.0992 
 189   0.0000       0.264570         7.1993 
 190   0.0000       0.266032         7.2391 
 191   0.0000       0.266207         7.2439 
 192   0.0000       0.266210         7.2439 
 193   0.0000       0.273972         7.4552 
 194   0.0000       0.274185         7.4610 
 195   0.0000       0.309520         8.4225 
 196   0.0000       0.313345         8.5265 
 197   0.0000       0.319480         8.6935 
 198   0.0000       0.319780         8.7016 
 199   0.0000       0.319851         8.7036 
 200   0.0000       0.320221         8.7137 
 201   0.0000       0.322955         8.7881 
 202   0.0000       0.325198         8.8491 
 203   0.0000       0.325246         8.8504 
 204   0.0000       0.363732         9.8976 
 205   0.0000       0.369354        10.0506 
 206   0.0000       0.370234        10.0746 
 207   0.0000       0.370698        10.0872 
 208   0.0000       0.375770        10.2252 
 209   0.0000       0.376478        10.2445 
 210   0.0000       0.377169        10.2633 
 211   0.0000       0.378654        10.3037 
 212   0.0000       0.381378        10.3778 
 213   0.0000       0.381536        10.3821 
 214   0.0000       0.395655        10.7663 
 215   0.0000       0.397213        10.8087 
 216   0.0000       0.397318        10.8116 
 217   0.0000       0.398421        10.8416 
 218   0.0000       0.405145        11.0246 
 219   0.0000       0.405455        11.0330 
 220   0.0000       0.423294        11.5184 
 221   0.0000       0.423454        11.5228 
 222   0.0000       0.433685        11.8012 
 223   0.0000       0.465132        12.6569 
 224   0.0000       0.468978        12.7615 
 225   0.0000       0.475928        12.9507 
 226   0.0000       0.477620        12.9967 
 227   0.0000       0.477690        12.9986 
 228   0.0000       0.477812        13.0019 
 229   0.0000       0.484256        13.1773 
 230   0.0000       0.484595        13.1865 
 231   0.0000       0.492174        13.3927 
 232   0.0000       0.494667        13.4606 
 233   0.0000       0.505561        13.7570 
 234   0.0000       0.505717        13.7613 
 235   0.0000       0.507557        13.8113 
 236   0.0000       0.542635        14.7658 
 237   0.0000       0.544049        14.8043 
 238   0.0000       0.544093        14.8055 
 239   0.0000       0.544108        14.8059 
 240   0.0000       0.549335        14.9482 
 241   0.0000       0.550026        14.9670 
 242   0.0000       0.550080        14.9684 
 243   0.0000       0.553251        15.0547 
 244   0.0000       0.558884        15.2080 
 245   0.0000       0.559316        15.2198 
 246   0.0000       0.562232        15.2991 
 247   0.0000       0.568689        15.4748 
 248   0.0000       0.569159        15.4876 
 249   0.0000       0.608402        16.5555 
 250   0.0000       0.609403        16.5827 
 251   0.0000       0.623730        16.9726 
 252   0.0000       0.624407        16.9910 
 253   0.0000       0.633782        17.2461 
 254   0.0000       0.677165        18.4266 
 255   0.0000       0.678045        18.4505 
 256   0.0000       0.687480        18.7073 
 257   0.0000       0.693948        18.8833 
 258   0.0000       0.729954        19.8631 
 259   0.0000       0.749457        20.3938 
 260   0.0000       0.785941        21.3865 
 261   0.0000       0.786636        21.4054 
 262   0.0000       0.788268        21.4499 
 263   0.0000       0.807109        21.9626 
 264   0.0000       0.808343        21.9961 
 265   0.0000       0.814005        22.1502 
 266   0.0000       0.814417        22.1614 
 267   0.0000       0.822206        22.3734 
 268   0.0000       0.825264        22.4566 
 269   0.0000       0.826307        22.4850 
 270   0.0000       0.835682        22.7401 
 271   0.0000       0.844043        22.9676 
 272   0.0000       0.864619        23.5275 
 273   0.0000       0.865689        23.5566 
 274   0.0000       0.866898        23.5895 
 275   0.0000       0.909096        24.7378 
 276   0.0000       0.911158        24.7939 
 277   0.0000       0.911617        24.8064 
 278   0.0000       0.917748        24.9732 
 279   0.0000       0.926456        25.2101 
 280   0.0000       0.926701        25.2168 
 281   0.0000       0.931032        25.3347 
 282   0.0000       0.934471        25.4283 
 283   0.0000       0.939869        25.5751 
 284   0.0000       0.969012        26.3682 
 285   0.0000       0.970068        26.3969 
 286   0.0000       0.977352        26.5951 
 287   0.0000       1.069053        29.0904 
 288   0.0000       1.098248        29.8848 
 289   0.0000       1.130015        30.7493 
 290   0.0000       1.275052        34.6959 
 291   0.0000       1.277580        34.7647 
 292   0.0000       1.279780        34.8246 
 293   0.0000       1.282265        34.8922 
 294   0.0000       1.295818        35.2610 
 295   0.0000       1.296202        35.2715 
 296   0.0000       1.307709        35.5846 
 297   0.0000       1.322266        35.9807 
 298   0.0000       1.335553        36.3422 
 299   0.0000       1.336590        36.3705 
 300   0.0000       1.347446        36.6659 
 301   0.0000       1.349576        36.7238 
 302   0.0000       1.356984        36.9254 
 303   0.0000       1.357105        36.9287 
 304   0.0000       1.362922        37.0870 
 305   0.0000       1.367499        37.2115 
 306   0.0000       1.367634        37.2152 
 307   0.0000       1.377658        37.4880 
 308   0.0000       1.390090        37.8263 
 309   0.0000       1.395797        37.9816 
 310   0.0000       1.408796        38.3353 
 311   0.0000       1.423059        38.7234 
 312   0.0000       1.435315        39.0569 
 313   0.0000       1.435733        39.0683 
 314   0.0000       1.444491        39.3066 
 315   0.0000       1.474163        40.1140 
 316   0.0000       1.477611        40.2078 
 317   0.0000       1.477855        40.2145 
 318   0.0000       1.479553        40.2607 
 319   0.0000       1.484919        40.4067 
 320   0.0000       1.484931        40.4070 
 321   0.0000       1.490285        40.5527 
 322   0.0000       1.497145        40.7394 
 323   0.0000       1.497492        40.7488 
 324   0.0000       1.497675        40.7538 
 325   0.0000       1.498537        40.7773 
 326   0.0000       1.499173        40.7946 
 327   0.0000       1.502087        40.8739 
 328   0.0000       1.514418        41.2094 
 329   0.0000       1.532421        41.6993 
 330   0.0000       1.533072        41.7170 
 331   0.0000       1.539190        41.8835 
 332   0.0000       1.540104        41.9084 
 333   0.0000       1.541369        41.9428 
 334   0.0000       1.541469        41.9455 
 335   0.0000       1.541474        41.9456 
 336   0.0000       1.541561        41.9480 
 337   0.0000       1.545582        42.0574 
 338   0.0000       1.545868        42.0652 
 339   0.0000       1.546176        42.0736 
 340   0.0000       1.547753        42.1165 
 341   0.0000       1.551087        42.2072 
 342   0.0000       1.554963        42.3127 
 343   0.0000       1.555047        42.3150 
 344   0.0000       1.558141        42.3992 
 345   0.0000       1.558386        42.4058 
 346   0.0000       1.558554        42.4104 
 347   0.0000       1.559693        42.4414 
 348   0.0000       1.563659        42.5493 
 349   0.0000       1.565110        42.5888 
 350   0.0000       1.568953        42.6934 
 351   0.0000       1.569533        42.7092 
 352   0.0000       1.569587        42.7106 
 353   0.0000       1.573871        42.8272 
 354   0.0000       1.573977        42.8301 
 355   0.0000       1.574131        42.8343 
 356   0.0000       1.575067        42.8598 
 357   0.0000       1.575166        42.8625 
 358   0.0000       1.580073        42.9960 
 359   0.0000       1.581652        43.0389 
 360   0.0000       1.581807        43.0431 
 361   0.0000       1.588689        43.2304 
 362   0.0000       1.588931        43.2370 
 363   0.0000       1.589931        43.2642 
 364   0.0000       1.590177        43.2709 
 365   0.0000       1.590318        43.2748 
 366   0.0000       1.590956        43.2921 
 367   0.0000       1.591224        43.2994 
 368   0.0000       1.591898        43.3177 
[...]
CHARGE
  0 Aus       :     2.608928  s :     2.608928
      pz      :     2.117977  p :     6.450179
      px      :     2.175653
      py      :     2.156549
      dz2     :     1.970569  d :     9.888894
      dxz     :     1.980968
      dyz     :     1.982321
      dx2y2   :     1.967979
      dxy     :     1.987058
      f0      :     0.000679  f :     0.005743
      f+1     :     0.000925
      f-1     :     0.000898
      f+2     :     0.001027
      f-2     :     0.000577
      f+3     :     0.000974
      f-3     :     0.000664
  1 Aus       :     2.536497  s :     2.536497
      pz      :     2.158527  p :     6.479496
      px      :     2.177081
      py      :     2.143888
      dz2     :     1.996134  d :     9.908726
      dxz     :     1.952135
      dyz     :     1.988007
      dx2y2   :     1.983717
      dxy     :     1.988733
      f0      :     0.000763  f :     0.005500
      f+1     :     0.000910
      f-1     :     0.000969
      f+2     :     0.000726
      f-2     :     0.000548
      f+3     :     0.000969
      f-3     :     0.000615
  2 Aus       :     2.606691  s :     2.606691
      pz      :     2.142979  p :     6.456031
      px      :     2.171372
      py      :     2.141680
      dz2     :     1.966203  d :     9.888278
      dxz     :     1.984527
      dyz     :     1.984435
      dx2y2   :     1.994049
      dxy     :     1.959064
      f0      :     0.000612  f :     0.005727
      f+1     :     0.000890
      f-1     :     0.000831
      f+2     :     0.000988
      f-2     :     0.000602
      f+3     :     0.001022
      f-3     :     0.000782
  3 Aus       :     2.536507  s :     2.536507
      pz      :     2.179836  p :     6.479446
      px      :     2.185783
      py      :     2.113827
      dz2     :     1.972508  d :     9.908738
      dxz     :     1.988643
      dyz     :     1.991726
      dx2y2   :     1.978264
      dxy     :     1.977597
      f0      :     0.000704  f :     0.005498
      f+1     :     0.000838
      f-1     :     0.000966
      f+2     :     0.000752
      f-2     :     0.000509
      f+3     :     0.000996
      f-3     :     0.000732
  4 Aus       :     2.613999  s :     2.613999
      pz      :     2.171782  p :     6.454804
      px      :     2.100634
      py      :     2.182388
      dz2     :     1.959054  d :     9.884761
      dxz     :     1.992716
      dyz     :     1.986950
      dx2y2   :     1.952261
      dxy     :     1.993779
      f0      :     0.000674  f :     0.005356
      f+1     :     0.001058
      f-1     :     0.000749
      f+2     :     0.000702
      f-2     :     0.000525
      f+3     :     0.000978
      f-3     :     0.000670
  5 Aus       :     2.613974  s :     2.613974
      pz      :     2.157106  p :     6.454745
      px      :     2.125448
      py      :     2.172192
      dz2     :     1.988980  d :     9.884740
      dxz     :     1.983295
      dyz     :     1.950050
      dx2y2   :     1.983414
      dxy     :     1.979000
      f0      :     0.000733  f :     0.005362
      f+1     :     0.001024
      f-1     :     0.000843
      f+2     :     0.000659
      f-2     :     0.000580
      f+3     :     0.000950
      f-3     :     0.000573
  6 Aus       :     2.613964  s :     2.613964
      pz      :     2.157113  p :     6.454759
      px      :     2.125443
      py      :     2.172204
      dz2     :     1.988985  d :     9.884751
      dxz     :     1.983292
      dyz     :     1.950057
      dx2y2   :     1.983417
      dxy     :     1.979000
      f0      :     0.000733  f :     0.005363
      f+1     :     0.001024
      f-1     :     0.000843
      f+2     :     0.000659
      f-2     :     0.000580
      f+3     :     0.000950
      f-3     :     0.000573
  7 Aus       :     2.536526  s :     2.536526
      pz      :     2.158502  p :     6.479436
      px      :     2.177069
      py      :     2.143865
      dz2     :     1.996134  d :     9.908742
      dxz     :     1.952141
      dyz     :     1.988015
      dx2y2   :     1.983721
      dxy     :     1.988732
      f0      :     0.000762  f :     0.005497
      f+1     :     0.000910
      f-1     :     0.000968
      f+2     :     0.000726
      f-2     :     0.000548
      f+3     :     0.000968
      f-3     :     0.000615
  8 Aus       :     2.536460  s :     2.536460
      pz      :     2.179877  p :     6.479528
      px      :     2.185807
      py      :     2.113844
      dz2     :     1.972503  d :     9.908708
      dxz     :     1.988644
      dyz     :     1.991716
      dx2y2   :     1.978269
      dxy     :     1.977577
      f0      :     0.000705  f :     0.005502
      f+1     :     0.000839
      f-1     :     0.000967
      f+2     :     0.000753
      f-2     :     0.000509
      f+3     :     0.000997
      f-3     :     0.000733
  9 Aus       :     2.613865  s :     2.613865
      pz      :     2.171854  p :     6.454953
      px      :     2.100647
      py      :     2.182452
      dz2     :     1.959048  d :     9.884747
      dxz     :     1.992715
      dyz     :     1.986950
      dx2y2   :     1.952247
      dxy     :     1.993786
      f0      :     0.000675  f :     0.005364
      f+1     :     0.001059
      f-1     :     0.000750
      f+2     :     0.000703
      f-2     :     0.000526
      f+3     :     0.000979
      f-3     :     0.000671
 10 Aus       :     2.608868  s :     2.608868
      pz      :     2.117992  p :     6.450235
      px      :     2.175673
      py      :     2.156569
      dz2     :     1.970578  d :     9.888877
      dxz     :     1.980952
      dyz     :     1.982310
      dx2y2   :     1.967979
      dxy     :     1.987059
      f0      :     0.000680  f :     0.005748
      f+1     :     0.000926
      f-1     :     0.000900
      f+2     :     0.001028
      f-2     :     0.000577
      f+3     :     0.000974
      f-3     :     0.000664
 11 Aus       :     2.606744  s :     2.606744
      pz      :     2.142958  p :     6.455970
      px      :     2.171352
      py      :     2.141660
      dz2     :     1.966207  d :     9.888290
      dxz     :     1.984515
      dyz     :     1.984446
      dx2y2   :     1.994046
      dxy     :     1.959075
      f0      :     0.000611  f :     0.005724
      f+1     :     0.000890
      f-1     :     0.000830
      f+2     :     0.000987
      f-2     :     0.000602
      f+3     :     0.001022
      f-3     :     0.000781
 12 Fes       :     6.263690  s :     6.263690
      pz      :     4.189577  p :    12.573023
      px      :     4.192657
      py      :     4.190789
      dz2     :     1.477373  d :     7.785572
      dxz     :     1.559421
      dyz     :     1.643456
      dx2y2   :     1.512164
      dxy     :     1.593158
      f0      :     0.000050  f :     0.000474
      f+1     :     0.000085
      f-1     :     0.000078
      f+2     :     0.000074
      f-2     :     0.000045
      f+3     :     0.000091
      f-3     :     0.000050

SPIN
  0 Aus       :     0.002636  s :     0.002636
      pz      :    -0.000794  p :    -0.057525
      px      :    -0.027292
      py      :    -0.029439
      dz2     :     0.002587  d :    -0.021735
      dxz     :    -0.000792
      dyz     :    -0.010600
      dx2y2   :    -0.008736
      dxy     :    -0.004195
      f0      :     0.000005  f :    -0.000157
      f+1     :    -0.000007
      f-1     :    -0.000008
      f+2     :    -0.000031
      f-2     :    -0.000003
      f+3     :    -0.000088
      f-3     :    -0.000026
  1 Aus       :    -0.112414  s :    -0.112414
      pz      :    -0.004102  p :    -0.026202
      px      :    -0.001909
      py      :    -0.020190
      dz2     :     0.001231  d :    -0.004174
      dxz     :     0.005444
      dyz     :    -0.005616
      dx2y2   :     0.000243
      dxy     :    -0.005477
      f0      :     0.000000  f :    -0.000027
      f+1     :     0.000025
      f-1     :    -0.000025
      f+2     :     0.000020
      f-2     :    -0.000003
      f+3     :    -0.000041
      f-3     :    -0.000004
  2 Aus       :     0.001501  s :     0.001501
      pz      :    -0.030425  p :    -0.049437
      px      :    -0.013503
      py      :    -0.005509
      dz2     :    -0.000515  d :    -0.021112
      dxz     :    -0.005019
      dyz     :    -0.012584
      dx2y2   :    -0.011944
      dxy     :     0.008949
      f0      :    -0.000024  f :    -0.000151
      f+1     :    -0.000048
      f-1     :    -0.000035
      f+2     :    -0.000031
      f-2     :    -0.000010
      f+3     :     0.000011
      f-3     :    -0.000015
  3 Aus       :    -0.112429  s :    -0.112429
      pz      :    -0.012027  p :    -0.026193
      px      :    -0.008518
      py      :    -0.005649
      dz2     :     0.003504  d :    -0.004183
      dxz     :    -0.007333
      dyz     :    -0.004826
      dx2y2   :     0.004188
      dxy     :     0.000284
      f0      :     0.000006  f :    -0.000027
      f+1     :    -0.000050
      f-1     :     0.000016
      f+2     :    -0.000037
      f-2     :    -0.000004
      f+3     :     0.000027
      f-3     :     0.000015
  4 Aus       :     0.001051  s :     0.001051
      pz      :    -0.026391  p :    -0.045651
      px      :     0.006859
      py      :    -0.026118
      dz2     :    -0.004542  d :    -0.012066
      dxz     :    -0.004596
      dyz     :    -0.006221
      dx2y2   :     0.011515
      dxy     :    -0.008223
      f0      :    -0.000034  f :    -0.000112
      f+1     :     0.000012
      f-1     :    -0.000058
      f+2     :    -0.000026
      f-2     :    -0.000014
      f+3     :    -0.000000
      f-3     :     0.000008
  5 Aus       :     0.001056  s :     0.001056
      pz      :    -0.009252  p :    -0.045927
      px      :    -0.027945
      py      :    -0.008729
      dz2     :    -0.006545  d :    -0.011992
      dxz     :    -0.006328
      dyz     :     0.009983
      dx2y2   :     0.000665
      dxy     :    -0.009766
      f0      :    -0.000003  f :    -0.000112
      f+1     :    -0.000059
      f-1     :     0.000011
      f+2     :     0.000020
      f-2     :    -0.000006
      f+3     :    -0.000046
      f-3     :    -0.000029
  6 Aus       :     0.001056  s :     0.001056
      pz      :    -0.009240  p :    -0.045902
      px      :    -0.027945
      py      :    -0.008717
      dz2     :    -0.006542  d :    -0.011984
      dxz     :    -0.006328
      dyz     :     0.009981
      dx2y2   :     0.000663
      dxy     :    -0.009757
      f0      :    -0.000003  f :    -0.000112
      f+1     :    -0.000059
      f-1     :     0.000011
      f+2     :     0.000020
      f-2     :    -0.000006
      f+3     :    -0.000046
      f-3     :    -0.000029
  7 Aus       :    -0.112471  s :    -0.112471
      pz      :    -0.004109  p :    -0.026209
      px      :    -0.001910
      py      :    -0.020190
      dz2     :     0.001234  d :    -0.004174
      dxz     :     0.005443
      dyz     :    -0.005615
      dx2y2   :     0.000243
      dxy     :    -0.005479
      f0      :     0.000000  f :    -0.000027
      f+1     :     0.000025
      f-1     :    -0.000025
      f+2     :     0.000020
      f-2     :    -0.000003
      f+3     :    -0.000041
      f-3     :    -0.000004
  8 Aus       :    -0.112378  s :    -0.112378
      pz      :    -0.012026  p :    -0.026192
      px      :    -0.008521
      py      :    -0.005646
      dz2     :     0.003507  d :    -0.004169
      dxz     :    -0.007333
      dyz     :    -0.004823
      dx2y2   :     0.004192
      dxy     :     0.000289
      f0      :     0.000006  f :    -0.000027
      f+1     :    -0.000050
      f-1     :     0.000016
      f+2     :    -0.000037
      f-2     :    -0.000004
      f+3     :     0.000027
      f-3     :     0.000015
  9 Aus       :     0.001046  s :     0.001046
      pz      :    -0.026391  p :    -0.045649
      px      :     0.006860
      py      :    -0.026118
      dz2     :    -0.004533  d :    -0.012034
      dxz     :    -0.004587
      dyz     :    -0.006222
      dx2y2   :     0.011524
      dxy     :    -0.008215
      f0      :    -0.000034  f :    -0.000112
      f+1     :     0.000012
      f-1     :    -0.000058
      f+2     :    -0.000026
      f-2     :    -0.000014
      f+3     :    -0.000000
      f-3     :     0.000008
 10 Aus       :     0.002634  s :     0.002634
      pz      :    -0.000800  p :    -0.057551
      px      :    -0.027303
      py      :    -0.029448
      dz2     :     0.002579  d :    -0.021742
      dxz     :    -0.000789
      dyz     :    -0.010603
      dx2y2   :    -0.008734
      dxy     :    -0.004195
      f0      :     0.000005  f :    -0.000157
      f+1     :    -0.000007
      f-1     :    -0.000008
      f+2     :    -0.000031
      f-2     :    -0.000003
      f+3     :    -0.000088
      f-3     :    -0.000026
 11 Aus       :     0.001500  s :     0.001500
      pz      :    -0.030422  p :    -0.049420
      px      :    -0.013498
      py      :    -0.005500
      dz2     :    -0.000513  d :    -0.021112
      dxz     :    -0.005025
      dyz     :    -0.012579
      dx2y2   :    -0.011941
      dxy     :     0.008947
      f0      :    -0.000024  f :    -0.000151
      f+1     :    -0.000048
      f-1     :    -0.000035
      f+2     :    -0.000031
      f-2     :    -0.000010
      f+3     :     0.000011
      f-3     :    -0.000015
 12 Fes       :     0.010317  s :     0.010317
      pz      :     0.003110  p :     0.009353
      px      :     0.002566
      py      :     0.003677
      dz2     :     0.754008  d :     3.071037
      dxz     :     0.553741
      dyz     :     0.508495
      dx2y2   :     0.696073
      dxy     :     0.558720
      f0      :     0.000002  f :     0.000012
      f+1     :     0.000003
      f-1     :     0.000002
      f+2     :     0.000000
      f-2     :    -0.000000
      f+3     :     0.000004
      f-3     :     0.000002


                      *****************************
                      * MAYER POPULATION ANALYSIS *
                      *****************************

  NA   - Mulliken gross atomic population
  ZA   - Total nuclear charge
  QA   - Mulliken gross atomic charge
  VA   - Mayer's total valence
  BVA  - Mayer's bonded valence
  FA   - Mayer's free valence

  ATOM       NA         ZA         QA         VA         BVA        FA
  0 Au    18.8249    19.0000     0.1751     1.5705     1.5656     0.0048
  1 Au    18.7518    19.0000     0.2482     1.5719     1.5177     0.0542
  2 Au    18.8201    19.0000     0.1799     1.5734     1.5688     0.0047
  3 Au    18.7517    19.0000     0.2483     1.5718     1.5176     0.0542
  4 Au    18.8612    19.0000     0.1388     1.5651     1.5588     0.0062
  5 Au    18.8613    19.0000     0.1387     1.5652     1.5590     0.0062
  6 Au    18.8612    19.0000     0.1388     1.5652     1.5590     0.0062
  7 Au    18.7518    19.0000     0.2482     1.5717     1.5175     0.0542
  8 Au    18.7517    19.0000     0.2483     1.5720     1.5179     0.0542
  9 Au    18.8612    19.0000     0.1388     1.5654     1.5592     0.0062
 10 Au    18.8249    19.0000     0.1751     1.5706     1.5658     0.0048
 11 Au    18.8201    19.0000     0.1799     1.5733     1.5686     0.0047
 12 Fe    28.2580    26.0000    -2.2580     8.1924     5.7408     2.4516

  Mayer bond orders larger than 0.100000
B(  0-Au,  1-Au) :   0.2233 B(  0-Au,  3-Au) :   0.2243 B(  0-Au,  4-Au) :   0.2267 
B(  0-Au,  6-Au) :   0.2267 B(  0-Au, 12-Fe) :   0.4581 B(  1-Au,  2-Au) :   0.2253 
B(  1-Au,  6-Au) :   0.1909 B(  1-Au,  9-Au) :   0.2042 B(  1-Au, 12-Fe) :   0.4710 
B(  2-Au,  3-Au) :   0.2252 B(  2-Au,  5-Au) :   0.2283 B(  2-Au,  9-Au) :   0.2284 
B(  2-Au, 12-Fe) :   0.4578 B(  3-Au,  4-Au) :   0.1906 B(  3-Au,  5-Au) :   0.2036 
B(  3-Au, 12-Fe) :   0.4710 B(  4-Au,  7-Au) :   0.2042 B(  4-Au, 11-Au) :   0.2282 
B(  4-Au, 12-Fe) :   0.5061 B(  5-Au,  7-Au) :   0.1909 B(  5-Au, 10-Au) :   0.2267 
B(  5-Au, 12-Fe) :   0.5063 B(  6-Au,  8-Au) :   0.2035 B(  6-Au, 11-Au) :   0.2283 
B(  6-Au, 12-Fe) :   0.5063 B(  7-Au, 10-Au) :   0.2233 B(  7-Au, 11-Au) :   0.2251 
B(  7-Au, 12-Fe) :   0.4710 B(  8-Au,  9-Au) :   0.1907 B(  8-Au, 10-Au) :   0.2244 
B(  8-Au, 11-Au) :   0.2252 B(  8-Au, 12-Fe) :   0.4711 B(  9-Au, 10-Au) :   0.2268 
B(  9-Au, 12-Fe) :   0.5061 B( 10-Au, 12-Fe) :   0.4581 B( 11-Au, 12-Fe) :   0.4579 


-------
TIMINGS
-------

Total SCF time: 0 days 0 hours 3 min 23 sec 

Total time                  ....     203.326 sec
Sum of individual times     ....     201.056 sec  ( 98.9%)

Fock matrix formation       ....     192.031 sec  ( 94.4%)
  Split-RI-J                ....      36.855 sec  ( 19.2% of F)
  XC integration            ....     154.319 sec  ( 80.4% of F)
    Basis function eval.    ....       6.403 sec  (  4.1% of XC)
    Density eval.           ....      51.332 sec  ( 33.3% of XC)
    XC-Functional eval.     ....       3.693 sec  (  2.4% of XC)
    XC-Potential eval.      ....      36.044 sec  ( 23.4% of XC)
Diagonalization             ....       5.608 sec  (  2.8%)
Density matrix formation    ....       0.311 sec  (  0.2%)
Population analysis         ....       0.264 sec  (  0.1%)
Initial guess               ....       0.418 sec  (  0.2%)
Orbital Transformation      ....       0.000 sec  (  0.0%)
Orbital Orthonormalization  ....       0.373 sec  (  0.2%)
DIIS solution               ....       0.000 sec  (  0.0%)
Grid generation             ....       2.424 sec  (  1.2%)

Maximum memory used throughout the entire SCF-calculation: 83.5 MB

-------------------------   --------------------
FINAL SINGLE POINT ENERGY     -2893.839203763764
-------------------------   --------------------


                            ***************************************
                            *     ORCA property calculations      *
                            ***************************************

                                    ---------------------
                                    Active property flags
                                    ---------------------
   (+) Dipole Moment


------------------------------------------------------------------------------
                       ORCA ELECTRIC PROPERTIES CALCULATION
------------------------------------------------------------------------------

Dipole Moment Calculation                       ... on
Quadrupole Moment Calculation                   ... off
Polarizability Calculation                      ... off
GBWName                                         ... scan_job2.gbw
Electron density                                ... scan_job2.scfp
The origin for moment calculation is the CENTER OF MASS  = (12.429768, 15.126575 12.171825)

-------------
DIPOLE MOMENT
-------------
                                X             Y             Z
Electronic contribution:     -0.00025      -0.00082      -0.00095
Nuclear contribution   :      0.00016       0.00075       0.00113
                        -----------------------------------------
Total Dipole Moment    :     -0.00009      -0.00007       0.00018
                        -----------------------------------------
Magnitude (a.u.)       :      0.00021
Magnitude (Debye)      :      0.00054



--------------------
Rotational spectrum 
--------------------
 
Rotational constants in cm-1:     0.001398     0.001395     0.001333 
Rotational constants in MHz :    41.902041    41.819732    39.950130 

 Dipole components along the rotational axes: 
x,y,z [a.u.] :    -0.000195     0.000063     0.000054 
x,y,z [Debye]:    -0.000495     0.000160     0.000137 

 

Timings for individual modules:

Sum of individual times         ...      221.123 sec (=   3.685 min)
GTO integral calculation        ...       17.515 sec (=   0.292 min)   7.9 %
SCF iterations                  ...      203.609 sec (=   3.393 min)  92.1 %



                             ****ORCA TERMINATED NORMALLY****
TOTAL RUN TIME: 0 days 0 hours 8 minutes 21 seconds 353 msec
