
                                 *****************
                                 * O   R   C   A *
                                 *****************

                                            #,                                       
                                            ###                                      
                                            ####                                     
                                            #####                                    
                                            ######                                   
                                           ########,                                 
                                     ,,################,,,,,                         
                               ,,#################################,,                 
                          ,,##########################################,,             
                       ,#########################################, ''#####,          
                    ,#############################################,,   '####,        
                  ,##################################################,,,,####,       
                ,###########''''           ''''###############################       
              ,#####''   ,,,,##########,,,,          '''####'''          '####       
            ,##' ,,,,###########################,,,                        '##       
           ' ,,###''''                  '''############,,,                           
         ,,##''                                '''############,,,,        ,,,,,,###''
      ,#''                                            '''#######################'''  
     '                                                          ''''####''''         
             ,#######,   #######,   ,#######,      ##                                
            ,#'     '#,  ##    ##  ,#'     '#,    #''#        ######   ,####,        
            ##       ##  ##   ,#'  ##            #'  '#       #        #'  '#        
            ##       ##  #######   ##           ,######,      #####,   #    #        
            '#,     ,#'  ##    ##  '#,     ,#' ,#      #,         ##   #,  ,#        
             '#######'   ##     ##  '#######'  #'      '#     #####' # '####'        



                  #######################################################
                  #                        -***-                        #
                  #          Department of theory and spectroscopy      #
                  #    Directorship and core code : Frank Neese         #
                  #        Max Planck Institute fuer Kohlenforschung    #
                  #                Kaiser Wilhelm Platz 1               #
                  #                 D-45470 Muelheim/Ruhr               #
                  #                      Germany                        #
                  #                                                     #
                  #                  All rights reserved                #
                  #                        -***-                        #
                  #######################################################


                         Program Version 5.0.3 -  RELEASE  -


 With contributions from (in alphabetic order):
   Daniel Aravena         : Magnetic Suceptibility
   Michael Atanasov       : Ab Initio Ligand Field Theory (pilot matlab implementation)
   Alexander A. Auer      : GIAO ZORA, VPT2 properties, NMR spectrum
   Ute Becker             : Parallelization
   Giovanni Bistoni       : ED, misc. LED, open-shell LED, HFLD
   Martin Brehm           : Molecular dynamics
   Dmytro Bykov           : SCF Hessian
   Vijay G. Chilkuri      : MRCI spin determinant printing, contributions to CSF-ICE
   Dipayan Datta          : RHF DLPNO-CCSD density
   Achintya Kumar Dutta   : EOM-CC, STEOM-CC
   Dmitry Ganyushin       : Spin-Orbit,Spin-Spin,Magnetic field MRCI
   Miquel Garcia          : C-PCM and meta-GGA Hessian, CC/C-PCM, Gaussian charge scheme
   Yang Guo               : DLPNO-NEVPT2, F12-NEVPT2, CIM, IAO-localization
   Andreas Hansen         : Spin unrestricted coupled pair/coupled cluster methods
   Benjamin Helmich-Paris : MC-RPA, TRAH-SCF, COSX integrals
   Lee Huntington         : MR-EOM, pCC
   Robert Izsak           : Overlap fitted RIJCOSX, COSX-SCS-MP3, EOM
   Marcus Kettner         : VPT2
   Christian Kollmar      : KDIIS, OOCD, Brueckner-CCSD(T), CCSD density, CASPT2, CASPT2-K
   Simone Kossmann        : Meta GGA functionals, TD-DFT gradient, OOMP2, MP2 Hessian
   Martin Krupicka        : Initial AUTO-CI
   Lucas Lang             : DCDCAS
   Marvin Lechner         : AUTO-CI (C++ implementation), FIC-MRCC
   Dagmar Lenk            : GEPOL surface, SMD
   Dimitrios Liakos       : Extrapolation schemes; Compound Job, initial MDCI parallelization
   Dimitrios Manganas     : Further ROCIS development; embedding schemes
   Dimitrios Pantazis     : SARC Basis sets
   Anastasios Papadopoulos: AUTO-CI, single reference methods and gradients
   Taras Petrenko         : DFT Hessian,TD-DFT gradient, ASA, ECA, R-Raman, ABS, FL, XAS/XES, NRVS
   Peter Pinski           : DLPNO-MP2, DLPNO-MP2 Gradient
   Christoph Reimann      : Effective Core Potentials
   Marius Retegan         : Local ZFS, SOC
   Christoph Riplinger    : Optimizer, TS searches, QM/MM, DLPNO-CCSD(T), (RO)-DLPNO pert. Triples
   Tobias Risthaus        : Range-separated hybrids, TD-DFT gradient, RPA, STAB
   Michael Roemelt        : Original ROCIS implementation
   Masaaki Saitow         : Open-shell DLPNO-CCSD energy and density
   Barbara Sandhoefer     : DKH picture change effects
   Avijit Sen             : IP-ROCIS
   Kantharuban Sivalingam : CASSCF convergence, NEVPT2, FIC-MRCI
   Bernardo de Souza      : ESD, SOC TD-DFT
   Georgi Stoychev        : AutoAux, RI-MP2 NMR, DLPNO-MP2 response
   Willem Van den Heuvel  : Paramagnetic NMR
   Boris Wezisla          : Elementary symmetry handling
   Frank Wennmohs         : Technical directorship


 We gratefully acknowledge several colleagues who have allowed us to
 interface, adapt or use parts of their codes:
   Stefan Grimme, W. Hujo, H. Kruse, P. Pracht,  : VdW corrections, initial TS optimization,
                  C. Bannwarth, S. Ehlert          DFT functionals, gCP, sTDA/sTD-DF
   Ed Valeev, F. Pavosevic, A. Kumar             : LibInt (2-el integral package), F12 methods
   Garnet Chan, S. Sharma, J. Yang, R. Olivares  : DMRG
   Ulf Ekstrom                                   : XCFun DFT Library
   Mihaly Kallay                                 : mrcc  (arbitrary order and MRCC methods)
   Jiri Pittner, Ondrej Demel                    : Mk-CCSD
   Frank Weinhold                                : gennbo (NPA and NBO analysis)
   Christopher J. Cramer and Donald G. Truhlar   : smd solvation model
   Lars Goerigk                                  : TD-DFT with DH, B97 family of functionals
   V. Asgeirsson, H. Jonsson                     : NEB implementation
   FAccTs GmbH                                   : IRC, NEB, NEB-TS, DLPNO-Multilevel, CI-OPT
                                                   MM, QMMM, 2- and 3-layer-ONIOM, Crystal-QMMM,
                                                   LR-CPCM, SF, NACMEs, symmetry and pop. for TD-DFT,
                                                   nearIR, NL-DFT gradient (VV10), updates on ESD,
                                                   ML-optimized integration grids
   S Lehtola, MJT Oliveira, MAL Marques          : LibXC Library
   Liviu Ungur et al                             : ANISO software


 Your calculation uses the libint2 library for the computation of 2-el integrals
 For citations please refer to: http://libint.valeyev.net

 Your ORCA version has been built with support for libXC version: 5.1.0
 For citations please refer to: https://tddft.org/programs/libxc/

 This ORCA versions uses:
   CBLAS   interface :  Fast vector & matrix operations
   LAPACKE interface :  Fast linear algebra routines
   SCALAPACK package :  Parallel linear algebra routines
   Shared memory     :  Shared parallel matrices
   BLAS/LAPACK       :  OpenBLAS 0.3.15  USE64BITINT DYNAMIC_ARCH NO_AFFINITY Haswell SINGLE_THREADED
        Core in use  :  Haswell
   Copyright (c) 2011-2014, The OpenBLAS Project




***************************************
The coordinates will be read from file: pbe.xyz
***************************************


================================================================================

cite the ECPs for Au [Def2-ECP] as follows:
Ce-Yb(ecp-28): M. Dolg, H. Stoll, H.Preuss, J. Chem. Phys., 1989, 90, 1730-1734.
Y-Cd(ecp-28), Hf-Hg(ecp-46): D. Andrae,U. Haeussermann, M. Dolg, H. Stoll, H. Preuss, Theor. Chim. Acta, 1990, 77, 123-141.
In-Sb(ecp-28), Tl-Bi(ecp-46): B. Metz, H. Stoll, M. Dolg, J. Chem. Phys., 2000, 113, 2563-2569.
Te-Xe(ecp-28), Po-Rn(ecp-46): K. A. Peterson, D. Figgen, E. Goll, H. Stoll, M. Dolg, J. Chem. Phys., 2003, 119, 11113-11123.
Rb(ecp-28), Cs(ecp-46): T. Leininger, A. Nicklass, W. Kuechle, H. Stoll, M. Dolg, A. Bergner, Chem. Phys. Lett., 1996, 255, 274-280.
Sr(ecp-28), Ba(ecp-46): M. Kaupp, P. V. Schleyer, H. Stoll and H. Preuss, J. Chem. Phys., 1991, 94, 1360-1366.
La(ecp-46): M. Dolg, H. Stoll, A. Savin, H. Preuss, Theor. Chim. Acta, 1989, 75, 173-194.
Lu(ecp-28): X. Cao, M. Dolg, J. Chem. Phys., 2001, 115, 7348-7355.

ECP parameters for Au [Def2-ECP] have been obtained from:
TURBOMOLE (7.0.2)

----- Orbital basis set information -----
Your calculation utilizes the basis: def2-TZVP
   F. Weigend and R. Ahlrichs, Phys. Chem. Chem. Phys. 7, 3297 (2005).

----- AuxJ basis set information -----
Your calculation utilizes the auxiliary basis: def2/J
   F. Weigend, Phys. Chem. Chem. Phys. 8, 1057 (2006).

----- AuxC basis set information -----
Your calculation utilizes the auxiliary basis: def2-TZVP/C
  H-La, Hf-Rn : A. Hellweg, C. Hattig, S. Hofener and W. Klopper, Theor. Chem. Acc. 117, 587 (2007).
        Ce-Lu : J. Chmela and M. E. Harding, Mol. Phys. (2018).

================================================================================
                                        WARNINGS
                       Please study these warnings very carefully!
================================================================================


WARNING: your system is open-shell and RHF/RKS was chosen
  ===> : WILL SWITCH to UHF/UKS


WARNING: No MP2 level density has been requested!
         To caclulate MP2 level properties use
         %mp2 Density relaxed end
         or
         %mp2 Density unrelaxed end
         Otherwise for double-hybrid DFT only the energy is correct!

WARNING: The frozen-core approximation is turned on by default for 
         the MP2 part of double-hybrid DFT.

INFO   : the flag for use of the SHARK integral package has been found!



***************************************
The coordinates will be read from file: pbe.xyz
***************************************


================================================================================

cite the ECPs for Au [Def2-ECP] as follows:
Ce-Yb(ecp-28): M. Dolg, H. Stoll, H.Preuss, J. Chem. Phys., 1989, 90, 1730-1734.
Y-Cd(ecp-28), Hf-Hg(ecp-46): D. Andrae,U. Haeussermann, M. Dolg, H. Stoll, H. Preuss, Theor. Chim. Acta, 1990, 77, 123-141.
In-Sb(ecp-28), Tl-Bi(ecp-46): B. Metz, H. Stoll, M. Dolg, J. Chem. Phys., 2000, 113, 2563-2569.
Te-Xe(ecp-28), Po-Rn(ecp-46): K. A. Peterson, D. Figgen, E. Goll, H. Stoll, M. Dolg, J. Chem. Phys., 2003, 119, 11113-11123.
Rb(ecp-28), Cs(ecp-46): T. Leininger, A. Nicklass, W. Kuechle, H. Stoll, M. Dolg, A. Bergner, Chem. Phys. Lett., 1996, 255, 274-280.
Sr(ecp-28), Ba(ecp-46): M. Kaupp, P. V. Schleyer, H. Stoll and H. Preuss, J. Chem. Phys., 1991, 94, 1360-1366.
La(ecp-46): M. Dolg, H. Stoll, A. Savin, H. Preuss, Theor. Chim. Acta, 1989, 75, 173-194.
Lu(ecp-28): X. Cao, M. Dolg, J. Chem. Phys., 2001, 115, 7348-7355.

ECP parameters for Au [Def2-ECP] have been obtained from:
TURBOMOLE (7.0.2)

----- Orbital basis set information -----
Your calculation utilizes the basis: def2-TZVP
   F. Weigend and R. Ahlrichs, Phys. Chem. Chem. Phys. 7, 3297 (2005).

----- AuxJ basis set information -----
Your calculation utilizes the auxiliary basis: def2/J
   F. Weigend, Phys. Chem. Chem. Phys. 8, 1057 (2006).

----- AuxC basis set information -----
Your calculation utilizes the auxiliary basis: def2-TZVP/C
  H-La, Hf-Rn : A. Hellweg, C. Hattig, S. Hofener and W. Klopper, Theor. Chem. Acc. 117, 587 (2007).
        Ce-Lu : J. Chmela and M. E. Harding, Mol. Phys. (2018).

================================================================================
                                        WARNINGS
                       Please study these warnings very carefully!
================================================================================


WARNING: No MP2 level density has been requested!
         To caclulate MP2 level properties use
         %mp2 Density relaxed end
         or
         %mp2 Density unrelaxed end
         Otherwise for double-hybrid DFT only the energy is correct!

WARNING: The frozen-core approximation is turned on by default for 
         the MP2 part of double-hybrid DFT.

INFO   : the flag for use of the SHARK integral package has been found!

================================================================================
                                       INPUT FILE
================================================================================
NAME = b2plyp.inp
|  1> !RI-B2PLYP def2-TZVP def2-TZVP/C
|  2> !RIJCOSX VERYSLOWCONV
|  3> 
|  4> %scf
|  5>   AutoTRAHIter 200
|  6>   maxiter 400
|  7> end
|  8> 
|  9> 
| 10> %pal nprocs 6 end 
| 11> 
| 12> *xyzfile 0 5 pbe.xyz
| 13> 
| 14> $new_job
| 15> 
| 16> !RI-B2PLYP def2-TZVP def2-TZVP/C
| 17> !RIJCOSX VERYSLOWCONV
| 18> 
| 19> %scf
| 20>   AutoTRAHIter 200
| 21>   maxiter 400
| 22> end
| 23> 
| 24> 
| 25> %pal nprocs 6 end 
| 26> 
| 27> *xyzfile 0 3 pbe.xyz
| 28> 
| 29> 
| 30> 
| 31> 
| 32> 
| 33>                          ****END OF INPUT****
================================================================================


                 $$$$$$$$$$$$$$$$$$$$$$$$$$$$$$$$$$$$$$$$$$$$$$ 
                 $ THERE ARE  2 JOBS TO BE PROCESSED THIS RUN $
                 $$$$$$$$$$$$$$$$$$$$$$$$$$$$$$$$$$$$$$$$$$$$$$ 




                 $$$$$$$$$$$$$$$$  JOB NUMBER  1 $$$$$$$$$$$$$$


                       ****************************
                       * Single Point Calculation *
                       ****************************

---------------------------------
CARTESIAN COORDINATES (ANGSTROEM)
---------------------------------
  Au    10.380516    5.068344    6.529001
  Au     8.641276    4.117265    8.601458
  Au     8.247845    6.717612   10.433177
  Au     6.190495    5.285474    8.239666
  Au     6.211970    7.189132    6.133455
  Au     7.904219    5.203071    5.525725
  Au     5.602525    9.703047    6.997305
  Au     6.403902    8.040707    9.016902
  Au     8.301194    9.158596    6.965697
  Au    10.633953    7.992620    7.170535
  Au    12.650208    6.163144    7.591690
  Au    10.610975    6.003810    9.394097
  Cr     8.431435    6.626076    7.748529

----------------------------
CARTESIAN COORDINATES (A.U.)
----------------------------
  NO LB      ZA    FRAG     MASS         X           Y           Z
   0 Au   19.0000*   0   196.966   19.616333    9.577781   12.338024
   1 Au   19.0000*   0   196.966   16.329645    7.780503   16.254400
   2 Au   19.0000*   0   196.966   15.586169   12.694447   19.715848
   3 Au   19.0000*   0   196.966   11.698339    9.988098   15.570712
   4 Au   19.0000*   0   196.966   11.738921   13.585491   11.590551
   5 Au   19.0000*   0   196.966   14.936809    9.832380   10.442108
   6 Au   19.0000*   0   196.966   10.587238   18.336101   13.222990
   7 Au   19.0000*   0   196.966   12.101620   15.194733   17.039476
   8 Au   19.0000*   0   196.966   15.686983   17.307237   13.163260
   9 Au   19.0000*   0   196.966   20.095258   15.103863   13.550347
  10 Au   19.0000*   0   196.966   23.905429   11.646654   14.346215
  11 Au   19.0000*   0   196.966   20.051836   11.345557   17.752270
  12 Cr   24.0000    0    52.000   15.933103   12.521469   14.642598
* core charge reduced due to ECP

--------------------------------
INTERNAL COORDINATES (ANGSTROEM)
--------------------------------
 Au     0   0   0     0.000000000000     0.00000000     0.00000000
 Au     1   0   0     2.867853767673     0.00000000     0.00000000
 Au     2   1   0     3.204963106338   102.61443621     0.00000000
 Au     2   1   3     2.738966124387   107.80320007    70.27231748
 Au     4   2   1     2.839101575295   112.16088449   354.97425750
 Au     1   2   3     2.675212658287    74.11827211   262.67871145
 Au     5   4   2     2.727164379508   112.42068773   241.58317815
 Au     3   2   1     2.675171468617   100.56318108    79.87678724
 Au     7   5   4     2.753223486639    66.11089500    92.56276071
 Au     9   7   5     2.615955336595   164.01103465   321.11272901
 Au     1   2   3     2.734848222240   110.80976304    55.04856647
 Au     3   2   1     2.678354328682    56.88876283   318.03320745
 Cr     9   7   5     2.653948439512   103.49840769   322.21357394

---------------------------
INTERNAL COORDINATES (A.U.)
---------------------------
 Au     0   0   0     0.000000000000     0.00000000     0.00000000
 Au     1   0   0     5.419458213036     0.00000000     0.00000000
 Au     2   1   0     6.056502540299   102.61443621     0.00000000
 Au     2   1   3     5.175895865180   107.80320007    70.27231748
 Au     4   2   1     5.365124443692   112.16088449   354.97425750
 Au     1   2   3     5.055419274162    74.11827211   262.67871145
 Au     5   4   2     5.153593799456   112.42068773   241.58317815
 Au     3   2   1     5.055341436966   100.56318108    79.87678724
 Au     7   5   4     5.202838375228    66.11089500    92.56276071
 Au     9   7   5     4.943439164734   164.01103465   321.11272901
 Au     1   2   3     5.168114157875   110.80976304    55.04856647
 Au     3   2   1     5.061356170811    56.88876283   318.03320745
 Cr     9   7   5     5.015235724225   103.49840769   322.21357394

---------------------
BASIS SET INFORMATION
---------------------
There are 2 groups of distinct atoms

 Group   1 Type Au  : 8s7p6d1f contracted to 6s4p3d1f pattern {311111/4111/411/1}
 Group   2 Type Cr  : 17s11p7d1f contracted to 6s4p4d1f pattern {842111/6311/4111/1}

Atom   0Au   basis set group =>   1
Atom   1Au   basis set group =>   1
Atom   2Au   basis set group =>   1
Atom   3Au   basis set group =>   1
Atom   4Au   basis set group =>   1
Atom   5Au   basis set group =>   1
Atom   6Au   basis set group =>   1
Atom   7Au   basis set group =>   1
Atom   8Au   basis set group =>   1
Atom   9Au   basis set group =>   1
Atom  10Au   basis set group =>   1
Atom  11Au   basis set group =>   1
Atom  12Cr   basis set group =>   2
---------------------------------
AUXILIARY/J BASIS SET INFORMATION
---------------------------------
There are 2 groups of distinct atoms

 Group   1 Type Au  : 11s5p5d3f3g contracted to 8s5p5d2f3g pattern {41111111/11111/11111/21/111}
 Group   2 Type Cr  : 19s5p5d3f3g contracted to 8s5p5d2f3g pattern {121111111/11111/11111/21/111}

Atom   0Au   basis set group =>   1
Atom   1Au   basis set group =>   1
Atom   2Au   basis set group =>   1
Atom   3Au   basis set group =>   1
Atom   4Au   basis set group =>   1
Atom   5Au   basis set group =>   1
Atom   6Au   basis set group =>   1
Atom   7Au   basis set group =>   1
Atom   8Au   basis set group =>   1
Atom   9Au   basis set group =>   1
Atom  10Au   basis set group =>   1
Atom  11Au   basis set group =>   1
Atom  12Cr   basis set group =>   2
---------------------------------
AUXILIARY/C BASIS SET INFORMATION
---------------------------------
There are 2 groups of distinct atoms

 Group   1 Type Au  : 8s8p7d5f3g2h contracted to 8s8p7d5f3g2h pattern {11111111/11111111/1111111/11111/111/11}
 Group   2 Type Cr  : 11s9p8d6f5g2h contracted to 9s8p8d6f5g2h pattern {311111111/21111111/11111111/111111/11111/11}

Atom   0Au   basis set group =>   1
Atom   1Au   basis set group =>   1
Atom   2Au   basis set group =>   1
Atom   3Au   basis set group =>   1
Atom   4Au   basis set group =>   1
Atom   5Au   basis set group =>   1
Atom   6Au   basis set group =>   1
Atom   7Au   basis set group =>   1
Atom   8Au   basis set group =>   1
Atom   9Au   basis set group =>   1
Atom  10Au   basis set group =>   1
Atom  11Au   basis set group =>   1
Atom  12Cr   basis set group =>   2
-------------------------
ECP PARAMETER INFORMATION
-------------------------

 Group 1, Type Au ECP Def2-ECP (replacing 60 core electrons, lmax=3)

Atom   0Au   ECP group =>   1
Atom   1Au   ECP group =>   1
Atom   2Au   ECP group =>   1
Atom   3Au   ECP group =>   1
Atom   4Au   ECP group =>   1
Atom   5Au   ECP group =>   1
Atom   6Au   ECP group =>   1
Atom   7Au   ECP group =>   1
Atom   8Au   ECP group =>   1
Atom   9Au   ECP group =>   1
Atom  10Au   ECP group =>   1
Atom  11Au   ECP group =>   1



           ************************************************************
           *        Program running with 6 parallel MPI-processes     *
           *              working on a common directory               *
           ************************************************************
------------------------------------------------------------------------------
                           ORCA GTO INTEGRAL CALCULATION
                           -- RI-GTO INTEGRALS CHOSEN --
------------------------------------------------------------------------------
------------------------------------------------------------------------------
                   ___                                                        
                  /   \      - P O W E R E D   B Y -                         
                 /     \                                                     
                 |  |  |   _    _      __       _____    __    __             
                 |  |  |  | |  | |    /  \     |  _  \  |  |  /  |          
                  \  \/   | |  | |   /    \    | | | |  |  | /  /          
                 / \  \   | |__| |  /  /\  \   | |_| |  |  |/  /          
                |  |  |   |  __  | /  /__\  \  |    /   |      \           
                |  |  |   | |  | | |   __   |  |    \   |  |\   \          
                \     /   | |  | | |  |  |  |  | |\  \  |  | \   \       
                 \___/    |_|  |_| |__|  |__|  |_| \__\ |__|  \__/        
                                                                              
                      - O R C A' S   B I G   F R I E N D -                    
                                      &                                       
                       - I N T E G R A L  F E E D E R -                       
                                                                              
 v1 FN, 2020, v2 2021                                                         
------------------------------------------------------------------------------


Reading SHARK input file b2plyp.SHARKINP.tmp ... ok
----------------------
SHARK INTEGRAL PACKAGE
----------------------

Number of atoms                             ...     13
Number of basis functions                   ...    525
Number of shells                            ...    183
Maximum angular momentum                    ...      3
Integral batch strategy                     ... SHARK/LIBINT Hybrid
RI-J (if used) integral strategy            ... SPLIT-RIJ (Revised 2003 algorithm where possible)
Printlevel                                  ...      1
Contraction scheme used                     ... SEGMENTED contraction
Coulomb Range Separation                    ... NOT USED
Exchange Range Separation                   ... NOT USED
Finite Nucleus Model                        ... NOT USED
Auxiliary Coulomb fitting basis             ... AVAILABLE
   # of basis functions in Aux-J            ...   1157
   # of shells in Aux-J                     ...    299
   Maximum angular momentum in Aux-J        ...      4
Auxiliary J/K fitting basis                 ... NOT available
Auxiliary Correlation fitting basis         ... AVAILABLE
   # of basis functions in Aux-C            ...   1994
   # of shells in Aux-C                     ...    434
   Maximum angular momentum in Aux-C        ...      5
Auxiliary 'external' fitting basis          ... NOT available
Integral threshold                          ...     1.000000e-10
Primitive cut-off                           ...     1.000000e-11
Primitive pair pre-selection threshold      ...     1.000000e-11

Calculating pre-screening integrals         ... done (  0.6 sec) Dimension = 183
Organizing shell pair data                  ... done (  1.1 sec)
Shell pair information
Total number of shell pairs                 ...     16836
Shell pairs after pre-screening             ...     13519
Total number of primitive shell pairs       ...     45389
Primitive shell pairs kept                  ...     26768
          la=0 lb=0:   2131 shell pairs
          la=1 lb=0:   3082 shell pairs
          la=1 lb=1:   1154 shell pairs
          la=2 lb=0:   2686 shell pairs
          la=2 lb=1:   1876 shell pairs
          la=2 lb=2:    778 shell pairs
          la=3 lb=0:    726 shell pairs
          la=3 lb=1:    542 shell pairs
          la=3 lb=2:    470 shell pairs
          la=3 lb=3:     74 shell pairs

Calculating one electron integrals          ... done (  0.6 sec)
Calculating ECP integrals                   ... done ( 27.0 sec)
Calculating RI/J V-Matrix + Cholesky decomp.... done (  6.2 sec)
Calculating RI/C V-Matrix + Cholesky decomp.... done (  7.7 sec)
Calculating Nuclear repulsion               ... done (  0.0 sec) ENN=   4244.170521109858 Eh

SHARK setup successfully completed in  45.5 seconds

Maximum memory used throughout the entire GTOINT-calculation: 39.0 MB


           ************************************************************
           *        Program running with 6 parallel MPI-processes     *
           *              working on a common directory               *
           ************************************************************
-------------------------------------------------------------------------------
                                 ORCA SCF
-------------------------------------------------------------------------------

------------
SCF SETTINGS
------------
Hamiltonian:
 Density Functional     Method          .... DFT(GTOs)
 Exchange Functional    Exchange        .... B88
   X-Alpha parameter    XAlpha          ....  0.666667
   Becke's b parameter  XBeta           ....  0.004200
 Correlation Functional Correlation     .... LYP
 LDA part of GGA corr.  LDAOpt          .... VWN-3
 Gradients option       PostSCFGGA      .... off
 Hybrid DFT is turned on
   Fraction HF Exchange ScalHFX         ....  0.530000
   Scaling of DF-GGA-X  ScalDFX         ....  0.470000
   Scaling of DF-GGA-C  ScalDFC         ....  0.730000
   Scaling of DF-LDA-C  ScalLDAC        ....  0.730000
   Perturbative correction              ....  0.270000
   Density functional embedding theory  .... OFF
   NL short-range parameter             ....  7.800000
 RI-approximation to the Coulomb term is turned on
   Number of AuxJ basis functions       .... 1157
   RIJ-COSX (HFX calculated with COS-X)).... on


General Settings:
 Integral files         IntName         .... b2plyp
 Hartree-Fock type      HFTyp           .... UHF
 Total Charge           Charge          ....    0
 Multiplicity           Mult            ....    5
 Number of Electrons    NEL             ....  252
 Basis Dimension        Dim             ....  525
 Nuclear Repulsion      ENuc            ....   4244.1705211099 Eh

Convergence Acceleration:
 DIIS                   CNVDIIS         .... on
   Start iteration      DIISMaxIt       ....     0
   Startup error        DIISStart       ....  0.200000
   # of expansion vecs  DIISMaxEq       ....     5
   Bias factor          DIISBfac        ....   1.050
   Max. coefficient     DIISMaxC        ....  10.000
 Trust-Rad. Augm. Hess. CNVTRAH         .... auto
   Auto Start mean grad. ratio tolernc. ....  1.125000
   Auto Start start iteration           ....   200
   Auto Start num. interpolation iter.  ....    10
   Max. Number of Micro iterations      ....    16
   Max. Number of Macro iterations      .... Maxiter - #DIIS iter
   Number of Davidson start vectors     ....     2
   Converg. threshold I  (grad. norm)   ....   5.000e-05
   Converg. threshold II (energy diff.) ....   1.000e-06
   Grad. Scal. Fac. for Micro threshold ....   0.100
   Minimum threshold for Micro iter.    ....   0.010
   NR start threshold (gradient norm)   ....   0.001
   Initial trust radius                 ....   0.400
   Minimum AH scaling param. (alpha)    ....   1.000
   Maximum AH scaling param. (alpha)    .... 1000.000
   Orbital update algorithm             .... Taylor
   White noise on init. David. guess    .... on
   Maximum white noise                  ....   0.010
   Quad. conv. algorithm                .... NR
 SOSCF                  CNVSOSCF        .... off
 Level Shifting         CNVShift        .... on
   Level shift para.    LevelShift      ....    0.2500
   Turn off err/grad.   ShiftErr        ....    0.0000
 Zerner damping         CNVZerner       .... off
 Static damping         CNVDamp         .... on
   Fraction old density DampFac         ....    0.9200
   Max. Damping (<1)    DampMax         ....    0.9800
   Min. Damping (>=0)   DampMin         ....    0.0000
   Turn off err/grad.   DampErr         ....    0.0030
 Fernandez-Rico         CNVRico         .... off

SCF Procedure:
 Maximum # iterations   MaxIter         ....   400
 SCF integral mode      SCFMode         .... Direct
   Integral package                     .... SHARK and LIBINT hybrid scheme
 Reset frequency        DirectResetFreq ....    20
 Integral Threshold     Thresh          ....  1.000e-10 Eh
 Primitive CutOff       TCut            ....  1.000e-11 Eh

Convergence Tolerance:
 Convergence Check Mode ConvCheckMode   .... Total+1el-Energy
 Convergence forced     ConvForced      .... 0
 Energy Change          TolE            ....  1.000e-06 Eh
 1-El. energy change                    ....  1.000e-03 Eh
 DIIS Error             TolErr          ....  1.000e-06


Diagonalization of the overlap matrix:
Smallest eigenvalue                        ... 1.740e-04
Time for diagonalization                   ...    0.250 sec
Threshold for overlap eigenvalues          ... 1.000e-08
Number of eigenvalues below threshold      ... 0
Time for construction of square roots      ...    0.528 sec
Total time needed                          ...    1.312 sec

Time for model grid setup =    4.098 sec

------------------------------
INITIAL GUESS: MODEL POTENTIAL
------------------------------
Loading Hartree-Fock densities                     ... done
  calling /media/Programs/ORCA501/orca b2plyp_atom79.inp > b2plyp_atom79.out in order to generate an atomic fitting density for atom 0 (Au with ECP) on-the-fly... 
    atom 0 (Au), assumed electronic state with S=2: 1s2 2s2 2p6 3s2 3p6 4s2 3d10 4p6 5s2 4d10 5p6 6s1 4f14 5d10           ... done
Calculating cut-offs                               ... done
Initializing the effective Hamiltonian             ... done
Setting up the integral package (SHARK)            ... done
Starting the Coulomb interaction                   ... done (   3.1 sec)
Reading the grid                                   ... done
Mapping shells                                     ... done
Starting the XC term evaluation                    ... done (   1.6 sec)
  promolecular density results
     # of electrons  =    972.013403638
     EX              =  -4455.961315781
     EC              =    -19.726825250
     EX+EC           =  -4475.688141031
Transforming the Hamiltonian                       ... done (   1.2 sec)
Diagonalizing the Hamiltonian                      ... done (   1.5 sec)
Back transforming the eigenvectors                 ... done (   0.2 sec)
Now organizing SCF variables                       ... done
                      ------------------
                      INITIAL GUESS DONE (  14.8 sec)
                      ------------------
-------------------
DFT GRID GENERATION
-------------------

General Integration Accuracy     IntAcc      ... 4.388
Radial Grid Type                 RadialGrid  ... OptM3 with GC (2021)
Angular Grid (max. ang.)         AngularGrid ... 4 (Lebedev-302)
Angular grid pruning method      GridPruning ... 4 (adaptive)
Weight generation scheme         WeightScheme... Becke
Basis function cutoff            BFCut       ... 1.0000e-10
Integration weight cutoff        WCut        ... 1.0000e-14
Angular grids for H and He will be reduced by one unit
Partially contracted basis set               ... off
Rotationally invariant grid construction     ... off

Total number of grid points                  ...   144916
Total number of batches                      ...     2271
Average number of points per batch           ...       63
Average number of grid points per atom       ...    11147
Time for grid setup =    7.488 sec

--------------------
COSX GRID GENERATION
--------------------

GRIDX 1
-------
General Integration Accuracy     IntAcc      ... 3.816
Radial Grid Type                 RadialGrid  ... OptM3 with GC (2021)
Angular Grid (max. ang.)         AngularGrid ... 1 (Lebedev-50)
Angular grid pruning method      GridPruning ... 4 (adaptive)
Weight generation scheme         WeightScheme... Becke
Basis function cutoff            BFCut       ... 1.0000e-10
Integration weight cutoff        WCut        ... 1.0000e-14
Angular grids for H and He will be reduced by one unit
Partially contracted basis set               ... on
Rotationally invariant grid construction     ... off

Total number of grid points                  ...    15242
Total number of batches                      ...      245
Average number of points per batch           ...       62
Average number of grid points per atom       ...     1172
UseSFitting                                  ... on

GRIDX 2
-------
General Integration Accuracy     IntAcc      ... 4.020
Radial Grid Type                 RadialGrid  ... OptM3 with GC (2021)
Angular Grid (max. ang.)         AngularGrid ... 2 (Lebedev-110)
Angular grid pruning method      GridPruning ... 4 (adaptive)
Weight generation scheme         WeightScheme... Becke
Basis function cutoff            BFCut       ... 1.0000e-10
Integration weight cutoff        WCut        ... 1.0000e-14
Angular grids for H and He will be reduced by one unit
Partially contracted basis set               ... on
Rotationally invariant grid construction     ... off

Total number of grid points                  ...    46179
Total number of batches                      ...      727
Average number of points per batch           ...       63
Average number of grid points per atom       ...     3552
UseSFitting                                  ... on

GRIDX 3
-------
General Integration Accuracy     IntAcc      ... 4.338
Radial Grid Type                 RadialGrid  ... OptM3 with GC (2021)
Angular Grid (max. ang.)         AngularGrid ... 3 (Lebedev-194)
Angular grid pruning method      GridPruning ... 4 (adaptive)
Weight generation scheme         WeightScheme... Becke
Basis function cutoff            BFCut       ... 1.0000e-10
Integration weight cutoff        WCut        ... 1.0000e-14
Angular grids for H and He will be reduced by one unit
Partially contracted basis set               ... on
Rotationally invariant grid construction     ... off

Total number of grid points                  ...    84467
Total number of batches                      ...     1326
Average number of points per batch           ...       63
Average number of grid points per atom       ...     6497
UseSFitting                                  ... on

Time for X-Grid setup             =   11.517 sec

--------------
SCF ITERATIONS
--------------
ITER       Energy         Delta-E        Max-DP      RMS-DP      [F,P]     Damp
               ***  Starting incremental Fock matrix formation  ***
  0  -2667.5126600783   0.000000000000 0.05873005  0.00052349  0.2951569 0.9200
  1  -2667.8978091196  -0.385149041324 0.05206456  0.00050562  0.2509320 0.9200
                               ***Turning on DIIS***
  2  -2668.1215137544  -0.223704634734 0.05840060  0.00042705  0.2307798 0.9200
  3  -2668.2269488439  -0.105435089497 0.04752696  0.00029289  0.2123526 0.9200
  4  -2668.2951540379  -0.068205193995 0.02829994  0.00024697  0.1953040 0.9200
  5  -2668.3592835445  -0.064129506619 0.03037520  0.00023818  0.1795724 0.9200
  6  -2668.4115053209  -0.052221776414 0.03830579  0.00022481  0.1652171 0.9200
  7  -2668.4629913424  -0.051486021488 0.03558348  0.00021951  0.1520850 0.9200
  8  -2668.5243870968  -0.061395754390 0.02840210  0.00021185  0.1399984 0.9200
  9  -2668.5801614374  -0.055774340598 0.03300567  0.00018498  0.1288236 0.9200
 10  -2668.6310025067  -0.050841069329 0.02913279  0.00016866  0.1185208 0.9200
 11  -2668.6763175239  -0.045315017175 0.03004688  0.00015940  0.1090104 0.9200
 12  -2668.7184500003  -0.042132476419 0.03195838  0.00015272  0.1002906 0.9200
 13  -2668.7601865147  -0.041736514363 0.02987561  0.00014596  0.0922930 0.9200
 14  -2668.7995094293  -0.039322914634 0.02578805  0.00013098  0.0849361 0.9200
 15  -2668.8358000630  -0.036290633691 0.02119596  0.00011934  0.0781489 0.9200
 16  -2668.8692124238  -0.033412360793 0.01998261  0.00011195  0.0718936 0.9200
 17  -2668.9002946026  -0.031082178765 0.02063223  0.00010620  0.0661414 0.9200
 18  -2668.9297552773  -0.029460674718 0.01971255  0.00010040  0.0608589 0.9200
 19  -2668.9574128661  -0.027657588874 0.01628277  0.00009209  0.0560029 0.9200
               *** Restarting incremental Fock matrix formation ***
                                   *** Resetting DIIS ***
 20  -2668.9844127375  -0.026999871322 0.01363835  0.00008116  0.0515294 0.9200
 21  -2669.0087552643  -0.024342526862 0.01215336  0.00007407  0.0474234 0.9200
 22  -2669.0313998762  -0.022644611889 0.01100193  0.00006932  0.0436429 0.9200
 23  -2669.0524016174  -0.021001741191 0.01041557  0.00006667  0.0401626 0.9200
 24  -2669.0718773473  -0.019475729914 0.00989234  0.00006445  0.0369602 0.9200
 25  -2669.0899643301  -0.018086982790 0.00911891  0.00006165  0.0340131 0.9200
 26  -2669.1067966562  -0.016832326065 0.00763042  0.00005832  0.0313004 0.9200
 27  -2669.1224467427  -0.015650086566 0.00602680  0.00005506  0.0288018 0.9200
 28  -2669.1369999609  -0.014553218136 0.00491169  0.00005224  0.0265007 0.9200
 29  -2669.1505415414  -0.013541580536 0.00420842  0.00004971  0.0243832 0.9200
 30  -2669.1631536304  -0.012612088940 0.00403807  0.00004731  0.0224358 0.9200
 31  -2669.1749044693  -0.011750838943 0.00396049  0.00004496  0.0206447 0.9200
 32  -2669.1858522430  -0.010947773653 0.00377123  0.00004272  0.0189966 0.9200
 33  -2669.1960523878  -0.010200144852 0.00363776  0.00004069  0.0174797 0.9200
 34  -2669.2055569009  -0.009504513074 0.00359636  0.00003885  0.0160838 0.9200
 35  -2669.2144145202  -0.008857619348 0.00356767  0.00003711  0.0147995 0.9200
 36  -2669.2226699928  -0.008255472543 0.00348405  0.00003546  0.0136181 0.9200
 37  -2669.2303641451  -0.007694152328 0.00336014  0.00003389  0.0125310 0.9200
 38  -2669.2375348019  -0.007170656764 0.00324657  0.00003244  0.0115307 0.9200
 39  -2669.2442170135  -0.006682211626 0.00312376  0.00003127  0.0107608 0.9200
               *** Restarting incremental Fock matrix formation ***
                                   *** Resetting DIIS ***
 40  -2669.2504440757  -0.006227062198 0.00209690  0.00002402  0.0103101 0.9200
 41  -2669.2563563355  -0.005912259860 0.00189186  0.00002099  0.0099973 0.9200
 42  -2669.2618604449  -0.005504109326 0.00195705  0.00002017  0.0096597 0.9200
 43  -2669.2669636613  -0.005103216433 0.00206161  0.00002049  0.0092873 0.9200
 44  -2669.2716882066  -0.004724545297 0.00216553  0.00002118  0.0089144 0.9200
 45  -2669.2760587054  -0.004370498814 0.00219800  0.00002129  0.0085503 0.9200
 46  -2669.2801084076  -0.004049702138 0.00224258  0.00002128  0.0081979 0.9200
 47  -2669.2838633062  -0.003754898684 0.00246719  0.00002118  0.0078367 0.9200
 48  -2669.2873469150  -0.003483608776 0.00277203  0.00002099  0.0074707 0.9200
 49  -2669.2905809983  -0.003234083325 0.00299780  0.00002071  0.0071143 0.9200
 50  -2669.2935852345  -0.003004236185 0.00314458  0.00002037  0.0067740 0.9200
 51  -2669.2963771698  -0.002791935246 0.00325013  0.00002000  0.0064466 0.9200
 52  -2669.2989728383  -0.002595668494 0.00333965  0.00001960  0.0061274 0.9200
 53  -2669.3013870045  -0.002414166227 0.00341569  0.00001918  0.0058164 0.9200
 54  -2669.3036332030  -0.002246198482 0.00347355  0.00001875  0.0055168 0.9200
 55  -2669.3057237787  -0.002090575739 0.00349905  0.00001831  0.0052301 0.9200
 56  -2669.3076699925  -0.001946213774 0.00349125  0.00001786  0.0049558 0.9200
 57  -2669.3094822227  -0.001812230195 0.00346373  0.00001740  0.0046922 0.9200
 58  -2669.3111700917  -0.001687869025 0.00342508  0.00001694  0.0044390 0.9200
 59  -2669.3127424652  -0.001572373496 0.00428388  0.00001663  0.0041970 0.9200
               *** Restarting incremental Fock matrix formation ***
                                   *** Resetting DIIS ***
 60  -2669.3142080254  -0.001465560149 0.00194145  0.00001145  0.0039665 0.9200
 61  -2669.3156099004  -0.001401875051 0.00141717  0.00000954  0.0038411 0.9200
 62  -2669.3169159843  -0.001306083848 0.00148608  0.00000912  0.0037114 0.9200
 63  -2669.3181270397  -0.001211055456 0.00179715  0.00000961  0.0035532 0.9200
 64  -2669.3192480058  -0.001120966068 0.00219290  0.00001056  0.0033739 0.9200
 65  -2669.3202841428  -0.001036136988 0.00232892  0.00001090  0.0033631 0.9200
 66  -2669.3212442033  -0.000960060503 0.00240264  0.00001120  0.0032973 0.9200
 67  -2669.3221340331  -0.000889829800 0.00245658  0.00001147  0.0032159 0.9200
 68  -2669.3229592249  -0.000825191868 0.00247539  0.00001163  0.0031563 0.9200
 69  -2669.3237254248  -0.000766199887 0.00247111  0.00001169  0.0031140 0.9200
 70  -2669.3244378678  -0.000712442956 0.00244681  0.00001167  0.0030673 0.9200
 71  -2669.3251012717  -0.000663403951 0.00238813  0.00001162  0.0030047 0.9200
 72  -2669.3257196436  -0.000618371828 0.02894096  0.00014438  0.0029358 0.0000
 73  -2669.3338919244  -0.008172280883 0.01319760  0.00004598  0.0020114 0.0000
 74  -2669.3341409707  -0.000249046288 0.00309301  0.00002313  0.0024171 0.0000
 75  -2669.3342935311  -0.000152560373 0.00268619  0.00002465  0.0013829 0.0000
 76  -2669.3344518840  -0.000158352944 0.00150950  0.00001895  0.0014733 0.0000
 77  -2669.3345744374  -0.000122553326 0.00074945  0.00001139  0.0012610 0.0000
 78  -2669.3346413103  -0.000066872962 0.00049649  0.00000781  0.0011823 0.0000
 79  -2669.3346815239  -0.000040213561 0.00094617  0.00000791  0.0012242 0.0000
               *** Restarting incremental Fock matrix formation ***
                                   *** Resetting DIIS ***
 80  -2669.3347270582  -0.000045534295 0.00601007  0.00003305  0.0011710 0.0000
 81  -2669.3348976414  -0.000170583232 0.00199010  0.00002301  0.0016872 0.0000
 82  -2669.3350541755  -0.000156534046 0.00123246  0.00001752  0.0013842 0.0000
 83  -2669.3351754132  -0.000121237782 0.00047802  0.00000795  0.0014068 0.0000
 84  -2669.3351951860  -0.000019772712 0.00044112  0.00000494  0.0013691 0.0000
               *** Restarting incremental Fock matrix formation ***
                                   *** Resetting DIIS ***
 85  -2669.3337044661   0.001490719817 0.01447826  0.00020061  0.0013245 0.0000
 86  -2669.3340646018  -0.000360135667 0.00433636  0.00006349  0.0018188 0.0000
 87  -2669.3342796918  -0.000215089998 0.00193952  0.00003637  0.0015372 0.0000
 88  -2669.3344901304  -0.000210438619 0.00144034  0.00002166  0.0015928 0.0000
 89  -2669.3346505506  -0.000160420187 0.00073836  0.00001157  0.0016244 0.0000
 90  -2669.3347273631  -0.000076812483 0.00080536  0.00001165  0.0016011 0.0000
 91  -2669.3348126300  -0.000085266936 0.00093002  0.00001377  0.0016009 0.0000
 92  -2669.3349156253  -0.000102995226 0.00098891  0.00001511  0.0016306 0.0000
 93  -2669.3350373659  -0.000121740595 0.00107606  0.00001695  0.0016758 0.0000
 94  -2669.3351726561  -0.000135290234 0.00218167  0.00002658  0.0017378 0.0000
 95  -2669.3353775033  -0.000204847215 0.00191664  0.00002839  0.0018307 0.0000
 96  -2669.3356101806  -0.000232677274 0.00177273  0.00002425  0.0018874 0.0000
 97  -2669.3358156743  -0.000205493676 0.00128201  0.00001703  0.0019178 0.0000
 98  -2669.3359639175  -0.000148243224 0.00099351  0.00001302  0.0019184 0.0000
 99  -2669.3360727869  -0.000108869425 0.00102287  0.00001445  0.0019022 0.0000
100  -2669.3361954053  -0.000122618369 0.00135532  0.00001953  0.0018965 0.0000
101  -2669.3363672909  -0.000171885641 0.00157928  0.00002311  0.0019309 0.0000
102  -2669.3365705879  -0.000203296963 0.00186254  0.00002556  0.0019857 0.0000
103  -2669.3367994288  -0.000228840969 0.00218653  0.00002861  0.0020419 0.0000
104  -2669.3370566819  -0.000257253078 0.00235376  0.00002947  0.0020931 0.0000
               *** Restarting incremental Fock matrix formation ***
                                   *** Resetting DIIS ***
105  -2669.3373241656  -0.000267483667 0.00316537  0.00003957  0.0021271 0.0000
106  -2669.3376824482  -0.000358282634 0.00287932  0.00003531  0.0021596 0.0000
107  -2669.3380148852  -0.000332436937 0.00240479  0.00002889  0.0021842 0.0000
108  -2669.3382952449  -0.000280359694 0.00158408  0.00001912  0.0021819 0.0000
109  -2669.3384826057  -0.000187360848 0.00100039  0.00001264  0.0021576 0.0000
110  -2669.3386002934  -0.000117687742 0.00181889  0.00002205  0.0021281 0.0000
111  -2669.3388105738  -0.000210280388 0.00254452  0.00003099  0.0021508 0.0000
112  -2669.3390960444  -0.000285470521 0.00327967  0.00003928  0.0021854 0.0000
113  -2669.3394569455  -0.000360901113 0.00331269  0.00003895  0.0022043 0.0000
114  -2669.3398201037  -0.000363158190 0.00338884  0.00004053  0.0022030 0.0000
115  -2669.3401978547  -0.000377751063 0.00383648  0.00004509  0.0021941 0.0000
116  -2669.3406074561  -0.000409601334 0.00343785  0.00004303  0.0021828 0.0000
117  -2669.3410009515  -0.000393495416 0.00390690  0.00004587  0.0021500 0.0000
118  -2669.3414053048  -0.000404353357 0.00546738  0.00005995  0.0021213 0.0000
119  -2669.3419093274  -0.000504022597 0.00492183  0.00006205  0.0020916 0.0000
120  -2669.3424153624  -0.000506035025 0.00741129  0.00007211  0.0020252 0.0000
121  -2669.3429633636  -0.000548001155 0.00294319  0.00004023  0.0019764 0.0000
122  -2669.3433056283  -0.000342264672 0.00914164  0.00008225  0.0018397 0.0000
123  -2669.3438266308  -0.000521002493 0.00271673  0.00004274  0.0018365 0.0000
124  -2669.3441768490  -0.000350218226 0.01667995  0.00012693  0.0016853 0.0000
               *** Restarting incremental Fock matrix formation ***
                                   *** Resetting DIIS ***
125  -2669.3448067647  -0.000629915688 0.00628499  0.00004273  0.0021460 0.0000
126  -2669.3449798320  -0.000173067308 0.00316895  0.00002669  0.0024746 0.0000
127  -2669.3451870935  -0.000207261514 0.00290333  0.00002562  0.0012957 0.0000
128  -2669.3453374484  -0.000150354927 0.00266143  0.00002805  0.0012673 0.0000
129  -2669.3455045650  -0.000167116585 0.00380928  0.00003593  0.0011877 0.0000
130  -2669.3457038632  -0.000199298154 0.00269074  0.00002961  0.0011688 0.0000
131  -2669.3458662384  -0.000162375231 0.00690817  0.00006637  0.0011080 0.0000
132  -2669.3461589559  -0.000292717541 0.00134711  0.00002255  0.0011461 0.0000
133  -2669.3462846479  -0.000125691999 0.00435532  0.00005083  0.0010409 0.0000
134  -2669.3464881102  -0.000203462268 0.00179012  0.00002629  0.0010527 0.0000
135  -2669.3466249710  -0.000136860827 0.00564635  0.00007035  0.0009926 0.0000
136  -2669.3468779752  -0.000253004187 0.00194219  0.00001954  0.0010324 0.0000
137  -2669.3469717384  -0.000093763136 0.00355789  0.00004766  0.0009165 0.0000
138  -2669.3471506232  -0.000178884858 0.00279937  0.00002423  0.0009365 0.0000
139  -2669.3472622154  -0.000111592226 0.00256285  0.00002989  0.0008742 0.0000
140  -2669.3473864137  -0.000124198300 0.00291795  0.00002478  0.0008697 0.0000
141  -2669.3474907095  -0.000104295751 0.00233773  0.00003683  0.0008327 0.0000
142  -2669.3476352518  -0.000144542270 0.00265804  0.00002974  0.0008378 0.0000
143  -2669.3477568070  -0.000121555285 0.00170606  0.00002346  0.0008093 0.0000
144  -2669.3478556235  -0.000098816403 0.00202262  0.00001598  0.0007834 0.0000
               *** Restarting incremental Fock matrix formation ***
                                   *** Resetting DIIS ***
145  -2669.3479211324  -0.000065508955 0.00156603  0.00001449  0.0007592 0.0000
146  -2669.3479817207  -0.000060588297 0.00094827  0.00001394  0.0007436 0.0000
147  -2669.3480394158  -0.000057695114 0.00109261  0.00001595  0.0007324 0.0000
148  -2669.3481041983  -0.000064782449 0.00168838  0.00001625  0.0007346 0.0000
149  -2669.3481685816  -0.000064383290 0.00109582  0.00001850  0.0007347 0.0000
150  -2669.3482415803  -0.000072998784 0.00216075  0.00001812  0.0007451 0.0000
151  -2669.3483118051  -0.000070224769 0.00133166  0.00002066  0.0007468 0.0000
152  -2669.3483913729  -0.000079567762 0.00227225  0.00001869  0.0007572 0.0000
153  -2669.3484633997  -0.000072026811 0.00183114  0.00002246  0.0007571 0.0000
154  -2669.3485478069  -0.000084407263 0.00111968  0.00001267  0.0007690 0.0000
155  -2669.3485975923  -0.000049785356 0.00137371  0.00001692  0.0007489 0.0000
156  -2669.3486617645  -0.000064172177 0.00153844  0.00002005  0.0007575 0.0000
157  -2669.3487366852  -0.000074920680 0.00272510  0.00001909  0.0007627 0.0000
158  -2669.3488063478  -0.000069662627 0.00145163  0.00002102  0.0007578 0.0000
159  -2669.3488830268  -0.000076679056 0.00258790  0.00001740  0.0007659 0.0000
160  -2669.3489462112  -0.000063184402 0.00272269  0.00002794  0.0007519 0.0000
161  -2669.3490399746  -0.000093763309 0.00068145  0.00000975  0.0007778 0.0000
162  -2669.3490707479  -0.000030773310 0.00256537  0.00002428  0.0007327 0.0000
163  -2669.3491511890  -0.000080441102 0.00124372  0.00001939  0.0007532 0.0000
164  -2669.3492186785  -0.000067489583 0.00426414  0.00002449  0.0007461 0.0000
               *** Restarting incremental Fock matrix formation ***
                                   *** Resetting DIIS ***
165  -2669.3492929696  -0.000074291101 0.00102074  0.00001298  0.0007417 0.0000
166  -2669.3493349881  -0.000042018477 0.00128941  0.00001084  0.0007167 0.0000
167  -2669.3493718182  -0.000036830063 0.00116069  0.00001388  0.0007027 0.0000
168  -2669.3494169159  -0.000045097757 0.00299016  0.00001777  0.0007042 0.0000
169  -2669.3494715891  -0.000054673191 0.00450270  0.00003206  0.0006952 0.0000
170  -2669.3495605763  -0.000088987188 0.00132932  0.00000949  0.0007226 0.0000
171  -2669.3495709980  -0.000010421662 0.00481007  0.00003240  0.0006610 0.0000
172  -2669.3496549940  -0.000083995982 0.00116632  0.00001654  0.0006943 0.0000
173  -2669.3497047812  -0.000049787230 0.00534004  0.00003620  0.0006726 0.0000
174  -2669.3497913670  -0.000086585793 0.00083448  0.00001381  0.0006880 0.0000
175  -2669.3498330051  -0.000041638105 0.00624483  0.00003899  0.0006483 0.0000
176  -2669.3499164308  -0.000083425675 0.00105895  0.00001487  0.0006624 0.0000
177  -2669.3499586678  -0.000042237056 0.00221130  0.00002345  0.0006167 0.0000
178  -2669.3500103606  -0.000051692751 0.00357146  0.00002355  0.0006207 0.0000
179  -2669.3500613854  -0.000051024801 0.00506814  0.00003543  0.0005986 0.0000
180  -2669.3501253943  -0.000064008904 0.00075869  0.00001226  0.0005949 0.0000
181  -2669.3501560639  -0.000030669623 0.00629918  0.00004538  0.0005431 0.0000
182  -2669.3502133202  -0.000057256313 0.00185945  0.00001232  0.0006139 0.0000
183  -2669.3502401601  -0.000026839905 0.00295790  0.00002150  0.0005005 0.0000
184  -2669.3502721920  -0.000032031872 0.00271340  0.00002211  0.0004877 0.0000
               *** Restarting incremental Fock matrix formation ***
                                   *** Resetting DIIS ***
185  -2669.3503025476  -0.000030355560 0.00134469  0.00000938  0.0004761 0.0000
186  -2669.3503161592  -0.000013611687 0.00115136  0.00000650  0.0004224 0.0000
187  -2669.3503274846  -0.000011325367 0.00047341  0.00000743  0.0004152 0.0000
188  -2669.3503397323  -0.000012247654 0.00075870  0.00000844  0.0004056 0.0000
189  -2669.3503531902  -0.000013457921 0.00082514  0.00000912  0.0003965 0.0000
190  -2669.3503669237  -0.000013733544 0.00070931  0.00000727  0.0003873 0.0000
191  -2669.3503775930  -0.000010669287 0.00129451  0.00001205  0.0003746 0.0000
192  -2669.3503937738  -0.000016180779 0.00118653  0.00001025  0.0003774 0.0000
193  -2669.3504076679  -0.000013894116 0.00164316  0.00001373  0.0003667 0.0000
194  -2669.3504246993  -0.000017031377 0.00033547  0.00000462  0.0003681 0.0000
195  -2669.3504306030  -0.000005903727 0.00136757  0.00001072  0.0003441 0.0000
196  -2669.3504435217  -0.000012918721 0.00080036  0.00000784  0.0003490 0.0000
197  -2669.3504537898  -0.000010268116 0.00192075  0.00001371  0.0003402 0.0000
198  -2669.3504694905  -0.000015700632 0.00109908  0.00000979  0.0003405 0.0000
199  -2669.3504816640  -0.000012173533 0.00060494  0.00000696  0.0003330 0.0000

 WARNING: the maximum gradient error descreased on average only by a factor   1.0
          during the last 200 iterations

                      *** Initiating the TRAH-SCF procedure ***


TRAH GRIDX
----------

General Integration Accuracy     IntAcc      ... 3.067
Radial Grid Type                 RadialGrid  ... OptM3 with GC (2021)
Angular Grid (max. ang.)         AngularGrid ... 1 (Lebedev-50)
Angular grid pruning method      GridPruning ... 4 (adaptive)
Weight generation scheme         WeightScheme... Becke
Basis function cutoff            BFCut       ... 1.0000e-10
Integration weight cutoff        WCut        ... 1.0000e-14
Angular grids for H and He will be reduced by one unit
Partially contracted basis set               ... on
Rotationally invariant grid construction     ... off

Total number of grid points                  ...    11426
Total number of batches                      ...      187
Average number of points per batch           ...       61
Average number of grid points per atom       ...      879


TRAH GRID
---------

General Integration Accuracy     IntAcc      ... 3.467
Radial Grid Type                 RadialGrid  ... OptM3 with GC (2021)
Angular Grid (max. ang.)         AngularGrid ... 1 (Lebedev-50)
Angular grid pruning method      GridPruning ... 4 (adaptive)
Weight generation scheme         WeightScheme... Becke
Basis function cutoff            BFCut       ... 1.0000e-10
Integration weight cutoff        WCut        ... 1.0000e-14
Angular grids for H and He will be reduced by one unit
Partially contracted basis set               ... off
Rotationally invariant grid construction     ... off

Total number of grid points                  ...    62545
Total number of batches                      ...      984
Average number of points per batch           ...       63
Average number of grid points per atom       ...     4811

 --------------------------------------------------------------------------------------------
   Iter.        energy            ||Error||_2        Shift      TRadius  Mac/Mic        Rej.
 --------------------------------------------------------------------------------------------
    0      -2669.350490203994     1.115911e-03                     0.400 (TRAH MAcro)   No
    0     dE    -2.510644e-06     4.358667e-03    -2.5106e-06      0.002 (TRAH MIcro)
    0     dE    -6.570894e-05     1.609425e-02    -6.5444e-05      0.064 (TRAH MIcro)
    0     dE    -1.665108e-04     1.050556e-02    -1.6253e-04      0.156 (TRAH MIcro)
    0     dE    -2.364912e-04     6.667174e-03    -2.2584e-04      0.217 (TRAH MIcro)
    0     dE    -2.941654e-04     7.339143e-03    -2.7488e-04      0.265 (TRAH MIcro)
    0     dE    -3.178545e-04     2.941399e-03    -2.9415e-04      0.284 (TRAH MIcro)
    0     dE    -3.361497e-04     5.922562e-03    -3.0868e-04      0.298 (TRAH MIcro)
    0     dE    -3.696077e-04     6.882533e-03    -3.3426e-04      0.325 (TRAH MIcro)
    0     dE    -4.032546e-04     4.494250e-03    -3.5859e-04      0.353 (TRAH MIcro)
    0     dE    -4.206725e-04     4.764286e-03    -3.7066e-04      0.367 (TRAH MIcro)
    0     dE    -4.314631e-04     2.338869e-03    -3.7799e-04      0.376 (TRAH MIcro)
    0     dE    -4.368701e-04     2.117823e-03    -3.8165e-04      0.380 (TRAH MIcro)
    0     dE    -4.414882e-04     2.082072e-03    -3.8481e-04      0.384 (TRAH MIcro)
    0     dE    -4.452778e-04     1.339165e-03    -3.8740e-04      0.387 (TRAH MIcro)
    1      -2669.350802498583     1.158505e-02                     0.400 (TRAH MAcro)   No
    1     dE    -4.398845e-05     2.547618e-02    -4.3988e-05      0.004 (TRAH MIcro)
    1     dE    -1.464450e-04     8.689225e-03    -1.4638e-04      0.021 (TRAH MIcro)
    1     dE    -1.734310e-04     5.480523e-03    -1.7329e-04      0.028 (TRAH MIcro)
    1     dE    -1.818423e-04     2.971593e-03    -1.8165e-04      0.032 (TRAH MIcro)
    1     dE    -1.867993e-04     3.363006e-03    -1.8656e-04      0.035 (TRAH MIcro)
    1     dE    -1.944075e-04     2.262470e-03    -1.9405e-04      0.043 (TRAH MIcro)
    1     dE    -2.001716e-04     2.662236e-03    -1.9963e-04      0.052 (TRAH MIcro)
    1     dE    -2.087842e-04     2.575225e-03    -2.0780e-04      0.069 (TRAH MIcro)
    1     dE    -2.137241e-04     1.912868e-03    -2.1238e-04      0.080 (TRAH MIcro)
    1     dE    -2.194323e-04     2.544372e-03    -2.1754e-04      0.093 (TRAH MIcro)
    1     dE    -2.244022e-04     1.926573e-03    -2.2191e-04      0.106 (TRAH MIcro)
    1     dE    -2.283288e-04     1.891091e-03    -2.2529e-04      0.116 (TRAH MIcro)
    1     dE    -2.298401e-04     1.340059e-03    -2.2658e-04      0.120 (TRAH MIcro)
    1     dE    -2.307909e-04     8.569305e-04    -2.2740e-04      0.122 (TRAH MIcro)
    2      -2669.351062418606     1.336344e-03                     0.480 (TRAH MAcro)   No
    2     dE    -4.188597e-08     2.511759e-03    -4.1946e-08      0.000 (TRAH MIcro)
    2     dE    -2.309639e-06     1.916231e-03    -2.3096e-06      0.003 (TRAH MIcro)
    2     dE    -5.519309e-06     1.932460e-03    -5.5187e-06      0.010 (TRAH MIcro)
    2     dE    -8.832383e-06     2.050373e-03    -8.8291e-06      0.019 (TRAH MIcro)
    2     dE    -2.161640e-05     5.410019e-03    -2.1543e-05      0.058 (TRAH MIcro)
    2     dE    -4.643937e-05     4.407772e-03    -4.5592e-05      0.136 (TRAH MIcro)
    2     dE    -6.688155e-05     3.946746e-03    -6.4341e-05      0.199 (TRAH MIcro)
    2     dE    -8.956131e-05     3.957843e-03    -8.3711e-05      0.264 (TRAH MIcro)
    2     dE    -1.064346e-04     2.841987e-03    -9.7071e-05      0.311 (TRAH MIcro)
    2     dE    -1.163929e-04     2.281346e-03    -1.0454e-04      0.337 (TRAH MIcro)
    2     dE    -1.225271e-04     2.110472e-03    -1.0901e-04      0.352 (TRAH MIcro)
    2     dE    -1.265763e-04     1.069499e-03    -1.1189e-04      0.362 (TRAH MIcro)
    2     dE    -1.282542e-04     9.671868e-04    -1.1308e-04      0.366 (TRAH MIcro)
    2     dE    -1.290688e-04     6.059210e-04    -1.1366e-04      0.368 (TRAH MIcro)
    3      -2669.351124074049     9.267657e-03                     0.480 (TRAH MAcro)   No
    3     dE    -3.450178e-05     1.675091e-02    -3.4501e-05      0.004 (TRAH MIcro)
    3     dE    -1.079236e-04     5.039108e-03    -1.0789e-04      0.018 (TRAH MIcro)
    3     dE    -1.280939e-04     4.489433e-03    -1.2802e-04      0.024 (TRAH MIcro)
    3     dE    -1.349630e-04     1.890966e-03    -1.3487e-04      0.027 (TRAH MIcro)
    3     dE    -1.396974e-04     2.101515e-03    -1.3957e-04      0.030 (TRAH MIcro)
    3     dE    -1.439610e-04     1.921675e-03    -1.4379e-04      0.034 (TRAH MIcro)
    3     dE    -1.481008e-04     1.633927e-03    -1.4786e-04      0.041 (TRAH MIcro)
    3     dE    -1.536940e-04     2.031589e-03    -1.5327e-04      0.053 (TRAH MIcro)
    3     dE    -1.577834e-04     1.682751e-03    -1.5715e-04      0.064 (TRAH MIcro)
    3     dE    -1.641439e-04     2.743586e-03    -1.6303e-04      0.083 (TRAH MIcro)
    3     dE    -1.695362e-04     2.083361e-03    -1.6785e-04      0.100 (TRAH MIcro)
    3     dE    -1.749911e-04     2.523678e-03    -1.7257e-04      0.118 (TRAH MIcro)
    3     dE    -1.780916e-04     1.490966e-03    -1.7518e-04      0.129 (TRAH MIcro)
    3     dE    -1.795671e-04     1.152831e-03    -1.7641e-04      0.134 (TRAH MIcro)
    4      -2669.351330011916     1.682205e-03                     0.576 (TRAH MAcro)   No
    4     dE    -4.580005e-08     3.171053e-03    -4.5975e-08      0.000 (TRAH MIcro)
    4     dE    -2.570334e-06     1.587694e-03    -2.5703e-06      0.003 (TRAH MIcro)
    4     dE    -5.665537e-06     1.713156e-03    -5.6651e-06      0.009 (TRAH MIcro)
    4     dE    -7.798924e-06     1.794445e-03    -7.7974e-06      0.014 (TRAH MIcro)
    4     dE    -1.413235e-05     3.808846e-03    -1.4117e-05      0.033 (TRAH MIcro)
    4     dE    -2.692104e-05     3.840389e-03    -2.6769e-05      0.075 (TRAH MIcro)
    4     dE    -4.245629e-05     3.307862e-03    -4.1781e-05      0.127 (TRAH MIcro)
    4     dE    -6.170487e-05     4.472511e-03    -5.9548e-05      0.190 (TRAH MIcro)
    4     dE    -8.422365e-05     3.768879e-03    -7.8850e-05      0.261 (TRAH MIcro)
    4     dE    -9.786785e-05     3.046595e-03    -8.9684e-05      0.302 (TRAH MIcro)
    4     dE    -1.125791e-04     3.783146e-03    -1.0063e-04      0.345 (TRAH MIcro)
    4     dE    -1.282630e-04     2.830474e-03    -1.1149e-04      0.388 (TRAH MIcro)
    4     dE    -1.378886e-04     2.590210e-03    -1.1775e-04      0.413 (TRAH MIcro)
    4     dE    -1.468162e-04     2.322644e-03    -1.2332e-04      0.437 (TRAH MIcro)
 ---------------------------------
          TRAH Step control 
 ---------------------------------
  predicted energy change = -0.000147
  actual energy  change   = 0.000188
  energy change ratio     = -1.281252
  old trust radius        = 0.576000
  new trust radius        = 0.403200
  reject step?            =  1
    5      -2669.351330011916     9.267657e-03                     0.403 (TRAH MAcro)  Yes
    6      -2669.351330011918     1.682205e-03                     0.403 (TRAH MAcro)   No
    6     dE    -4.561991e-08     3.170883e-03    -4.5707e-08      0.000 (TRAH MIcro)
    6     dE    -2.570123e-06     1.589234e-03    -2.5701e-06      0.003 (TRAH MIcro)
    6     dE    -5.665338e-06     1.712510e-03    -5.6649e-06      0.009 (TRAH MIcro)
    6     dE    -7.798788e-06     1.796074e-03    -7.7973e-06      0.014 (TRAH MIcro)
    6     dE    -1.413260e-05     3.810514e-03    -1.4117e-05      0.033 (TRAH MIcro)
    6     dE    -2.692290e-05     3.842883e-03    -2.6771e-05      0.075 (TRAH MIcro)
    6     dE    -4.246070e-05     3.308595e-03    -4.1786e-05      0.127 (TRAH MIcro)
    6     dE    -6.171344e-05     4.471944e-03    -5.9556e-05      0.190 (TRAH MIcro)
    6     dE    -8.423742e-05     3.766334e-03    -7.8862e-05      0.261 (TRAH MIcro)
    6     dE    -9.788607e-05     3.047304e-03    -8.9698e-05      0.302 (TRAH MIcro)
    6     dE    -1.126028e-04     3.786266e-03    -1.0065e-04      0.345 (TRAH MIcro)
    6     dE    -1.282942e-04     2.831490e-03    -1.1151e-04      0.388 (TRAH MIcro)
    6     dE    -1.368538e-04     2.517656e-03    -1.3500e-04      0.403 (TRAH MIcro)
    6     dE    -1.426936e-04     2.122374e-03    -1.7542e-04      0.403 (TRAH MIcro)
 ---------------------------------
          TRAH Step control 
 ---------------------------------
  predicted energy change = -0.000143
  actual energy  change   = 0.000101
  energy change ratio     = -0.706353
  old trust radius        = 0.403200
  new trust radius        = 0.282240
  reject step?            =  1
    7      -2669.351330011918     9.267657e-03                     0.282 (TRAH MAcro)  Yes
    8      -2669.351330011916     1.682205e-03                     0.282 (TRAH MAcro)   No
    8     dE    -4.558546e-08     3.174776e-03    -4.5629e-08      0.000 (TRAH MIcro)
    8     dE    -2.570021e-06     1.583866e-03    -2.5700e-06      0.003 (TRAH MIcro)
    8     dE    -5.665050e-06     1.708799e-03    -5.6646e-06      0.009 (TRAH MIcro)
    8     dE    -7.798383e-06     1.794157e-03    -7.7969e-06      0.014 (TRAH MIcro)
    8     dE    -1.413231e-05     3.811750e-03    -1.4117e-05      0.033 (TRAH MIcro)
    8     dE    -2.692450e-05     3.845531e-03    -2.6772e-05      0.075 (TRAH MIcro)
    8     dE    -4.246864e-05     3.309906e-03    -4.1793e-05      0.127 (TRAH MIcro)
    8     dE    -6.173345e-05     4.471746e-03    -5.9574e-05      0.190 (TRAH MIcro)
    8     dE    -8.427992e-05     3.771750e-03    -7.8897e-05      0.261 (TRAH MIcro)
    8     dE    -9.651098e-05     2.828516e-03    -1.5725e-04      0.282 (TRAH MIcro)
    8     dE    -1.054947e-04     3.025938e-03    -2.8266e-04      0.282 (TRAH MIcro)
    8     dE    -1.123796e-04     1.981789e-03    -3.8061e-04      0.282 (TRAH MIcro)
    8     dE    -1.156696e-04     1.676480e-03    -4.2847e-04      0.282 (TRAH MIcro)
    8     dE    -1.182531e-04     1.406232e-03    -4.6620e-04      0.282 (TRAH MIcro)
    9      -2669.351393073193     5.477724e-03                     0.282 (TRAH MAcro)   No
    9     dE    -2.520145e-06     2.877361e-02    -2.5201e-06      0.000 (TRAH MIcro)
    9     dE    -2.966384e-05     6.318203e-03    -2.9662e-05      0.007 (TRAH MIcro)
    9     dE    -4.542625e-05     2.857442e-03    -4.5417e-05      0.014 (TRAH MIcro)
    9     dE    -4.871407e-05     1.590239e-03    -4.8701e-05      0.016 (TRAH MIcro)
    9     dE    -5.085327e-05     1.924597e-03    -5.0837e-05      0.018 (TRAH MIcro)
    9     dE    -5.276592e-05     1.683479e-03    -5.2744e-05      0.021 (TRAH MIcro)
    9     dE    -5.411053e-05     9.227931e-04    -5.4082e-05      0.023 (TRAH MIcro)
    9     dE    -5.512168e-05     1.058153e-03    -5.5088e-05      0.025 (TRAH MIcro)
    9     dE    -5.591199e-05     7.576635e-04    -5.5872e-05      0.027 (TRAH MIcro)
    9     dE    -5.643999e-05     8.311081e-04    -5.6395e-05      0.028 (TRAH MIcro)
    9     dE    -5.714721e-05     8.096618e-04    -5.7093e-05      0.031 (TRAH MIcro)
    9     dE    -5.769951e-05     7.440278e-04    -5.7635e-05      0.033 (TRAH MIcro)
    9     dE    -5.810060e-05     6.067998e-04    -5.8027e-05      0.036 (TRAH MIcro)
    9     dE    -5.833970e-05     3.579482e-04    -5.8260e-05      0.037 (TRAH MIcro)
   10      -2669.351451843070     3.879271e-04                           (NR   MAcro)
   10     dE    -1.443412e-07     3.502063e-04                           (NR   MIcro)
   10     dE    -3.335301e-07     4.917111e-04                           (NR   MIcro)
   10     dE    -5.617794e-07     5.345819e-04                           (NR   MIcro)
   10     dE    -8.762163e-07     5.177045e-04                           (NR   MIcro)
   10     dE    -1.150238e-06     4.969036e-04                           (NR   MIcro)
   10     dE    -1.396493e-06     4.546029e-04                           (NR   MIcro)
   10     dE    -1.657146e-06     4.934644e-04                           (NR   MIcro)
   10     dE    -1.920358e-06     4.961946e-04                           (NR   MIcro)
   10     dE    -2.171281e-06     4.703290e-04                           (NR   MIcro)
   10     dE    -2.473861e-06     5.457790e-04                           (NR   MIcro)
   10     dE    -2.729296e-06     4.556506e-04                           (NR   MIcro)
   10     dE    -2.922524e-06     3.667224e-04                           (NR   MIcro)
   10     dE    -3.027641e-06     2.710249e-04                           (NR   MIcro)
   10     dE    -3.123276e-06     2.176201e-04                           (NR   MIcro)
   10     dE    -3.170195e-06     1.623730e-04                           (NR   MIcro)
   11      -2669.351454718817     1.756898e-04                           (NR   MAcro)
   11     dE    -2.343497e-08     1.264953e-04                           (NR   MIcro)
   11     dE    -4.411466e-08     1.172343e-04                           (NR   MIcro)
   11     dE    -5.292271e-08     8.603688e-05                           (NR   MIcro)
   11     dE    -6.113812e-08     8.796368e-05                           (NR   MIcro)
   11     dE    -6.862680e-08     7.001372e-05                           (NR   MIcro)
   11     dE    -7.229340e-08     5.357583e-05                           (NR   MIcro)
   11     dE    -7.566180e-08     4.453589e-05                           (NR   MIcro)
   11     dE    -7.797498e-08     4.345974e-05                           (NR   MIcro)
   11     dE    -7.990432e-08     4.035895e-05                           (NR   MIcro)
   11     dE    -8.145377e-08     4.037735e-05                           (NR   MIcro)
   11     dE    -8.261586e-08     2.466460e-05                           (NR   MIcro)
   11     dE    -8.309500e-08     1.715024e-05                           (NR   MIcro)
   11     dE    -8.331594e-08     1.149401e-05                           (NR   MIcro)
   11     dE    -8.343111e-08     9.720826e-06                           (NR   MIcro)
   11     dE    -8.354859e-08     1.184196e-05                           (NR   MIcro)
   12      -2669.351454792806     1.193113e-05                           (NR   MAcro)

               *****************************************************
               *                     SUCCESS                       *
               *           SCF CONVERGED AFTER 353 CYCLES          *
               *****************************************************

Old exchange energy                            =   -101.073173652 Eh
New exchange energy                            =   -101.073419275 Eh
Exchange energy change after final integration =     -0.000245623 Eh
Total energy after final integration           =  -2669.351700416 Eh
Final COS-X integration done in                =    28.977 sec

----------------
TOTAL SCF ENERGY
----------------

Total Energy       :        -2669.35170042 Eh          -72636.75255 eV

Components:
Nuclear Repulsion  :         4244.17052111 Eh          115489.75126 eV
Electronic Energy  :        -6913.52222153 Eh         -188126.50381 eV
One Electron Energy:       -12785.46520791 Eh         -347910.19572 eV
Two Electron Energy:         5871.94298638 Eh          159783.69191 eV
Max COSX asymmetry :            0.00000631 Eh               0.00017 eV

Virial components:
Potential Energy   :        -4264.04884868 Eh         -116030.66806 eV
Kinetic Energy     :         1594.69714827 Eh           43393.91551 eV
Virial Ratio       :            2.67389257


DFT components:
N(Alpha)           :      127.999993202648 electrons
N(Beta)            :      123.999998318721 electrons
N(Total)           :      251.999991521369 electrons
E(X)               :      -91.051841927222 Eh       
E(C)               :       -6.928939203919 Eh       
E(XC)              :      -97.980781131141 Eh       
DFET-embed. en.    :        0.000000000000 Eh       

---------------
SCF CONVERGENCE
---------------

  Last Energy change         ...   -7.3989e-08  Tolerance :   1.0000e-06
  Last Orbital Gradient      ...    1.1931e-05  Tolerance :   5.0000e-05
  Last Orbital Rotation      ...    1.9765e-03

             **** THE GBW FILE WAS UPDATED (b2plyp.gbw) ****
             **** DENSITY b2plyp.scfp WAS UPDATED ****
             **** ENERGY FILE WAS UPDATED (b2plyp.en.tmp) ****
----------------------
UHF SPIN CONTAMINATION
----------------------

Warning: in a DFT calculation there is little theoretical justification to 
         calculate <S**2> as in Hartree-Fock theory. We will do it anyways
         but you should keep in mind that the values have only limited relevance

Expectation value of <S**2>     :     6.891964
Ideal value S*(S+1) for S=2.0   :     6.000000
Deviation                       :     0.891964

             **** THE GBW FILE WAS UPDATED (b2plyp.gbw) ****
             **** DENSITY b2plyp.scfp WAS UPDATED ****
----------------
ORBITAL ENERGIES
----------------
                 SPIN UP ORBITALS
  NO   OCC          E(Eh)            E(eV) 
   0   1.0000    -217.743626     -5925.1053 
   1   1.0000     -25.431271      -692.0201 
   2   1.0000     -21.570965      -586.9758 
   3   1.0000     -21.569802      -586.9441 
   4   1.0000     -21.564846      -586.8093 
   5   1.0000      -4.399889      -119.7271 
   6   1.0000      -4.399825      -119.7253 
   7   1.0000      -4.396370      -119.6313 
   8   1.0000      -4.396132      -119.6248 
   9   1.0000      -4.395320      -119.6027 
  10   1.0000      -4.395098      -119.5967 
  11   1.0000      -4.394390      -119.5774 
  12   1.0000      -4.394381      -119.5772 
  13   1.0000      -4.388491      -119.4169 
  14   1.0000      -4.388066      -119.4053 
  15   1.0000      -4.386083      -119.3514 
  16   1.0000      -4.386028      -119.3499 
  17   1.0000      -3.222550       -87.6901 
  18   1.0000      -2.522434       -68.6389 
  19   1.0000      -2.522287       -68.6349 
  20   1.0000      -2.518515       -68.5323 
  21   1.0000      -2.518467       -68.5310 
  22   1.0000      -2.518023       -68.5189 
  23   1.0000      -2.517766       -68.5119 
  24   1.0000      -2.517673       -68.5094 
  25   1.0000      -2.516193       -68.4691 
  26   1.0000      -2.515806       -68.4586 
  27   1.0000      -2.514842       -68.4323 
  28   1.0000      -2.514230       -68.4157 
  29   1.0000      -2.513842       -68.4051 
  30   1.0000      -2.513749       -68.4026 
  31   1.0000      -2.513435       -68.3941 
  32   1.0000      -2.512273       -68.3624 
  33   1.0000      -2.512188       -68.3601 
  34   1.0000      -2.511212       -68.3336 
  35   1.0000      -2.510842       -68.3235 
  36   1.0000      -2.510712       -68.3199 
  37   1.0000      -2.510280       -68.3082 
  38   1.0000      -2.510168       -68.3051 
  39   1.0000      -2.508805       -68.2680 
  40   1.0000      -2.508523       -68.2604 
  41   1.0000      -2.508145       -68.2501 
  42   1.0000      -2.508015       -68.2466 
  43   1.0000      -2.507080       -68.2211 
  44   1.0000      -2.506300       -68.1999 
  45   1.0000      -2.505675       -68.1829 
  46   1.0000      -2.504239       -68.1438 
  47   1.0000      -2.502686       -68.1016 
  48   1.0000      -2.501011       -68.0560 
  49   1.0000      -2.500924       -68.0536 
  50   1.0000      -2.500674       -68.0468 
  51   1.0000      -2.500171       -68.0331 
  52   1.0000      -2.499923       -68.0264 
  53   1.0000      -2.499400       -68.0121 
  54   1.0000      -2.113314       -57.5062 
  55   1.0000      -2.106486       -57.3204 
  56   1.0000      -2.104263       -57.2599 
  57   1.0000      -0.491323       -13.3696 
  58   1.0000      -0.475884       -12.9495 
  59   1.0000      -0.474147       -12.9022 
  60   1.0000      -0.469900       -12.7866 
  61   1.0000      -0.468833       -12.7576 
  62   1.0000      -0.468457       -12.7474 
  63   1.0000      -0.461355       -12.5541 
  64   1.0000      -0.459779       -12.5112 
  65   1.0000      -0.452609       -12.3161 
  66   1.0000      -0.449867       -12.2415 
  67   1.0000      -0.447009       -12.1637 
  68   1.0000      -0.441657       -12.0181 
  69   1.0000      -0.439546       -11.9607 
  70   1.0000      -0.438657       -11.9365 
  71   1.0000      -0.435750       -11.8574 
  72   1.0000      -0.434944       -11.8354 
  73   1.0000      -0.433434       -11.7943 
  74   1.0000      -0.428283       -11.6542 
  75   1.0000      -0.426153       -11.5962 
  76   1.0000      -0.426072       -11.5940 
  77   1.0000      -0.421916       -11.4809 
  78   1.0000      -0.416231       -11.3262 
  79   1.0000      -0.414383       -11.2759 
  80   1.0000      -0.413491       -11.2517 
  81   1.0000      -0.407434       -11.0868 
  82   1.0000      -0.405467       -11.0333 
  83   1.0000      -0.403430       -10.9779 
  84   1.0000      -0.398098       -10.8328 
  85   1.0000      -0.393416       -10.7054 
  86   1.0000      -0.393057       -10.6956 
  87   1.0000      -0.391309       -10.6481 
  88   1.0000      -0.389712       -10.6046 
  89   1.0000      -0.385916       -10.5013 
  90   1.0000      -0.382913       -10.4196 
  91   1.0000      -0.381892       -10.3918 
  92   1.0000      -0.378746       -10.3062 
  93   1.0000      -0.377284       -10.2664 
  94   1.0000      -0.375773       -10.2253 
  95   1.0000      -0.372649       -10.1403 
  96   1.0000      -0.371785       -10.1168 
  97   1.0000      -0.369459       -10.0535 
  98   1.0000      -0.369001       -10.0410 
  99   1.0000      -0.368319       -10.0225 
 100   1.0000      -0.361132        -9.8269 
 101   1.0000      -0.360353        -9.8057 
 102   1.0000      -0.360185        -9.8011 
 103   1.0000      -0.359360        -9.7787 
 104   1.0000      -0.358404        -9.7527 
 105   1.0000      -0.356727        -9.7070 
 106   1.0000      -0.355322        -9.6688 
 107   1.0000      -0.354588        -9.6488 
 108   1.0000      -0.351291        -9.5591 
 109   1.0000      -0.349237        -9.5032 
 110   1.0000      -0.349086        -9.4991 
 111   1.0000      -0.348195        -9.4749 
 112   1.0000      -0.346310        -9.4236 
 113   1.0000      -0.340866        -9.2754 
 114   1.0000      -0.339093        -9.2272 
 115   1.0000      -0.336441        -9.1550 
 116   1.0000      -0.330311        -8.9882 
 117   1.0000      -0.327096        -8.9007 
 118   1.0000      -0.326160        -8.8753 
 119   1.0000      -0.324646        -8.8341 
 120   1.0000      -0.323146        -8.7932 
 121   1.0000      -0.313848        -8.5402 
 122   1.0000      -0.306608        -8.3432 
 123   1.0000      -0.300038        -8.1645 
 124   1.0000      -0.280825        -7.6416 
 125   1.0000      -0.241865        -6.5815 
 126   1.0000      -0.233185        -6.3453 
 127   1.0000      -0.211232        -5.7479 
 128   0.0000      -0.111382        -3.0309 
 129   0.0000      -0.075572        -2.0564 
 130   0.0000      -0.066563        -1.8113 
 131   0.0000      -0.065556        -1.7839 
 132   0.0000      -0.054481        -1.4825 
 133   0.0000      -0.039041        -1.0624 
 134   0.0000      -0.036210        -0.9853 
 135   0.0000      -0.011212        -0.3051 
 136   0.0000      -0.000146        -0.0040 
 137   0.0000       0.002758         0.0750 
 138   0.0000       0.003668         0.0998 
 139   0.0000       0.010512         0.2860 
 140   0.0000       0.014101         0.3837 
 141   0.0000       0.030326         0.8252 
 142   0.0000       0.043670         1.1883 
 143   0.0000       0.051188         1.3929 
 144   0.0000       0.055510         1.5105 
 145   0.0000       0.068109         1.8533 
 146   0.0000       0.073709         2.0057 
 147   0.0000       0.081155         2.2083 
 148   0.0000       0.085322         2.3217 
 149   0.0000       0.086121         2.3435 
 150   0.0000       0.087448         2.3796 
 151   0.0000       0.091831         2.4988 
 152   0.0000       0.095377         2.5954 
 153   0.0000       0.106514         2.8984 
 154   0.0000       0.107064         2.9134 
 155   0.0000       0.108780         2.9601 
 156   0.0000       0.112075         3.0497 
 157   0.0000       0.112966         3.0740 
 158   0.0000       0.123712         3.3664 
 159   0.0000       0.128037         3.4841 
 160   0.0000       0.129475         3.5232 
 161   0.0000       0.140148         3.8136 
 162   0.0000       0.143041         3.8923 
 163   0.0000       0.145509         3.9595 
[...]
      f0      :     0.000031  f :     0.000272
      f+1     :     0.000034
      f-1     :     0.000015
      f+2     :    -0.000010
      f-2     :     0.000118
      f+3     :     0.000040
      f-3     :     0.000045
  1 Aus       :    -0.091502  s :    -0.091502
      pz      :    -0.012430  p :    -0.055028
      px      :    -0.031617
      py      :    -0.010982
      dz2     :    -0.006698  d :    -0.027050
      dxz     :    -0.013541
      dyz     :     0.000277
      dx2y2   :    -0.007090
      dxy     :     0.000002
      f0      :     0.000004  f :     0.000257
      f+1     :    -0.000025
      f-1     :     0.000059
      f+2     :     0.000087
      f-2     :    -0.000035
      f+3     :     0.000056
      f-3     :     0.000112
  2 Aus       :    -0.077965  s :    -0.077965
      pz      :    -0.006589  p :    -0.111619
      px      :    -0.072980
      py      :    -0.032050
      dz2     :     0.009136  d :     0.007344
      dxz     :    -0.000153
      dyz     :     0.001613
      dx2y2   :    -0.001925
      dxy     :    -0.001326
      f0      :     0.000335  f :     0.000406
      f+1     :     0.000071
      f-1     :     0.000109
      f+2     :    -0.000016
      f-2     :    -0.000016
      f+3     :    -0.000011
      f-3     :    -0.000067
  3 Aus       :    -0.092005  s :    -0.092005
      pz      :    -0.017783  p :    -0.054959
      px      :    -0.000391
      py      :    -0.036785
      dz2     :    -0.011313  d :    -0.026899
      dxz     :     0.004140
      dyz     :    -0.014633
      dx2y2   :     0.002753
      dxy     :    -0.007844
      f0      :     0.000030  f :     0.000260
      f+1     :     0.000031
      f-1     :    -0.000007
      f+2     :    -0.000035
      f-2     :     0.000037
      f+3     :     0.000068
      f-3     :     0.000135
  4 Aus       :    -0.103800  s :    -0.103800
      pz      :    -0.024676  p :    -0.030193
      px      :     0.003370
      py      :    -0.008887
      dz2     :     0.002515  d :     0.013111
      dxz     :     0.006812
      dyz     :    -0.001178
      dx2y2   :     0.003848
      dxy     :     0.001115
      f0      :     0.000022  f :     0.000247
      f+1     :     0.000061
      f-1     :     0.000010
      f+2     :     0.000098
      f-2     :     0.000025
      f+3     :     0.000034
      f-3     :    -0.000003
  5 Aus       :    -0.078346  s :    -0.078346
      pz      :    -0.022894  p :    -0.110881
      px      :    -0.071432
      py      :    -0.016554
      dz2     :     0.002362  d :     0.007700
      dxz     :     0.001974
      dyz     :     0.004803
      dx2y2   :    -0.001055
      dxy     :    -0.000384
      f0      :     0.000083  f :     0.000408
      f+1     :     0.000007
      f-1     :     0.000179
      f+2     :     0.000079
      f-2     :     0.000075
      f+3     :     0.000021
      f-3     :    -0.000038
  6 Aus       :     0.001948  s :     0.001948
      pz      :    -0.023165  p :    -0.026337
      px      :     0.001503
      py      :    -0.004675
      dz2     :    -0.002393  d :    -0.009754
      dxz     :    -0.000068
      dyz     :    -0.007649
      dx2y2   :     0.000061
      dxy     :     0.000295
      f0      :     0.000002  f :    -0.000018
      f+1     :    -0.000004
      f-1     :    -0.000009
      f+2     :    -0.000019
      f-2     :    -0.000001
      f+3     :     0.000010
      f-3     :     0.000002
  7 Aus       :    -0.105822  s :    -0.105822
      pz      :    -0.034917  p :    -0.031078
      px      :     0.002649
      py      :     0.001190
      dz2     :    -0.000167  d :     0.013003
      dxz     :     0.005472
      dyz     :     0.005571
      dx2y2   :    -0.000770
      dxy     :     0.002897
      f0      :     0.000049  f :     0.000271
      f+1     :     0.000007
      f-1     :    -0.000014
      f+2     :     0.000045
      f-2     :     0.000118
      f+3     :     0.000023
      f-3     :     0.000043
  8 Aus       :    -0.028039  s :    -0.028039
      pz      :    -0.003490  p :    -0.018494
      px      :    -0.011543
      py      :    -0.003462
      dz2     :     0.001330  d :    -0.012085
      dxz     :    -0.008833
      dyz     :     0.004327
      dx2y2   :    -0.008105
      dxy     :    -0.000804
      f0      :     0.000039  f :     0.000403
      f+1     :    -0.000007
      f-1     :     0.000097
      f+2     :     0.000102
      f-2     :    -0.000011
      f+3     :     0.000073
      f-3     :     0.000109
  9 Aus       :    -0.027973  s :    -0.027973
      pz      :    -0.004267  p :    -0.018728
      px      :     0.000079
      py      :    -0.014540
      dz2     :    -0.001018  d :    -0.012374
      dxz     :     0.003531
      dyz     :    -0.006464
      dx2y2   :     0.003276
      dxy     :    -0.011697
      f0      :     0.000039  f :     0.000397
      f+1     :     0.000062
      f-1     :     0.000012
      f+2     :     0.000015
      f-2     :     0.000072
      f+3     :     0.000057
      f-3     :     0.000140
 10 Aus       :     0.002011  s :     0.002011
      pz      :    -0.022851  p :    -0.026557
      px      :    -0.001054
      py      :    -0.002651
      dz2     :    -0.000725  d :    -0.009886
      dxz     :    -0.008679
      dyz     :    -0.000912
      dx2y2   :     0.000344
      dxy     :     0.000086
      f0      :     0.000003  f :    -0.000018
      f+1     :    -0.000012
      f-1     :     0.000003
      f+2     :    -0.000012
      f-2     :    -0.000013
      f+3     :     0.000005
      f-3     :     0.000008
 11 Aus       :    -0.104417  s :    -0.104417
      pz      :    -0.032582  p :    -0.030004
      px      :     0.003012
      py      :    -0.000434
      dz2     :     0.001339  d :     0.013350
      dxz     :     0.011239
      dyz     :     0.000668
      dx2y2   :     0.002659
      dxy     :    -0.002556
      f0      :     0.000032  f :     0.000248
      f+1     :     0.000037
      f-1     :     0.000001
      f+2     :     0.000087
      f-2     :     0.000073
      f+3     :     0.000018
      f-3     :     0.000000
 12 Crs       :     0.022318  s :     0.022318
      pz      :     0.022271  p :     0.056341
      px      :     0.015068
      py      :     0.019003
      dz2     :     0.781309  d :     3.304867
      dxz     :     0.706776
      dyz     :     0.778792
      dx2y2   :     0.425092
      dxy     :     0.612897
      f0      :    -0.000017  f :     0.000092
      f+1     :    -0.000009
      f-1     :    -0.000009
      f+2     :     0.000006
      f-2     :     0.000006
      f+3     :     0.000049
      f-3     :     0.000065


                      *****************************
                      * MAYER POPULATION ANALYSIS *
                      *****************************

  NA   - Mulliken gross atomic population
  ZA   - Total nuclear charge
  QA   - Mulliken gross atomic charge
  VA   - Mayer's total valence
  BVA  - Mayer's bonded valence
  FA   - Mayer's free valence

  ATOM       NA         ZA         QA         VA         BVA        FA
  0 Au    18.7766    19.0000     0.2234     1.6749     1.6191     0.0558
  1 Au    18.4158    19.0000     0.5842     1.3434     1.3058     0.0376
  2 Au    18.7194    19.0000     0.2806     1.4208     1.3950     0.0258
  3 Au    18.4154    19.0000     0.5846     1.3437     1.3059     0.0378
  4 Au    18.7713    19.0000     0.2287     1.6758     1.6223     0.0535
  5 Au    18.7203    19.0000     0.2797     1.4206     1.3949     0.0258
  6 Au    18.6693    19.0000     0.3307     1.2318     1.2312     0.0005
  7 Au    18.7747    19.0000     0.2253     1.6732     1.6172     0.0560
  8 Au    18.9335    19.0000     0.0665     1.8901     1.8861     0.0040
  9 Au    18.9300    19.0000     0.0700     1.8909     1.8869     0.0040
 10 Au    18.6688    19.0000     0.3312     1.2320     1.2314     0.0006
 11 Au    18.7752    19.0000     0.2248     1.6795     1.6255     0.0540
 12 Cr    27.4298    24.0000    -3.4298     9.8606     6.2055     3.6551

  Mayer bond orders larger than 0.100000
B(  0-Au,  1-Au) :   0.1320 B(  0-Au,  5-Au) :   0.3307 B(  0-Au,  9-Au) :   0.1047 
B(  0-Au, 10-Au) :   0.2878 B(  0-Au, 11-Au) :   0.1094 B(  0-Au, 12-Cr) :   0.4927 
B(  1-Au,  3-Au) :   0.2241 B(  1-Au, 11-Au) :   0.1477 B(  1-Au, 12-Cr) :   0.6433 
B(  2-Au,  7-Au) :   0.3296 B(  2-Au, 11-Au) :   0.3331 B(  2-Au, 12-Cr) :   0.5362 
B(  3-Au,  4-Au) :   0.1481 B(  3-Au,  7-Au) :   0.1308 B(  3-Au, 12-Cr) :   0.6426 
B(  4-Au,  5-Au) :   0.3308 B(  4-Au,  6-Au) :   0.3008 B(  4-Au,  7-Au) :   0.1113 
B(  4-Au,  8-Au) :   0.1087 B(  4-Au, 12-Cr) :   0.4680 B(  5-Au, 12-Cr) :   0.5378 
B(  6-Au,  7-Au) :   0.2882 B(  6-Au,  8-Au) :   0.2731 B(  6-Au, 12-Cr) :   0.3126 
B(  7-Au,  8-Au) :   0.1045 B(  7-Au, 12-Cr) :   0.4920 B(  8-Au,  9-Au) :   0.5984 
B(  8-Au, 12-Cr) :   0.6495 B(  9-Au, 10-Au) :   0.2732 B(  9-Au, 11-Au) :   0.1097 
B(  9-Au, 12-Cr) :   0.6486 B( 10-Au, 11-Au) :   0.3010 B( 10-Au, 12-Cr) :   0.3122 
B( 11-Au, 12-Cr) :   0.4697 

-------
TIMINGS
-------

Total SCF time: 0 days 1 hours 32 min 36 sec 

Total time                  ....    5556.096 sec
Sum of individual times     ....    5489.197 sec  ( 98.8%)

Fock matrix formation       ....    4246.068 sec  ( 76.4%)
  Split-RI-J                ....     423.724 sec  ( 10.0% of F)
  Chain of spheres X        ....    3045.181 sec  ( 71.7% of F)
  XC integration            ....     486.504 sec  ( 11.5% of F)
    Basis function eval.    ....      54.818 sec  ( 11.3% of XC)
    Density eval.           ....     169.645 sec  ( 34.9% of XC)
    XC-Functional eval.     ....       8.820 sec  (  1.8% of XC)
    XC-Potential eval.      ....     126.679 sec  ( 26.0% of XC)
Diagonalization             ....     443.760 sec  (  8.0%)
Density matrix formation    ....      38.321 sec  (  0.7%)
Population analysis         ....       1.635 sec  (  0.0%)
Initial guess               ....       0.312 sec  (  0.0%)
Orbital Transformation      ....     137.195 sec  (  2.5%)
Orbital Orthonormalization  ....       0.225 sec  (  0.0%)
DIIS solution               ....     612.979 sec  ( 11.0%)
Grid generation             ....       7.333 sec  (  0.1%)

Maximum memory used throughout the entire SCF-calculation: 127.5 MB


           ************************************************************
           *        Program running with 6 parallel MPI-processes     *
           *              working on a common directory               *
           ************************************************************

------------------------------------------------------------------------------
                                ORCA  MP2 
------------------------------------------------------------------------------

Freezing NCore=10 chemical core electrons

   <<< Use J-auxbasis for calculation of Separable RI-J derivative contributions (Dim=1157) >>> 


-------------
RI-MP2 ENERGY
-------------
Dimension of the basis                    ...  525
Memory devoted to MP2                     ...  256 MB   
Data format for buffers                   ... DOUBLE
Compression type for matrix containers    ... UNCOMPRESSED
Overall scaling of the MP2 energy         ...   2.700e-01
Calculating two index integrals           ... done (    0.082 sec)
Cholesky decomposition of V**-1           ... done (    4.873 sec)

-----------------
RI-TRANSFORMATION (AUX index driven)
-----------------

Dimension of the orbital-basis         ... 525
Dimension of the aux-basis             ... 1994
Transformation of internal/external MOs...    5- 126 to  127- 524
Number Format for Storage              ... Double (8 Byte)
Integral mode                          ... Direct

First Phase: integral generation and transformation of MO indices
  Aux angular momentum 0               ... done (    0.130 sec)
  Aux angular momentum 1               ... done (    0.427 sec)
  Aux angular momentum 2               ... done (    0.868 sec)
  Aux angular momentum 3               ... done (    0.833 sec)
  Aux angular momentum 4               ... done (    0.568 sec)
  Aux angular momentum 5               ... done (    0.408 sec)
Closing buffer VIA ( 0.72 GB; CompressionRatio= 1.00)
  Phase 1 completed in     3.802 sec
Second Phase: sorting and transformation of aux index

IA-Transformation
Memory available                       ... 177 MB 
Max. # MO pairs treated in a batch     ... 21    
# of internal orbitals                 ... 122
# batches for internal orbitals        ... 1
Closing buffer IAV ( 0.72 GB; CompressionRatio= 1.00)
(ia|v) transformation done in     3.384 sec

  Phase 2 completed in     3.559 sec
RI-Integral transformation completed in     7.410 sec

-----------------
RI-TRANSFORMATION (AUX index driven)
-----------------

Dimension of the orbital-basis         ... 525
Dimension of the aux-basis             ... 1994
Transformation of internal/external MOs...    5- 124 to  125- 524
Number Format for Storage              ... Double (8 Byte)
Integral mode                          ... Direct

First Phase: integral generation and transformation of MO indices
  Aux angular momentum 0               ... done (    0.257 sec)
  Aux angular momentum 1               ... done (    0.580 sec)
  Aux angular momentum 2               ... done (    0.676 sec)
  Aux angular momentum 3               ... done (    0.405 sec)
  Aux angular momentum 4               ... done (    0.344 sec)
  Aux angular momentum 5               ... done (    0.666 sec)
Closing buffer VIA ( 0.71 GB; CompressionRatio= 1.00)
  Phase 1 completed in     3.836 sec
Second Phase: sorting and transformation of aux index

IA-Transformation
Memory available                       ... 177 MB 
Max. # MO pairs treated in a batch     ... 20    
# of internal orbitals                 ... 120
# batches for internal orbitals        ... 1
Closing buffer IAV ( 0.71 GB; CompressionRatio= 1.00)
(ia|v) transformation done in     3.126 sec

  Phase 2 completed in     3.362 sec
RI-Integral transformation completed in     7.263 sec
Opening buffers                              ... done

Starting loop over batches of integrals:

Operator 0  - window                       ... (  5-126)x(127-524)
Operator 0  - Memory available             ...   256 MB
Operator 0  - Memory needed per MO         ...   6.1 MB
Operator 0  - Number of orbitals per batch ... 21
Operator 0  - Number of batches            ... 1

OPERATOR  0   PASS   0:  MOs     5 ...   25 +   26 ...   46 +   47 ...   67 +   68 ...   88
                            +   89 ...  109 +  110 ...  126
  Reading integrals       ... ok
  Internal MO   7
  Internal MO  10
  Internal MO  13
  Internal MO  16
  Internal MO  19
  Internal MO  22
  Internal MO  25

Operator 1  - window                       ... (  5-124)x(125-524)
Operator 1  - Memory available             ...   256 MB
Operator 1  - Memory needed per MO         ...   6.1 MB
Operator 1  - Number of orbitals per batch ... 20
Operator 1  - Number of batches            ... 1

OPERATOR  1   PASS   0:  MOs     5 ...   24 +   25 ...   44 +   45 ...   64 +   65 ...   84
                            +   85 ...  104 +  105 ...  124
  Reading integrals       ... ok
  Internal MO   7
  Internal MO  10
  Internal MO  13
  Internal MO  16
  Internal MO  19
  Internal MO  22
Time spent in pair loops =   191.613 sec
Deleting buffer (Ka|jb)[aa] ...done
Deleting buffer (Ka|jb)[ba] ...done
Deleting buffer (Ka|jb)[ab] ...done
Deleting buffer (Ka|jb)[bb] ...done

Correlation energy components}
 E2 and T2 for alpha/alpha pairs :     -0.365172111 Eh      0.000000000
 E2 and T2 for beta/beta   pairs :     -0.353435725 Eh      0.000000000
 E2 and T2 for alpha/beta  pairs :     -1.223201258 Eh      0.000000000


-----------------------------------------------
 RI-MP2 CORRELATION ENERGY:     -1.941809094 Eh
-----------------------------------------------


-------
TIMINGS
-------

Total time                :  263.147 sec
Integral trafo            :   14.692 sec (  5.6%)
I/O of integrals          :    0.222 sec (  0.1%)
K(i,j) Operators          :  132.107 sec ( 50.2%)
T(i,j) pair energies      :    3.810 sec (  1.4%)
V-calculation             :    0.082 sec (  0.0%)
V**(-1/2)                 :    4.873 sec (  1.9%)
Gamma(ia|P)               :    0.000 sec (  0.0%)
Gamma-Trafo               :    0.000 sec (  0.0%)
D(virtual)                :    0.000 sec (  0.0%)
D(internal)               :    0.000 sec (  0.0%)
W(virtual)                :    0.000 sec (  0.0%)
W(internal)               :    0.000 sec (  0.0%)
L(virtual)                :    0.000 sec (  0.0%)
L(internal)               :    0.000 sec (  0.0%)
G(D)                      :    0.000 sec (  0.0%)
G(Z)                      :    0.000 sec (  0.0%)
Z-Vector Solution         :    0.000 sec (  0.0%)
3-Index Derivative        :    0.000 sec (  0.0%)
2-Index Derivative        :    0.000 sec (  0.0%)
Separable Gradient (RIJ)  :    0.000 sec (  0.0%)
Separable Gradient (COSX) :    0.000 sec (  0.0%)


---------------------------------------
MP2 TOTAL ENERGY:    -2671.300187518 Eh
---------------------------------------

Maximum memory used throughout the entire MP2-calculation: 257.6 MB

-------------------------   --------------------
FINAL SINGLE POINT ENERGY     -2671.300187517963
-------------------------   --------------------


                            ***************************************
                            *     ORCA property calculations      *
                            ***************************************


  WARNING: The energy has been calculated at the MP2 level but the densities
           used in the property calculations are still SCF densities
           MP2 response densities have not been calculated 
           use %mp2 Density relaxed end
           or  %mp2 Density unrelaxed end

                                    ---------------------
                                    Active property flags
                                    ---------------------
   (+) Dipole Moment


------------------------------------------------------------------------------
                       ORCA ELECTRIC PROPERTIES CALCULATION
------------------------------------------------------------------------------

Dipole Moment Calculation                       ... on
Quadrupole Moment Calculation                   ... off
Polarizability Calculation                      ... off
GBWName                                         ... b2plyp_job2.gbw
Electron density                                ... b2plyp_job2.scfp
The origin for moment calculation is the CENTER OF MASS  = (16.025841, 12.695573 14.583484)

-------------
DIPOLE MOMENT
-------------
                                X             Y             Z
Electronic contribution:      1.76530       3.31409      -1.12487
Nuclear contribution   :     -1.76054      -3.30517       1.12222
                        -----------------------------------------
Total Dipole Moment    :      0.00476       0.00892      -0.00265
                        -----------------------------------------
Magnitude (a.u.)       :      0.01045
Magnitude (Debye)      :      0.02657



--------------------
Rotational spectrum 
--------------------
 
Rotational constants in cm-1:     0.001735     0.001034     0.000979 
Rotational constants in MHz :    52.019435    30.984359    29.353956 

 Dipole components along the rotational axes: 
x,y,z [a.u.] :    -0.000067     0.010441     0.000493 
x,y,z [Debye]:    -0.000169     0.026538     0.001252 

 

Timings for individual modules:

Sum of individual times         ...     5839.319 sec (=  97.322 min)
GTO integral calculation        ...       17.975 sec (=   0.300 min)   0.3 %
SCF iterations                  ...     5557.090 sec (=  92.618 min)  95.2 %
MP2 module                      ...      264.255 sec (=   4.404 min)   4.5 %



                             ****ORCA TERMINATED NORMALLY****
TOTAL RUN TIME: 0 days 4 hours 19 minutes 59 seconds 658 msec
