
                                 *****************
                                 * O   R   C   A *
                                 *****************

                                            #,                                       
                                            ###                                      
                                            ####                                     
                                            #####                                    
                                            ######                                   
                                           ########,                                 
                                     ,,################,,,,,                         
                               ,,#################################,,                 
                          ,,##########################################,,             
                       ,#########################################, ''#####,          
                    ,#############################################,,   '####,        
                  ,##################################################,,,,####,       
                ,###########''''           ''''###############################       
              ,#####''   ,,,,##########,,,,          '''####'''          '####       
            ,##' ,,,,###########################,,,                        '##       
           ' ,,###''''                  '''############,,,                           
         ,,##''                                '''############,,,,        ,,,,,,###''
      ,#''                                            '''#######################'''  
     '                                                          ''''####''''         
             ,#######,   #######,   ,#######,      ##                                
            ,#'     '#,  ##    ##  ,#'     '#,    #''#        ######   ,####,        
            ##       ##  ##   ,#'  ##            #'  '#       #        #'  '#        
            ##       ##  #######   ##           ,######,      #####,   #    #        
            '#,     ,#'  ##    ##  '#,     ,#' ,#      #,         ##   #,  ,#        
             '#######'   ##     ##  '#######'  #'      '#     #####' # '####'        



                  #######################################################
                  #                        -***-                        #
                  #          Department of theory and spectroscopy      #
                  #    Directorship and core code : Frank Neese         #
                  #        Max Planck Institute fuer Kohlenforschung    #
                  #                Kaiser Wilhelm Platz 1               #
                  #                 D-45470 Muelheim/Ruhr               #
                  #                      Germany                        #
                  #                                                     #
                  #                  All rights reserved                #
                  #                        -***-                        #
                  #######################################################


                         Program Version 5.0.3 -  RELEASE  -


 With contributions from (in alphabetic order):
   Daniel Aravena         : Magnetic Suceptibility
   Michael Atanasov       : Ab Initio Ligand Field Theory (pilot matlab implementation)
   Alexander A. Auer      : GIAO ZORA, VPT2 properties, NMR spectrum
   Ute Becker             : Parallelization
   Giovanni Bistoni       : ED, misc. LED, open-shell LED, HFLD
   Martin Brehm           : Molecular dynamics
   Dmytro Bykov           : SCF Hessian
   Vijay G. Chilkuri      : MRCI spin determinant printing, contributions to CSF-ICE
   Dipayan Datta          : RHF DLPNO-CCSD density
   Achintya Kumar Dutta   : EOM-CC, STEOM-CC
   Dmitry Ganyushin       : Spin-Orbit,Spin-Spin,Magnetic field MRCI
   Miquel Garcia          : C-PCM and meta-GGA Hessian, CC/C-PCM, Gaussian charge scheme
   Yang Guo               : DLPNO-NEVPT2, F12-NEVPT2, CIM, IAO-localization
   Andreas Hansen         : Spin unrestricted coupled pair/coupled cluster methods
   Benjamin Helmich-Paris : MC-RPA, TRAH-SCF, COSX integrals
   Lee Huntington         : MR-EOM, pCC
   Robert Izsak           : Overlap fitted RIJCOSX, COSX-SCS-MP3, EOM
   Marcus Kettner         : VPT2
   Christian Kollmar      : KDIIS, OOCD, Brueckner-CCSD(T), CCSD density, CASPT2, CASPT2-K
   Simone Kossmann        : Meta GGA functionals, TD-DFT gradient, OOMP2, MP2 Hessian
   Martin Krupicka        : Initial AUTO-CI
   Lucas Lang             : DCDCAS
   Marvin Lechner         : AUTO-CI (C++ implementation), FIC-MRCC
   Dagmar Lenk            : GEPOL surface, SMD
   Dimitrios Liakos       : Extrapolation schemes; Compound Job, initial MDCI parallelization
   Dimitrios Manganas     : Further ROCIS development; embedding schemes
   Dimitrios Pantazis     : SARC Basis sets
   Anastasios Papadopoulos: AUTO-CI, single reference methods and gradients
   Taras Petrenko         : DFT Hessian,TD-DFT gradient, ASA, ECA, R-Raman, ABS, FL, XAS/XES, NRVS
   Peter Pinski           : DLPNO-MP2, DLPNO-MP2 Gradient
   Christoph Reimann      : Effective Core Potentials
   Marius Retegan         : Local ZFS, SOC
   Christoph Riplinger    : Optimizer, TS searches, QM/MM, DLPNO-CCSD(T), (RO)-DLPNO pert. Triples
   Tobias Risthaus        : Range-separated hybrids, TD-DFT gradient, RPA, STAB
   Michael Roemelt        : Original ROCIS implementation
   Masaaki Saitow         : Open-shell DLPNO-CCSD energy and density
   Barbara Sandhoefer     : DKH picture change effects
   Avijit Sen             : IP-ROCIS
   Kantharuban Sivalingam : CASSCF convergence, NEVPT2, FIC-MRCI
   Bernardo de Souza      : ESD, SOC TD-DFT
   Georgi Stoychev        : AutoAux, RI-MP2 NMR, DLPNO-MP2 response
   Willem Van den Heuvel  : Paramagnetic NMR
   Boris Wezisla          : Elementary symmetry handling
   Frank Wennmohs         : Technical directorship


 We gratefully acknowledge several colleagues who have allowed us to
 interface, adapt or use parts of their codes:
   Stefan Grimme, W. Hujo, H. Kruse, P. Pracht,  : VdW corrections, initial TS optimization,
                  C. Bannwarth, S. Ehlert          DFT functionals, gCP, sTDA/sTD-DF
   Ed Valeev, F. Pavosevic, A. Kumar             : LibInt (2-el integral package), F12 methods
   Garnet Chan, S. Sharma, J. Yang, R. Olivares  : DMRG
   Ulf Ekstrom                                   : XCFun DFT Library
   Mihaly Kallay                                 : mrcc  (arbitrary order and MRCC methods)
   Jiri Pittner, Ondrej Demel                    : Mk-CCSD
   Frank Weinhold                                : gennbo (NPA and NBO analysis)
   Christopher J. Cramer and Donald G. Truhlar   : smd solvation model
   Lars Goerigk                                  : TD-DFT with DH, B97 family of functionals
   V. Asgeirsson, H. Jonsson                     : NEB implementation
   FAccTs GmbH                                   : IRC, NEB, NEB-TS, DLPNO-Multilevel, CI-OPT
                                                   MM, QMMM, 2- and 3-layer-ONIOM, Crystal-QMMM,
                                                   LR-CPCM, SF, NACMEs, symmetry and pop. for TD-DFT,
                                                   nearIR, NL-DFT gradient (VV10), updates on ESD,
                                                   ML-optimized integration grids
   S Lehtola, MJT Oliveira, MAL Marques          : LibXC Library
   Liviu Ungur et al                             : ANISO software


 Your calculation uses the libint2 library for the computation of 2-el integrals
 For citations please refer to: http://libint.valeyev.net

 Your ORCA version has been built with support for libXC version: 5.1.0
 For citations please refer to: https://tddft.org/programs/libxc/

 This ORCA versions uses:
   CBLAS   interface :  Fast vector & matrix operations
   LAPACKE interface :  Fast linear algebra routines
   SCALAPACK package :  Parallel linear algebra routines
   Shared memory     :  Shared parallel matrices
   BLAS/LAPACK       :  OpenBLAS 0.3.15  USE64BITINT DYNAMIC_ARCH NO_AFFINITY Haswell SINGLE_THREADED
        Core in use  :  Haswell
   Copyright (c) 2011-2014, The OpenBLAS Project




***************************************
The coordinates will be read from file: pbe.xyz
***************************************


================================================================================

cite the ECPs for Au [Def2-ECP] as follows:
Ce-Yb(ecp-28): M. Dolg, H. Stoll, H.Preuss, J. Chem. Phys., 1989, 90, 1730-1734.
Y-Cd(ecp-28), Hf-Hg(ecp-46): D. Andrae,U. Haeussermann, M. Dolg, H. Stoll, H. Preuss, Theor. Chim. Acta, 1990, 77, 123-141.
In-Sb(ecp-28), Tl-Bi(ecp-46): B. Metz, H. Stoll, M. Dolg, J. Chem. Phys., 2000, 113, 2563-2569.
Te-Xe(ecp-28), Po-Rn(ecp-46): K. A. Peterson, D. Figgen, E. Goll, H. Stoll, M. Dolg, J. Chem. Phys., 2003, 119, 11113-11123.
Rb(ecp-28), Cs(ecp-46): T. Leininger, A. Nicklass, W. Kuechle, H. Stoll, M. Dolg, A. Bergner, Chem. Phys. Lett., 1996, 255, 274-280.
Sr(ecp-28), Ba(ecp-46): M. Kaupp, P. V. Schleyer, H. Stoll and H. Preuss, J. Chem. Phys., 1991, 94, 1360-1366.
La(ecp-46): M. Dolg, H. Stoll, A. Savin, H. Preuss, Theor. Chim. Acta, 1989, 75, 173-194.
Lu(ecp-28): X. Cao, M. Dolg, J. Chem. Phys., 2001, 115, 7348-7355.

ECP parameters for Au [Def2-ECP] have been obtained from:
TURBOMOLE (7.0.2)

----- Orbital basis set information -----
Your calculation utilizes the basis: def2-TZVP
   F. Weigend and R. Ahlrichs, Phys. Chem. Chem. Phys. 7, 3297 (2005).

----- AuxJ basis set information -----
Your calculation utilizes the auxiliary basis: def2/J
   F. Weigend, Phys. Chem. Chem. Phys. 8, 1057 (2006).

----- AuxC basis set information -----
Your calculation utilizes the auxiliary basis: def2-TZVP/C
  H-La, Hf-Rn : A. Hellweg, C. Hattig, S. Hofener and W. Klopper, Theor. Chem. Acc. 117, 587 (2007).
        Ce-Lu : J. Chmela and M. E. Harding, Mol. Phys. (2018).

================================================================================
                                        WARNINGS
                       Please study these warnings very carefully!
================================================================================


INFO   : the flag for use of the SHARK integral package has been found!

================================================================================
                                       INPUT FILE
================================================================================
NAME = casscf.inp
|  1> !CASSCF def2-TZVP def2-TZVP/C
|  2> !MOREAD RIJCOSX
|  3> %maxcore 6000
|  4> %moinp "pbe.qro"
|  5> %pal nprocs 2 end 
|  6> 
|  7> %casscf
|  8>  mult 5,3
|  9>  bweight 1,1
| 10>  nroots 5,45
| 11>  nel 6
| 12>  norb 5
| 13> end
| 14> 
| 15> 
| 16> *xyzfile 0 5 pbe.xyz
| 17> 
| 18> 
| 19>                          ****END OF INPUT****
================================================================================

                       ****************************
                       * Single Point Calculation *
                       ****************************

---------------------------------
CARTESIAN COORDINATES (ANGSTROEM)
---------------------------------
  Au     6.439690    8.402611    8.742717
  Au     6.016457    9.603232    6.197072
  Au     8.720283    4.487923   10.492521
  Au    10.599760    6.650051    6.568332
  Au     7.959489    5.668176    8.078503
  Au     8.260800    5.826897    5.309550
  Au     5.939499    6.803164    6.524347
  Au     9.623428    8.081070    4.309824
  Au     8.176761    9.826803   10.278955
  Au     8.100625    7.126089   10.538007
  Au    10.519362    6.106302    9.273093
  Au    10.591177    8.493238   10.836226
  Au    10.490868    9.723888    6.305963
  Au    10.485514   10.599883    8.923313
  Au     8.084380   10.742173    7.563406
  Au    11.884882    8.260379    8.346099
  Cr     8.298009    8.180011    6.705880

----------------------------
CARTESIAN COORDINATES (A.U.)
----------------------------
  NO LB      ZA    FRAG     MASS         X           Y           Z
   0 Au   19.0000*   0   196.966   12.169250   15.878635   16.521340
   1 Au   19.0000*   0   196.966   11.369455   18.147479   11.710768
   2 Au   19.0000*   0   196.966   16.478946    8.480945   19.827991
   3 Au   19.0000*   0   196.966   20.030644   12.566776   12.412349
   4 Au   19.0000*   0   196.966   15.041254   10.711300   15.266158
   5 Au   19.0000*   0   196.966   15.610649   11.011240   10.033596
   6 Au   19.0000*   0   196.966   11.224026   12.856116   12.329230
   7 Au   19.0000*   0   196.966   18.185643   15.271009    8.144388
   8 Au   19.0000*   0   196.966   15.451840   18.569966   19.424411
   9 Au   19.0000*   0   196.966   15.307963   13.466357   19.913947
  10 Au   19.0000*   0   196.966   19.878713   11.539238   17.523606
  11 Au   19.0000*   0   196.966   20.014425   16.049894   20.477499
  12 Au   19.0000*   0   196.966   19.824868   18.375485   11.916543
  13 Au   19.0000*   0   196.966   19.814750   20.030876   16.862618
  14 Au   19.0000*   0   196.966   15.277265   20.299764   14.292766
  15 Au   19.0000*   0   196.966   22.459173   15.609853   15.771841
  16 Cr   24.0000    0    52.000   15.680965   15.457981   12.672278
* core charge reduced due to ECP

--------------------------------
INTERNAL COORDINATES (ANGSTROEM)
--------------------------------
 Au     0   0   0     0.000000000000     0.00000000     0.00000000
 Au     1   0   0     2.846212371693     0.00000000     0.00000000
 Au     1   2   0     4.856717951282   137.06065711     0.00000000
 Au     3   1   2     4.858651408193    62.09308963    32.10621069
 Au     3   1   2     2.792720688577    38.73976755   350.85491290
 Au     4   3   1     2.780800311303    84.75078301   294.31021024
 Au     1   2   3     2.780213292748    60.15031164   320.53225232
 Au     6   4   3     2.817357040219    61.11714463   154.27998374
 Au     1   2   3     2.721354244476   112.27516120   108.13441562
 Au     3   1   2     2.710344543798    27.63977412   133.85317715
 Au     3   1   2     2.709768092249    70.62394614    60.87133121
 Au     9   1   2     2.813956341279   114.29655397   245.58215244
 Au     8   6   4     2.726879813824   112.09375057   317.23141929
 Au    13   8   6     2.760057696064   152.22267006   344.58367960
 Au     2   1   3     2.727702588503    67.38036273   262.53867504
 Au    11   3   1     2.713670924729   164.13155372    36.45090996
 Cr    15   2   1     2.710287535164    60.43204891    66.72085038

---------------------------
INTERNAL COORDINATES (A.U.)
---------------------------
 Au     0   0   0     0.000000000000     0.00000000     0.00000000
 Au     1   0   0     5.378561901478     0.00000000     0.00000000
 Au     1   2   0     9.177866837622   137.06065711     0.00000000
 Au     3   1   2     9.181520541676    62.09308963    32.10621069
 Au     3   1   2     5.277477269947    38.73976755   350.85491290
 Au     4   3   1     5.254951021486    84.75078301   294.31021024
 Au     1   2   3     5.253841717181    60.15031164   320.53225232
 Au     6   4   3     5.324033227488    61.11714463   154.27998374
 Au     1   2   3     5.142614235444   112.27516120   108.13441562
 Au     3   1   2     5.121808916345    27.63977412   133.85317715
 Au     3   1   2     5.120719580788    70.62394614    60.87133121
 Au     9   1   2     5.317606837829   114.29655397   245.58215244
 Au     8   6   4     5.153056048246   112.09375057   317.23141929
 Au    13   8   6     5.215753159383   152.22267006   344.58367960
 Au     2   1   3     5.154610867059    67.38036273   262.53867504
 Au    11   3   1     5.128094865323   164.13155372    36.45090996
 Cr    15   2   1     5.121701185640    60.43204891    66.72085038

---------------------
BASIS SET INFORMATION
---------------------
There are 2 groups of distinct atoms

 Group   1 Type Au  : 8s7p6d1f contracted to 6s4p3d1f pattern {311111/4111/411/1}
 Group   2 Type Cr  : 17s11p7d1f contracted to 6s4p4d1f pattern {842111/6311/4111/1}

Atom   0Au   basis set group =>   1
Atom   1Au   basis set group =>   1
Atom   2Au   basis set group =>   1
Atom   3Au   basis set group =>   1
Atom   4Au   basis set group =>   1
Atom   5Au   basis set group =>   1
Atom   6Au   basis set group =>   1
Atom   7Au   basis set group =>   1
Atom   8Au   basis set group =>   1
Atom   9Au   basis set group =>   1
Atom  10Au   basis set group =>   1
Atom  11Au   basis set group =>   1
Atom  12Au   basis set group =>   1
Atom  13Au   basis set group =>   1
Atom  14Au   basis set group =>   1
Atom  15Au   basis set group =>   1
Atom  16Cr   basis set group =>   2
---------------------------------
AUXILIARY/J BASIS SET INFORMATION
---------------------------------
There are 2 groups of distinct atoms

 Group   1 Type Au  : 11s5p5d3f3g contracted to 8s5p5d2f3g pattern {41111111/11111/11111/21/111}
 Group   2 Type Cr  : 19s5p5d3f3g contracted to 8s5p5d2f3g pattern {121111111/11111/11111/21/111}

Atom   0Au   basis set group =>   1
Atom   1Au   basis set group =>   1
Atom   2Au   basis set group =>   1
Atom   3Au   basis set group =>   1
Atom   4Au   basis set group =>   1
Atom   5Au   basis set group =>   1
Atom   6Au   basis set group =>   1
Atom   7Au   basis set group =>   1
Atom   8Au   basis set group =>   1
Atom   9Au   basis set group =>   1
Atom  10Au   basis set group =>   1
Atom  11Au   basis set group =>   1
Atom  12Au   basis set group =>   1
Atom  13Au   basis set group =>   1
Atom  14Au   basis set group =>   1
Atom  15Au   basis set group =>   1
Atom  16Cr   basis set group =>   2
---------------------------------
AUXILIARY/C BASIS SET INFORMATION
---------------------------------
There are 2 groups of distinct atoms

 Group   1 Type Au  : 8s8p7d5f3g2h contracted to 8s8p7d5f3g2h pattern {11111111/11111111/1111111/11111/111/11}
 Group   2 Type Cr  : 11s9p8d6f5g2h contracted to 9s8p8d6f5g2h pattern {311111111/21111111/11111111/111111/11111/11}

Atom   0Au   basis set group =>   1
Atom   1Au   basis set group =>   1
Atom   2Au   basis set group =>   1
Atom   3Au   basis set group =>   1
Atom   4Au   basis set group =>   1
Atom   5Au   basis set group =>   1
Atom   6Au   basis set group =>   1
Atom   7Au   basis set group =>   1
Atom   8Au   basis set group =>   1
Atom   9Au   basis set group =>   1
Atom  10Au   basis set group =>   1
Atom  11Au   basis set group =>   1
Atom  12Au   basis set group =>   1
Atom  13Au   basis set group =>   1
Atom  14Au   basis set group =>   1
Atom  15Au   basis set group =>   1
Atom  16Cr   basis set group =>   2
-------------------------
ECP PARAMETER INFORMATION
-------------------------

 Group 1, Type Au ECP Def2-ECP (replacing 60 core electrons, lmax=3)

Atom   0Au   ECP group =>   1
Atom   1Au   ECP group =>   1
Atom   2Au   ECP group =>   1
Atom   3Au   ECP group =>   1
Atom   4Au   ECP group =>   1
Atom   5Au   ECP group =>   1
Atom   6Au   ECP group =>   1
Atom   7Au   ECP group =>   1
Atom   8Au   ECP group =>   1
Atom   9Au   ECP group =>   1
Atom  10Au   ECP group =>   1
Atom  11Au   ECP group =>   1
Atom  12Au   ECP group =>   1
Atom  13Au   ECP group =>   1
Atom  14Au   ECP group =>   1
Atom  15Au   ECP group =>   1



           ************************************************************
           *        Program running with 2 parallel MPI-processes     *
           *              working on a common directory               *
           ************************************************************
------------------------------------------------------------------------------
                           ORCA GTO INTEGRAL CALCULATION
                           -- RI-GTO INTEGRALS CHOSEN --
------------------------------------------------------------------------------
------------------------------------------------------------------------------
                   ___                                                        
                  /   \      - P O W E R E D   B Y -                         
                 /     \                                                     
                 |  |  |   _    _      __       _____    __    __             
                 |  |  |  | |  | |    /  \     |  _  \  |  |  /  |          
                  \  \/   | |  | |   /    \    | | | |  |  | /  /          
                 / \  \   | |__| |  /  /\  \   | |_| |  |  |/  /          
                |  |  |   |  __  | /  /__\  \  |    /   |      \           
                |  |  |   | |  | | |   __   |  |    \   |  |\   \          
                \     /   | |  | | |  |  |  |  | |\  \  |  | \   \       
                 \___/    |_|  |_| |__|  |__|  |_| \__\ |__|  \__/        
                                                                              
                      - O R C A' S   B I G   F R I E N D -                    
                                      &                                       
                       - I N T E G R A L  F E E D E R -                       
                                                                              
 v1 FN, 2020, v2 2021                                                         
------------------------------------------------------------------------------


Reading SHARK input file casscf.SHARKINP.tmp ... ok
----------------------
SHARK INTEGRAL PACKAGE
----------------------

Number of atoms                             ...     17
Number of basis functions                   ...    685
Number of shells                            ...    239
Maximum angular momentum                    ...      3
Integral batch strategy                     ... SHARK/LIBINT Hybrid
RI-J (if used) integral strategy            ... SPLIT-RIJ (Revised 2003 algorithm where possible)
Printlevel                                  ...      1
Contraction scheme used                     ... SEGMENTED contraction
Coulomb Range Separation                    ... NOT USED
Exchange Range Separation                   ... NOT USED
Finite Nucleus Model                        ... NOT USED
Auxiliary Coulomb fitting basis             ... AVAILABLE
   # of basis functions in Aux-J            ...   1513
   # of shells in Aux-J                     ...    391
   Maximum angular momentum in Aux-J        ...      4
Auxiliary J/K fitting basis                 ... NOT available
Auxiliary Correlation fitting basis         ... AVAILABLE
   # of basis functions in Aux-C            ...   2598
   # of shells in Aux-C                     ...    566
   Maximum angular momentum in Aux-C        ...      5
Auxiliary 'external' fitting basis          ... NOT available
Integral threshold                          ...     1.000000e-10
Primitive cut-off                           ...     1.000000e-11
Primitive pair pre-selection threshold      ...     1.000000e-11

Calculating pre-screening integrals         ... done (  0.3 sec) Dimension = 239
Organizing shell pair data                  ... done (  0.4 sec)
Shell pair information
Total number of shell pairs                 ...     28680
Shell pairs after pre-screening             ...     22059
Total number of primitive shell pairs       ...     75765
Primitive shell pairs kept                  ...     41640
          la=0 lb=0:   3498 shell pairs
          la=1 lb=0:   5033 shell pairs
          la=1 lb=1:   1880 shell pairs
          la=2 lb=0:   4408 shell pairs
          la=2 lb=1:   3104 shell pairs
          la=2 lb=2:   1284 shell pairs
          la=3 lb=0:   1125 shell pairs
          la=3 lb=1:    852 shell pairs
          la=3 lb=2:    762 shell pairs
          la=3 lb=3:    113 shell pairs

Calculating one electron integrals          ... done (  0.1 sec)
Calculating ECP integrals                   ... done (  9.8 sec)
Calculating RI/J V-Matrix + Cholesky decomp.... done (  0.1 sec)
Calculating RI/C V-Matrix + Cholesky decomp.... done (  0.3 sec)
Calculating Nuclear repulsion               ... done (  0.0 sec) ENN=   6822.080665047631 Eh

SHARK setup successfully completed in  11.4 seconds

Maximum memory used throughout the entire GTOINT-calculation: 112.3 MB


           ************************************************************
           *        Program running with 2 parallel MPI-processes     *
           *              working on a common directory               *
           ************************************************************
-------------------------------------------------------------------------------
                                 ORCA SCF
-------------------------------------------------------------------------------

------------
SCF SETTINGS
------------
Hamiltonian:
 Ab initio Hamiltonian  Method          .... Hartree-Fock(GTOs)
 RI-approximation to the Coulomb term is turned on
   Number of AuxJ basis functions       .... 1513
   RIJ-COSX (HFX calculated with COS-X)).... on


General Settings:
 Integral files         IntName         .... casscf
 Hartree-Fock type      HFTyp           .... CASSCF
 Total Charge           Charge          ....    0
 Multiplicity           Mult            ....    5
 Number of Electrons    NEL             ....  328
 Basis Dimension        Dim             ....  685
 Nuclear Repulsion      ENuc            ....   6822.0806650476 Eh


Diagonalization of the overlap matrix:
Smallest eigenvalue                        ... 1.045e-04
Time for diagonalization                   ...    0.054 sec
Threshold for overlap eigenvalues          ... 1.000e-08
Number of eigenvalues below threshold      ... 0
Time for construction of square roots      ...    0.029 sec
Total time needed                          ...    0.084 sec

---------------------
INITIAL GUESS: MOREAD
---------------------
Guess MOs are being read from file: pbe.qro
Input Geometry matches current geometry (good)
Input basis set matches current basis set (good)
MOs were renormalized
Gram-Schmidt orthogonalization of all MOs with pivot on actives
                      ------------------
                      INITIAL GUESS DONE (   1.7 sec)
                      ------------------
--------------------
COSX GRID GENERATION
--------------------

GRIDX 1
-------
General Integration Accuracy     IntAcc      ... 3.816
Radial Grid Type                 RadialGrid  ... OptM3 with GC (2021)
Angular Grid (max. ang.)         AngularGrid ... 1 (Lebedev-50)
Angular grid pruning method      GridPruning ... 4 (adaptive)
Weight generation scheme         WeightScheme... Becke
Basis function cutoff            BFCut       ... 1.0000e-10
Integration weight cutoff        WCut        ... 1.0000e-14
Angular grids for H and He will be reduced by one unit
Partially contracted basis set               ... on
Rotationally invariant grid construction     ... off

Total number of grid points                  ...    19558
Total number of batches                      ...      313
Average number of points per batch           ...       62
Average number of grid points per atom       ...     1150
UseSFitting                                  ... on

GRIDX 2
-------
General Integration Accuracy     IntAcc      ... 4.020
Radial Grid Type                 RadialGrid  ... OptM3 with GC (2021)
Angular Grid (max. ang.)         AngularGrid ... 2 (Lebedev-110)
Angular grid pruning method      GridPruning ... 4 (adaptive)
Weight generation scheme         WeightScheme... Becke
Basis function cutoff            BFCut       ... 1.0000e-10
Integration weight cutoff        WCut        ... 1.0000e-14
Angular grids for H and He will be reduced by one unit
Partially contracted basis set               ... on
Rotationally invariant grid construction     ... off

Total number of grid points                  ...    59372
Total number of batches                      ...      936
Average number of points per batch           ...       63
Average number of grid points per atom       ...     3492
UseSFitting                                  ... on

GRIDX 3
-------
General Integration Accuracy     IntAcc      ... 4.338
Radial Grid Type                 RadialGrid  ... OptM3 with GC (2021)
Angular Grid (max. ang.)         AngularGrid ... 3 (Lebedev-194)
Angular grid pruning method      GridPruning ... 4 (adaptive)
Weight generation scheme         WeightScheme... Becke
Basis function cutoff            BFCut       ... 1.0000e-10
Integration weight cutoff        WCut        ... 1.0000e-14
Angular grids for H and He will be reduced by one unit
Partially contracted basis set               ... on
Rotationally invariant grid construction     ... off

Total number of grid points                  ...   107585
Total number of batches                      ...     1691
Average number of points per batch           ...       63
Average number of grid points per atom       ...     6329
UseSFitting                                  ... on

Time for X-Grid setup             =    2.316 sec



 ... the calculation is a CASSCF calculation -I'm leaving here GOOD LUCK!!!



           ************************************************************
           *        Program running with 2 parallel MPI-processes     *
           *              working on a common directory               *
           ************************************************************
-------------------------------------------------------------------------------
                              ORCA-CASSCF
-------------------------------------------------------------------------------

Setting up the integral package       ... done
Setting up the integral package (RI)  ... done
Building the CAS space                ... done (5 configurations for Mult=5)
Building the CAS space                ... done (35 configurations for Mult=3)

SYSTEM-SPECIFIC SETTINGS:
Number of active electrons          ...    6
Number of active orbitals           ...    5
Total number of electrons           ...  328
Total number of orbitals            ...  685
Total number aux. functions         ... 2598

Determined orbital ranges:
   Internal       0 -  160 ( 161 orbitals)
   Active       161 -  165 (   5 orbitals)
   External     166 -  684 ( 519 orbitals)
Number of rotation parameters      ...  86959

CI-STEP:
CI strategy                         ... General CI
Number of multiplicity blocks       ...    2
BLOCK  1 WEIGHT=   0.5000
  Multiplicity                      ...    5
  #(Configurations)                 ...    5
  #(CSFs)                           ...    5
  #(Roots)                          ...    5
    ROOT=0 WEIGHT=    0.100000
    ROOT=1 WEIGHT=    0.100000
    ROOT=2 WEIGHT=    0.100000
    ROOT=3 WEIGHT=    0.100000
    ROOT=4 WEIGHT=    0.100000

BLOCK  2 WEIGHT=   0.5000
  Multiplicity                      ...    3
  #(Configurations)                 ...   35
  #(CSFs)                           ...   45
  #(Roots)                          ...   45
    ROOT=0 WEIGHT=    0.011111
    ROOT=1 WEIGHT=    0.011111
    ROOT=2 WEIGHT=    0.011111
    ROOT=3 WEIGHT=    0.011111
    ROOT=4 WEIGHT=    0.011111
    ROOT=5 WEIGHT=    0.011111
    ROOT=6 WEIGHT=    0.011111
    ROOT=7 WEIGHT=    0.011111
    ROOT=8 WEIGHT=    0.011111
    ROOT=9 WEIGHT=    0.011111
    ROOT=10 WEIGHT=    0.011111
    ROOT=11 WEIGHT=    0.011111
    ROOT=12 WEIGHT=    0.011111
    ROOT=13 WEIGHT=    0.011111
    ROOT=14 WEIGHT=    0.011111
    ROOT=15 WEIGHT=    0.011111
    ROOT=16 WEIGHT=    0.011111
    ROOT=17 WEIGHT=    0.011111
    ROOT=18 WEIGHT=    0.011111
    ROOT=19 WEIGHT=    0.011111
    ROOT=20 WEIGHT=    0.011111
    ROOT=21 WEIGHT=    0.011111
    ROOT=22 WEIGHT=    0.011111
    ROOT=23 WEIGHT=    0.011111
    ROOT=24 WEIGHT=    0.011111
    ROOT=25 WEIGHT=    0.011111
    ROOT=26 WEIGHT=    0.011111
    ROOT=27 WEIGHT=    0.011111
    ROOT=28 WEIGHT=    0.011111
    ROOT=29 WEIGHT=    0.011111
    ROOT=30 WEIGHT=    0.011111
    ROOT=31 WEIGHT=    0.011111
    ROOT=32 WEIGHT=    0.011111
    ROOT=33 WEIGHT=    0.011111
    ROOT=34 WEIGHT=    0.011111
    ROOT=35 WEIGHT=    0.011111
    ROOT=36 WEIGHT=    0.011111
    ROOT=37 WEIGHT=    0.011111
    ROOT=38 WEIGHT=    0.011111
    ROOT=39 WEIGHT=    0.011111
    ROOT=40 WEIGHT=    0.011111
    ROOT=41 WEIGHT=    0.011111
    ROOT=42 WEIGHT=    0.011111
    ROOT=43 WEIGHT=    0.011111
    ROOT=44 WEIGHT=    0.011111

  PrintLevel                        ...    1
  N(GuessMat)                       ...       512
  MaxDim(CI)                        ...        10
  MaxIter(CI)                       ...        64
  Energy Tolerance CI               ...  1.00e-08
  Residual Tolerance CI             ...  1.00e-08
  Shift(CI)                         ...  1.00e-04

INTEGRAL-TRANSFORMATION-STEP:
  Algorithm                         ... RI-MO

ORBITAL-IMPROVEMENT-STEP:
  Algorithm                         ... SuperCI(PT)
  Default Parametrization           ... CAYLEY
  Act-Act rotations                 ... depends on algorithm used

  Note: SuperCI(PT) will ignore FreezeIE, FreezeAct and FreezeGrad. In general Default settings are encouraged.
        In conjunction with ShiftUp, ShiftDn or GradScaling the performance of SuperCI(PT) is less optimal.  

  MaxRot                            ... 2.00e-01 
  Max. no of vectors (DIIS)         ... 15
  DThresh (cut-off) metric          ... 1.00e-06
  Switch step at gradient           ...  3.00e-02 
  Switch step at iteration          ...        50   
  Switch step to                    ... SuperCI(PT)    

SCF-SETTINGS:
  Incremental                       ... off
  RIJCOSX approximation             ... on
  UseFinalGrid                      ... on
  RI-JK approximation               ... off
  AO integral handling              ... DIRECT
  Integral Neglect Thresh           ...  1.00e-10
  Primitive cutoff TCut             ...  1.00e-11
  Energy convergence tolerance      ...  1.00e-07
  Orbital gradient convergence      ...  1.00e-03
  Max. number of iterations         ...        75  


FINAL ORBITALS:
  Active   Orbitals                 ... natural 
  Internal Orbitals                 ... canonical 
  External Orbitals                 ... canonical 

------------------
CAS-SCF ITERATIONS
------------------


MACRO-ITERATION   1: 
   --- Inactive Energy E0 = -3193.03625942 Eh
CI-ITERATION   0: 
 -3199.830964378   0.000000000000 (    0.00)
 -3199.532254851   0.000000000000
 -3199.509842737   0.000000000000
 -3199.489239186   0.000000000000
 -3199.459799324   0.000000000000
   CI-PROBLEM SOLVED
   DENSITIES MADE
CI-ITERATION   0: 
 -3199.760791738   0.000000000000 (    0.00)
 -3199.759528408   0.000000000000
 -3199.759346891   0.000000000000
 -3199.759313541   0.000000000000
 -3199.752341857   0.000000000000
 -3199.751586110   0.000000000000
 -3199.750414572   0.000000000000
 -3199.744515954   0.000000000000
 -3199.735237166   0.000000000000
 -3199.731571997   0.000000000000
 -3199.730607958   0.000000000000
 -3199.708868493   0.000000000000
 -3199.699111005   0.000000000000
 -3199.692658163   0.000000000000
 -3199.686394406   0.000000000000
 -3199.524797878   0.000000000000
 -3199.506125336   0.000000000000
 -3199.503558704   0.000000000000
 -3199.487321189   0.000000000000
 -3199.486262737   0.000000000000
 -3199.483218842   0.000000000000
 -3199.482149470   0.000000000000
 -3199.480140105   0.000000000000
 -3199.472422764   0.000000000000
 -3199.454248750   0.000000000000
 -3199.450897448   0.000000000000
 -3199.448387410   0.000000000000
 -3199.444980051   0.000000000000
 -3199.441494528   0.000000000000
 -3199.433026270   0.000000000000
 -3199.428639111   0.000000000000
 -3199.418678735   0.000000000000
 -3199.401371629   0.000000000000
 -3199.397047511   0.000000000000
 -3199.394344096   0.000000000000
 -3199.361110111   0.000000000000
 -3199.336666378   0.000000000000
 -3199.312771342   0.000000000000
 -3199.297488697   0.000000000000
 -3198.854510756   0.000000000000
 -3198.812213629   0.000000000000
 -3198.778182776   0.000000000000
 -3198.774430117   0.000000000000
 -3198.705047096   0.000000000000
 -3198.669255807   0.000000000000
   CI-PROBLEM SOLVED
   DENSITIES MADE

                 <<<<<<<<<<<<<<<<<<INITIAL CI STATE CHECK>>>>>>>>>>>>>>>>>>

BLOCK  1 MULT= 5 NROOTS= 5 
ROOT   0:  E=   -3199.8309643779 Eh
      0.99945 [     4]: 21111
ROOT   1:  E=   -3199.5322548507 Eh  8.128 eV  65559.2 cm**-1
      0.75716 [     3]: 12111
      0.13866 [     2]: 11211
      0.10413 [     0]: 11112
ROOT   2:  E=   -3199.5098427368 Eh  8.738 eV  70478.1 cm**-1
      0.99896 [     1]: 11121
ROOT   3:  E=   -3199.4892391862 Eh  9.299 eV  75000.0 cm**-1
      0.52373 [     2]: 11211
      0.23995 [     3]: 12111
      0.23553 [     0]: 11112
ROOT   4:  E=   -3199.4597993243 Eh 10.100 eV  81461.3 cm**-1
      0.66011 [     0]: 11112
      0.33633 [     2]: 11211
      0.00282 [     3]: 12111

BLOCK  2 MULT= 3 NROOTS=45 
ROOT   0:  E=   -3199.7607917382 Eh
      0.78511 [    28]: 21111
      0.06380 [    34]: 22110
      0.04435 [    32]: 22011
      0.03409 [    25]: 21012
      0.03399 [    31]: 21210
      0.01954 [    22]: 20112
      0.01649 [    24]: 20211
ROOT   1:  E=   -3199.7595284083 Eh  0.034 eV    277.3 cm**-1
      0.30641 [    34]: 22110
      0.19275 [    31]: 21210
      0.17342 [    25]: 21012
      0.15327 [    28]: 21111
      0.11884 [    22]: 20112
      0.03343 [    32]: 22011
      0.02104 [    24]: 20211
ROOT   2:  E=   -3199.7593468913 Eh  0.039 eV    317.1 cm**-1
      0.45537 [    28]: 21111
      0.17155 [    32]: 22011
      0.14180 [    31]: 21210
      0.09334 [    25]: 21012
      0.07774 [    24]: 20211
      0.01507 [    30]: 21201
      0.01440 [    26]: 21021
      0.00789 [    29]: 21120
      0.00612 [    27]: 21102
      0.00610 [    34]: 22110
      0.00556 [    33]: 22101
      0.00311 [    22]: 20112
ROOT   3:  E=   -3199.7593135405 Eh  0.040 eV    324.4 cm**-1
      0.25725 [    30]: 21201
      0.24526 [    26]: 21021
      0.15809 [    33]: 22101
      0.13395 [    29]: 21120
      0.10561 [    27]: 21102
      0.04731 [    23]: 20121
      0.02873 [    28]: 21111
      0.00851 [    31]: 21210
      0.00591 [    32]: 22011
      0.00567 [    25]: 21012
      0.00289 [    24]: 20211
ROOT   4:  E=   -3199.7523418573 Eh  0.230 eV   1854.5 cm**-1
      0.57380 [    33]: 22101
      0.16312 [    29]: 21120
      0.12048 [    23]: 20121
      0.10126 [    26]: 21021
      0.04006 [    27]: 21102
ROOT   5:  E=   -3199.7515861100 Eh  0.250 eV   2020.4 cm**-1
      0.27287 [    29]: 21120
      0.26882 [    27]: 21102
      0.21538 [    30]: 21201
      0.19323 [    26]: 21021
      0.02657 [    33]: 22101
      0.02045 [    23]: 20121
ROOT   6:  E=   -3199.7504145725 Eh  0.282 eV   2277.5 cm**-1
      0.36543 [    28]: 21111
      0.26865 [    34]: 22110
      0.16342 [    32]: 22011
      0.15912 [    25]: 21012
      0.01880 [    24]: 20211
      0.01692 [    22]: 20112
      0.00595 [    31]: 21210
ROOT   7:  E=   -3199.7445159540 Eh  0.443 eV   3572.1 cm**-1
      0.88117 [    28]: 21111
      0.04777 [    31]: 21210
      0.02554 [    25]: 21012
      0.02074 [    24]: 20211
      0.00908 [    34]: 22110
      0.00801 [    22]: 20112
      0.00720 [    32]: 22011
ROOT   8:  E=   -3199.7352371656 Eh  0.695 eV   5608.6 cm**-1
      0.32396 [    32]: 22011
      0.26607 [    28]: 21111
      0.17448 [    34]: 22110
      0.10305 [    24]: 20211
      0.06250 [    25]: 21012
      0.05851 [    31]: 21210
      0.01042 [    22]: 20112
ROOT   9:  E=   -3199.7315719971 Eh  0.795 eV   6413.0 cm**-1
      0.28249 [    30]: 21201
      0.22648 [    27]: 21102
      0.21465 [    26]: 21021
      0.20465 [    23]: 20121
      0.07060 [    29]: 21120
ROOT  10:  E=   -3199.7306079576 Eh  0.821 eV   6624.6 cm**-1
      0.34638 [    31]: 21210
      0.30875 [    22]: 20112
      0.21289 [    25]: 21012
      0.05519 [    24]: 20211
      0.05246 [    28]: 21111
      0.01451 [    34]: 22110
      0.00852 [    32]: 22011
ROOT  11:  E=   -3199.7088684932 Eh  1.413 eV  11395.8 cm**-1
      0.23616 [    27]: 21102
      0.23444 [    29]: 21120
      0.22677 [    26]: 21021
      0.21500 [    30]: 21201
      0.05563 [    23]: 20121
      0.03105 [    33]: 22101
ROOT  12:  E=   -3199.6991110047 Eh  1.678 eV  13537.4 cm**-1
      0.54869 [    23]: 20121
      0.20376 [    33]: 22101
      0.11589 [    29]: 21120
      0.11534 [    27]: 21102
      0.01267 [    30]: 21201
ROOT  13:  E=   -3199.6926581635 Eh  1.854 eV  14953.6 cm**-1
      0.38315 [    24]: 20211
      0.16588 [    32]: 22011
      0.16282 [    25]: 21012
      0.13078 [    31]: 21210
      0.10867 [    22]: 20112
      0.04453 [    34]: 22110
      0.00292 [    28]: 21111
ROOT  14:  E=   -3199.6863944060 Eh  2.024 eV  16328.3 cm**-1
      0.40513 [    22]: 20112
      0.29989 [    24]: 20211
      0.11177 [    34]: 22110
      0.07472 [    32]: 22011
      0.06923 [    25]: 21012
      0.03240 [    31]: 21210
      0.00641 [    28]: 21111
ROOT  15:  E=   -3199.5247978777 Eh  6.422 eV  51794.7 cm**-1
      0.76519 [    18]: 12111
      0.13256 [    13]: 11211
      0.10021 [    10]: 11112
ROOT  16:  E=   -3199.5061253358 Eh  6.930 eV  55892.8 cm**-1
      0.41152 [    19]: 12120
      0.24462 [    16]: 12021
      0.19790 [    11]: 11121
      0.10625 [     9]: 11022
      0.01099 [    14]: 11220
      0.00909 [    17]: 12102
      0.00659 [    20]: 12201
      0.00480 [    12]: 11202
      0.00425 [     6]: 10122
ROOT  17:  E=   -3199.5035587041 Eh  7.000 eV  56456.1 cm**-1
      0.99248 [    11]: 11121
      0.00348 [    19]: 12120
ROOT  18:  E=   -3199.4873211893 Eh  7.442 eV  60019.8 cm**-1
      0.31555 [    19]: 12120
      0.24472 [    11]: 11121
      0.16331 [    16]: 12021
      0.14996 [     9]: 11022
      0.06110 [    20]: 12201
      0.03939 [    17]: 12102
      0.01242 [     6]: 10122
      0.01038 [    14]: 11220
ROOT  19:  E=   -3199.4862627367 Eh  7.470 eV  60252.2 cm**-1
      0.59673 [    18]: 12111
      0.27027 [    21]: 12210
      0.08331 [    13]: 11211
      0.01879 [    15]: 12012
      0.01505 [     7]: 10212
      0.01373 [    10]: 11112
ROOT  20:  E=   -3199.4832188421 Eh  7.553 eV  60920.2 cm**-1
      0.52670 [    13]: 11211
      0.23493 [    18]: 12111
      0.22841 [    10]: 11112
      0.00590 [    15]: 12012
ROOT  21:  E=   -3199.4821494698 Eh  7.582 eV  61154.9 cm**-1
      0.35528 [    18]: 12111
      0.25141 [    21]: 12210
      0.17260 [    15]: 12012
      0.12790 [    10]: 11112
      0.08921 [    13]: 11211
ROOT  22:  E=   -3199.4801401054 Eh  7.637 eV  61595.9 cm**-1
      0.44136 [    11]: 11121
      0.28674 [    14]: 11220
      0.20356 [    16]: 12021
      0.03831 [    19]: 12120
      0.01375 [     6]: 10122
      0.00606 [    20]: 12201
      0.00602 [    12]: 11202
ROOT  23:  E=   -3199.4724227644 Eh  7.847 eV  63289.7 cm**-1
      0.46080 [    18]: 12111
      0.16948 [    21]: 12210
      0.13353 [    15]: 12012
      0.12540 [    10]: 11112
      0.10375 [    13]: 11211
      0.00439 [     7]: 10212
ROOT  24:  E=   -3199.4542487500 Eh  8.341 eV  67278.4 cm**-1
      0.66491 [    10]: 11112
      0.32805 [    13]: 11211
      0.00369 [    18]: 12111
ROOT  25:  E=   -3199.4508974477 Eh  8.433 eV  68013.9 cm**-1
      0.23455 [    16]: 12021
      0.19043 [    14]: 11220
      0.15461 [     8]: 10221
      0.13101 [     6]: 10122
      0.11351 [    11]: 11121
      0.11256 [     9]: 11022
      0.04563 [    19]: 12120
      0.01144 [    17]: 12102
      0.00466 [    12]: 11202
ROOT  26:  E=   -3199.4483874100 Eh  8.501 eV  68564.8 cm**-1
      0.42841 [    10]: 11112
      0.21949 [    21]: 12210
      0.17593 [    18]: 12111
      0.13842 [    15]: 12012
      0.02990 [    13]: 11211
      0.00551 [     7]: 10212
ROOT  27:  E=   -3199.4449800513 Eh  8.594 eV  69312.7 cm**-1
      0.34338 [    11]: 11121
      0.16492 [    14]: 11220
      0.14755 [     9]: 11022
      0.09410 [    17]: 12102
      0.06949 [    20]: 12201
      0.06431 [    19]: 12120
      0.05100 [     6]: 10122
      0.04201 [    12]: 11202
      0.01639 [     8]: 10221
      0.00480 [    16]: 12021
ROOT  28:  E=   -3199.4414945275 Eh  8.689 eV  70077.6 cm**-1
      0.54381 [    20]: 12201
      0.18466 [    17]: 12102
      0.08774 [    11]: 11121
      0.07504 [    12]: 11202
      0.05968 [     9]: 11022
      0.03762 [     8]: 10221
      0.00537 [    19]: 12120
ROOT  29:  E=   -3199.4330262700 Eh  8.919 eV  71936.2 cm**-1
      0.49792 [    13]: 11211
      0.23880 [    10]: 11112
      0.21106 [    18]: 12111
      0.03989 [    21]: 12210
      0.00942 [    15]: 12012
ROOT  30:  E=   -3199.4286391112 Eh  9.038 eV  72899.1 cm**-1
      0.34328 [    17]: 12102
      0.22705 [    20]: 12201
      0.14978 [    12]: 11202
      0.06084 [     9]: 11022
      0.05811 [    11]: 11121
      0.05167 [    14]: 11220
      0.04494 [     6]: 10122
      0.03283 [    19]: 12120
      0.01940 [     8]: 10221
      0.01031 [    16]: 12021
ROOT  31:  E=   -3199.4186787346 Eh  9.309 eV  75085.1 cm**-1
      0.66051 [    13]: 11211
      0.24322 [    15]: 12012
      0.04318 [    10]: 11112
      0.03234 [    18]: 12111
      0.01861 [     7]: 10212
ROOT  32:  E=   -3199.4013716286 Eh  9.780 eV  78883.6 cm**-1
      0.30655 [    11]: 11121
      0.24689 [     6]: 10122
      0.14987 [    14]: 11220
      0.12421 [    12]: 11202
      0.08532 [     9]: 11022
      0.03833 [     8]: 10221
      0.03388 [    17]: 12102
      0.01143 [    20]: 12201
ROOT  33:  E=   -3199.3970475106 Eh  9.898 eV  79832.6 cm**-1
      0.30754 [    10]: 11112
      0.23884 [     7]: 10212
      0.21490 [    13]: 11211
      0.11215 [    15]: 12012
      0.11160 [    18]: 12111
      0.01402 [    21]: 12210
ROOT  34:  E=   -3199.3943440963 Eh  9.972 eV  80426.0 cm**-1
      0.50599 [    10]: 11112
      0.30440 [    13]: 11211
      0.08605 [     7]: 10212
      0.06138 [    15]: 12012
      0.03717 [    18]: 12111
ROOT  35:  E=   -3199.3611101114 Eh 10.876 eV  87720.0 cm**-1
      0.42970 [     8]: 10221
      0.15111 [     9]: 11022
      0.13286 [    16]: 12021
      0.08384 [    11]: 11121
      0.06104 [    20]: 12201
      0.04836 [    19]: 12120
      0.04263 [    17]: 12102
      0.03188 [     6]: 10122
      0.01491 [    14]: 11220
      0.00310 [    12]: 11202
ROOT  36:  E=   -3199.3366663777 Eh 11.541 eV  93084.8 cm**-1
      0.58499 [    12]: 11202
      0.21343 [    17]: 12102
      0.06936 [     9]: 11022
      0.06432 [    14]: 11220
      0.03467 [    11]: 11121
      0.02682 [     6]: 10122
ROOT  37:  E=   -3199.3127713416 Eh 12.191 eV  98329.1 cm**-1
      0.43380 [     6]: 10122
      0.29969 [     8]: 10221
      0.08906 [    11]: 11121
      0.05408 [     9]: 11022
      0.05278 [    14]: 11220
      0.02919 [    19]: 12120
      0.02646 [    17]: 12102
      0.01039 [    20]: 12201
      0.00284 [    12]: 11202
ROOT  38:  E=   -3199.2974886969 Eh 12.607 eV 101683.3 cm**-1
      0.62735 [     7]: 10212
      0.20889 [    10]: 11112
      0.10110 [    15]: 12012
      0.02871 [    21]: 12210
      0.02350 [    13]: 11211
      0.00867 [    18]: 12111
ROOT  39:  E=   -3198.8545107558 Eh 24.661 eV 198905.7 cm**-1
      0.72523 [     4]: 02121
      0.16860 [     0]: 01122
      0.10382 [     2]: 01221
ROOT  40:  E=   -3198.8122136292 Eh 25.812 eV 208188.8 cm**-1
      0.69614 [     5]: 02211
      0.29716 [     3]: 02112
      0.00444 [     1]: 01212
ROOT  41:  E=   -3198.7781827761 Eh 26.738 eV 215657.7 cm**-1
      0.52703 [     2]: 01221
      0.25069 [     4]: 02121
      0.22040 [     0]: 01122
ROOT  42:  E=   -3198.7744301166 Eh 26.840 eV 216481.4 cm**-1
      0.50182 [     3]: 02112
      0.25120 [     5]: 02211
      0.24404 [     1]: 01212
ROOT  43:  E=   -3198.7050470957 Eh 28.728 eV 231709.2 cm**-1
      0.60808 [     0]: 01122
      0.36701 [     2]: 01221
      0.02170 [     4]: 02121
ROOT  44:  E=   -3198.6692558068 Eh 29.702 eV 239564.4 cm**-1
      0.74777 [     1]: 01212
      0.19896 [     3]: 02112
      0.04942 [     5]: 02211

                 <<<<<<<<<<<<<<<<<<INITIAL CI STATE CHECK>>>>>>>>>>>>>>>>>>

   E(CAS)= -3199.505133131 Eh DE=    0.000000e+00
   --- Energy gap subspaces: Ext-Act = 0.114   Act-Int = -0.008
   N(occ)=  1.20000 1.20000 1.20000 1.20000 1.20000
   ||g|| =     3.140917e+00 Max(G)=    5.961365e-01 Rot=166,160
   --- Orbital Update [SuperCI(PT)]
   --- Canonicalize Internal Space
   --- Canonicalize External Space
   --- SX_PT (Skipped TA=0 IT=0): ||X|| =      2.889486895 Max(X)(167,162) =      1.377311333 
   --- SFit(Active Orbitals)

MACRO-ITERATION   2: 
   --- Inactive Energy E0 = -3190.91533127 Eh
CI-ITERATION   0: 
 -3199.231921886   0.000000000000 (    0.00)
 -3199.100145927   0.000000000000
 -3199.047407594   0.000000000000
 -3198.971348736   0.000000000000
 -3198.620403243   0.000000000000
   CI-PROBLEM SOLVED
   DENSITIES MADE
CI-ITERATION   0: 
 -3199.460252208   0.000000000000 (    0.00)
 -3199.446458741   0.000000000000
 -3199.391890184   0.000000000000
 -3199.343862337   0.000000000000
 -3199.290845387   0.000000000000
 -3199.285712345   0.000000000000
 -3199.269361391   0.000000000000
 -3199.237626012   0.000000000000
 -3199.223213659   0.000000000000
 -3199.209571526   0.000000000000
 -3199.204108544   0.000000000000
 -3199.195915506   0.000000000000
 -3199.148945236   0.000000000000
 -3199.136953056   0.000000000000
 -3199.126059718   0.000000000000
 -3199.080753432   0.000000000000
 -3199.076639750   0.000000000000
 -3199.067803314   0.000000000000
 -3199.053083774   0.000000000000
 -3199.029173208   0.000000000000
 -3199.014180655   0.000000000000
 -3199.006590993   0.000000000000
 -3198.986911613   0.000000000000
 -3198.952924136   0.000000000000
 -3198.936829891   0.000000000000
 -3198.926235859   0.000000000000
 -3198.891613260   0.000000000000
 -3198.853543808   0.000000000000
 -3198.844297365   0.000000000000
 -3198.802465758   0.000000000000
 -3198.764455934   0.000000000000
 -3198.744680115   0.000000000000
 -3198.732084695   0.000000000000
 -3198.681929096   0.000000000000
 -3198.672330192   0.000000000000
 -3198.639855337   0.000000000000
 -3198.584655140   0.000000000000
 -3198.580751140   0.000000000000
 -3198.568167634   0.000000000000
 -3198.494001553   0.000000000000
 -3198.482912699   0.000000000000
 -3198.398985347   0.000000000000
 -3198.379620034   0.000000000000
 -3198.293833978   0.000000000000
 -3198.194262364   0.000000000000
   CI-PROBLEM SOLVED
   DENSITIES MADE
   E(CAS)= -3198.960526604 Eh DE=    5.446065e-01
   --- Energy gap subspaces: Ext-Act = -0.437   Act-Int = -0.389
   N(occ)=  1.20000 1.20000 1.20000 1.20000 1.20000
   ||g|| =     4.475892e+00 Max(G)=    7.918029e-01 Rot=167,162
   --- Orbital Update [SuperCI(PT)]
   --- Canonicalize Internal Space
   --- Canonicalize External Space
   --- SX_PT (Skipped TA=0 IT=0): ||X|| =     25.048233146 Max(X)(164,124) =     18.153243083 
   --- SFit(Active Orbitals)

MACRO-ITERATION   3: 
   --- Inactive Energy E0 = -3191.56111727 Eh
CI-ITERATION   0: 
 -3199.551493026   0.000000000000 (    0.00)
 -3199.472442376   0.000000000000
 -3199.449425996   0.000000000000
 -3199.407821548   0.000000000000
 -3199.118872185   0.000000000000
   CI-PROBLEM SOLVED
   DENSITIES MADE
CI-ITERATION   0: 
 -3199.650092363   0.000000000000 (    0.00)
 -3199.643252815   0.000000000000
 -3199.619159201   0.000000000000
 -3199.591840387   0.000000000000
 -3199.559116234   0.000000000000
 -3199.553164783   0.000000000000
 -3199.547170942   0.000000000000
 -3199.532857011   0.000000000000
 -3199.527948655   0.000000000000
 -3199.518822605   0.000000000000
 -3199.514502278   0.000000000000
 -3199.509534658   0.000000000000
 -3199.486668640   0.000000000000
 -3199.473459790   0.000000000000
 -3199.472556147   0.000000000000
 -3199.452781536   0.000000000000
 -3199.451097559   0.000000000000
 -3199.435835196   0.000000000000
 -3199.429969100   0.000000000000
 -3199.420722416   0.000000000000
 -3199.412889783   0.000000000000
 -3199.402122649   0.000000000000
 -3199.390407854   0.000000000000
 -3199.389557481   0.000000000000
 -3199.370499432   0.000000000000
 -3199.359416212   0.000000000000
 -3199.313283136   0.000000000000
 -3199.303150634   0.000000000000
 -3199.260686128   0.000000000000
 -3199.245662395   0.000000000000
 -3199.209576127   0.000000000000
 -3199.195036329   0.000000000000
 -3199.173202181   0.000000000000
 -3199.146181339   0.000000000000
 -3199.122675676   0.000000000000
 -3199.094993800   0.000000000000
 -3199.077009795   0.000000000000
 -3199.073788908   0.000000000000
 -3199.060641181   0.000000000000
 -3199.021888108   0.000000000000
 -3199.017697351   0.000000000000
 -3198.972106203   0.000000000000
 -3198.942933804   0.000000000000
 -3198.896520792   0.000000000000
 -3198.843477139   0.000000000000
   CI-PROBLEM SOLVED
   DENSITIES MADE
   E(CAS)= -3199.363182810 Eh DE=   -4.026562e-01
   --- Energy gap subspaces: Ext-Act = -0.192   Act-Int = -0.261
   N(occ)=  1.20000 1.20000 1.20000 1.20000 1.20000
   ||g|| =     3.095977e+00 Max(G)=    5.876179e-01 Rot=167,162
   --- Orbital Update [SuperCI(PT)]
   --- Canonicalize Internal Space
   --- Canonicalize External Space
   --- SX_PT (Skipped TA=0 IT=0): ||X|| =     13.033255945 Max(X)(167,161) =     -9.289037160 
   --- SFit(Active Orbitals)

MACRO-ITERATION   4: 
   --- Inactive Energy E0 = -3192.12157468 Eh
CI-ITERATION   0: 
 -3199.714607045   0.000000000000 (    0.00)
 -3199.665424754   0.000000000000
 -3199.653599966   0.000000000000
 -3199.635766202   0.000000000000
 -3199.437073439   0.000000000000
   CI-PROBLEM SOLVED
   DENSITIES MADE
CI-ITERATION   0: 
 -3199.712604474   0.000000000000 (    0.00)
 -3199.705168898   0.000000000000
 -3199.694377503   0.000000000000
 -3199.686663546   0.000000000000
 -3199.673692497   0.000000000000
 -3199.671127507   0.000000000000
 -3199.670796475   0.000000000000
 -3199.666086578   0.000000000000
 -3199.662414455   0.000000000000
 -3199.657840555   0.000000000000
 -3199.654969048   0.000000000000
 -3199.651037462   0.000000000000
 -3199.648127695   0.000000000000
 -3199.643132813   0.000000000000
 -3199.638294078   0.000000000000
 -3199.635620874   0.000000000000
 -3199.621741358   0.000000000000
 -3199.620221168   0.000000000000
 -3199.614564996   0.000000000000
 -3199.613286952   0.000000000000
 -3199.610404234   0.000000000000
 -3199.605108943   0.000000000000
 -3199.595288487   0.000000000000
 -3199.591687382   0.000000000000
 -3199.589165907   0.000000000000
 -3199.576462877   0.000000000000
 -3199.544317964   0.000000000000
 -3199.533734240   0.000000000000
 -3199.514582891   0.000000000000
 -3199.480987423   0.000000000000
 -3199.474949600   0.000000000000
 -3199.461228572   0.000000000000
 -3199.450874603   0.000000000000
 -3199.418182916   0.000000000000
 -3199.405649166   0.000000000000
 -3199.397549707   0.000000000000
 -3199.391474072   0.000000000000
 -3199.387326767   0.000000000000
 -3199.373741220   0.000000000000
 -3199.362003533   0.000000000000
 -3199.343366798   0.000000000000
 -3199.326928115   0.000000000000
 -3199.294480774   0.000000000000
 -3199.259035896   0.000000000000
 -3199.238292019   0.000000000000
   CI-PROBLEM SOLVED
   DENSITIES MADE
   E(CAS)= -3199.581409285 Eh DE=   -2.182265e-01
   --- Energy gap subspaces: Ext-Act = -0.007   Act-Int = -0.135
   N(occ)=  1.20000 1.20000 1.20000 1.20000 1.20000
   ||g|| =     2.070403e+00 Max(G)=    4.032491e-01 Rot=167,162
   --- Orbital Update [SuperCI(PT)]
   --- Canonicalize Internal Space
   --- Canonicalize External Space
   --- SX_PT (Skipped TA=0 IT=0): ||X|| =      1.691196321 Max(X)(166,159) =      0.864120037 
   --- SFit(Active Orbitals)

MACRO-ITERATION   5: 
   --- Inactive Energy E0 = -3193.14351673 Eh
CI-ITERATION   0: 
 -3200.098893182   0.000000000000 (    0.00)
 -3200.002435154   0.000000000000
 -3199.980965328   0.000000000000
 -3199.977714591   0.000000000000
 -3199.964841648   0.000000000000
   CI-PROBLEM SOLVED
   DENSITIES MADE
CI-ITERATION   0: 
 -3200.048038321   0.000000000000 (    0.00)
 -3200.041881845   0.000000000000
 -3200.038034387   0.000000000000
 -3200.035125982   0.000000000000
 -3200.032637426   0.000000000000
 -3200.028815029   0.000000000000
 -3200.026651635   0.000000000000
 -3200.026090532   0.000000000000
 -3200.013566381   0.000000000000
 -3200.010687720   0.000000000000
 -3200.001644983   0.000000000000
 -3199.987541972   0.000000000000
 -3199.985499687   0.000000000000
 -3199.975123766   0.000000000000
 -3199.967197350   0.000000000000
 -3199.964821708   0.000000000000
 -3199.962438675   0.000000000000
 -3199.961122360   0.000000000000
 -3199.960535551   0.000000000000
 -3199.955024443   0.000000000000
 -3199.953961485   0.000000000000
 -3199.951959938   0.000000000000
 -3199.949500351   0.000000000000
 -3199.944613176   0.000000000000
 -3199.941569092   0.000000000000
 -3199.936808986   0.000000000000
 -3199.934788058   0.000000000000
 -3199.929462573   0.000000000000
 -3199.926695091   0.000000000000
 -3199.920027962   0.000000000000
 -3199.913286487   0.000000000000
 -3199.910719008   0.000000000000
 -3199.908311701   0.000000000000
 -3199.903500826   0.000000000000
 -3199.898264403   0.000000000000
 -3199.859479704   0.000000000000
 -3199.848914253   0.000000000000
 -3199.837540129   0.000000000000
 -3199.817937494   0.000000000000
 -3199.567508387   0.000000000000
 -3199.561667059   0.000000000000
 -3199.549238498   0.000000000000
 -3199.531854044   0.000000000000
 -3199.501017729   0.000000000000
 -3199.483209683   0.000000000000
   CI-PROBLEM SOLVED
   DENSITIES MADE
   E(CAS)= -3199.952532944 Eh DE=   -3.711237e-01
   --- Energy gap subspaces: Ext-Act = 0.244   Act-Int = 0.069
   N(occ)=  1.20000 1.20000 1.20000 1.20000 1.20000
   ||g|| =     1.019059e+00 Max(G)=    2.184805e-01 Rot=166,160
   --- Orbital Update [SuperCI(PT)]
   --- Canonicalize Internal Space
   --- Canonicalize External Space
   --- SX_PT (Skipped TA=0 IT=0): ||X|| =      0.481048970 Max(X)(163,159) =      0.109420948 
   --- SFit(Active Orbitals)

MACRO-ITERATION   6: 
   --- Inactive Energy E0 = -3192.38367832 Eh
CI-ITERATION   0: 
 -3200.118867135   0.000000000000 (    0.00)
 -3200.110630125   0.000000000000
 -3200.097685072   0.000000000000
 -3200.095660218   0.000000000000
 -3200.079781461   0.000000000000
   CI-PROBLEM SOLVED
   DENSITIES MADE
CI-ITERATION   0: 
 -3200.106156510   0.000000000000 (    0.00)
 -3200.088663106   0.000000000000
 -3200.087111698   0.000000000000
 -3200.079817336   0.000000000000
 -3200.074994876   0.000000000000
 -3200.073390044   0.000000000000
 -3200.070647548   0.000000000000
 -3200.068808274   0.000000000000
 -3200.062917081   0.000000000000
 -3200.060197491   0.000000000000
 -3200.057781088   0.000000000000
 -3200.054838484   0.000000000000
 -3200.053008184   0.000000000000
 -3200.047196237   0.000000000000
 -3200.046769354   0.000000000000
 -3200.043989564   0.000000000000
 -3200.040392119   0.000000000000
 -3200.039950579   0.000000000000
 -3200.036115289   0.000000000000
 -3200.034481877   0.000000000000
 -3200.031648794   0.000000000000
 -3200.030797301   0.000000000000
 -3200.028083813   0.000000000000
 -3200.027428540   0.000000000000
 -3200.024394151   0.000000000000
 -3200.022066754   0.000000000000
 -3200.015502032   0.000000000000
 -3200.014618422   0.000000000000
 -3200.006785680   0.000000000000
 -3199.998578120   0.000000000000
 -3199.997719121   0.000000000000
 -3199.991327848   0.000000000000
 -3199.973368353   0.000000000000
 -3199.970523381   0.000000000000
 -3199.968337343   0.000000000000
 -3199.966655288   0.000000000000
 -3199.961177074   0.000000000000
 -3199.945241109   0.000000000000
 -3199.930903007   0.000000000000
 -3199.779571148   0.000000000000
 -3199.775586911   0.000000000000
 -3199.757807512   0.000000000000
 -3199.745143539   0.000000000000
 -3199.712206493   0.000000000000
 -3199.692574972   0.000000000000
   CI-PROBLEM SOLVED
   DENSITIES MADE
   E(CAS)= -3200.045765439 Eh DE=   -9.323249e-02
   --- Energy gap subspaces: Ext-Act = 0.279   Act-Int = 0.078
   N(occ)=  1.20000 1.20000 1.20000 1.20000 1.20000
   ||g|| =     5.250203e-01 Max(G)=    1.059310e-01 Rot=167,162
   --- Orbital Update [SuperCI(PT)]
   --- Canonicalize Internal Space
   --- Canonicalize External Space
   --- SX_PT (Skipped TA=0 IT=0): ||X|| =      0.375588926 Max(X)(166,162) =      0.135433328 
   --- SFit(Active Orbitals)

MACRO-ITERATION   7: 
   --- Inactive Energy E0 = -3192.27610007 Eh
CI-ITERATION   0: 
 -3200.181116614   0.000000000000 (    0.00)
 -3200.156547303   0.000000000000
 -3200.137372713   0.000000000000
 -3200.134747468   0.000000000000
 -3200.121861541   0.000000000000
   CI-PROBLEM SOLVED
   DENSITIES MADE
CI-ITERATION   0: 
 -3200.147565140   0.000000000000 (    0.00)
 -3200.131702399   0.000000000000
 -3200.130046545   0.000000000000
 -3200.123846625   0.000000000000
 -3200.121159385   0.000000000000
 -3200.117768975   0.000000000000
 -3200.112679455   0.000000000000
 -3200.108573026   0.000000000000
 -3200.106355421   0.000000000000
 -3200.105326297   0.000000000000
 -3200.104421269   0.000000000000
 -3200.104090289   0.000000000000
 -3200.101202386   0.000000000000
 -3200.100351674   0.000000000000
 -3200.098751097   0.000000000000
 -3200.094543697   0.000000000000
 -3200.093353128   0.000000000000
 -3200.089754644   0.000000000000
 -3200.087295907   0.000000000000
 -3200.084620555   0.000000000000
 -3200.083372269   0.000000000000
 -3200.082041530   0.000000000000
 -3200.076045022   0.000000000000
 -3200.075269721   0.000000000000
 -3200.073167376   0.000000000000
 -3200.071445946   0.000000000000
 -3200.058831027   0.000000000000
 -3200.055826908   0.000000000000
 -3200.055408869   0.000000000000
 -3200.053839805   0.000000000000
 -3200.050468405   0.000000000000
 -3200.049092994   0.000000000000
 -3200.031129306   0.000000000000
 -3200.029940235   0.000000000000
 -3200.027742337   0.000000000000
 -3199.999967764   0.000000000000
 -3199.992479519   0.000000000000
 -3199.972739693   0.000000000000
 -3199.961631255   0.000000000000
 -3199.753458414   0.000000000000
 -3199.750274439   0.000000000000
 -3199.729486575   0.000000000000
 -3199.721975620   0.000000000000
 -3199.686627800   0.000000000000
 -3199.668954049   0.000000000000
   CI-PROBLEM SOLVED
   DENSITIES MADE
   E(CAS)= -3200.087327061 Eh DE=   -4.156162e-02
   --- Energy gap subspaces: Ext-Act = 0.290   Act-Int = 0.078
   N(occ)=  1.20000 1.20000 1.20000 1.20000 1.20000
   ||g|| =     4.342007e-01 Max(G)=    7.981361e-02 Rot=166,160
   --- Orbital Update [SuperCI(PT)]
   --- Canonicalize Internal Space
   --- Canonicalize External Space
   --- SX_PT (Skipped TA=0 IT=0): ||X|| =      0.269870211 Max(X)(166,162) =      0.082861865 
   --- SFit(Active Orbitals)

MACRO-ITERATION   8: 
   --- Inactive Energy E0 = -3191.50780443 Eh
CI-ITERATION   0: 
 -3200.227449912   0.000000000000 (    0.00)
 -3200.218378044   0.000000000000
 -3200.202380247   0.000000000000
 -3200.200621105   0.000000000000
 -3200.190809696   0.000000000000
   CI-PROBLEM SOLVED
   DENSITIES MADE
CI-ITERATION   0: 
 -3200.212997384   0.000000000000 (    0.00)
 -3200.196694086   0.000000000000
 -3200.195337523   0.000000000000
 -3200.188875824   0.000000000000
 -3200.169816932   0.000000000000
 -3200.168012088   0.000000000000
 -3200.166805261   0.000000000000
 -3200.163660669   0.000000000000
 -3200.157387200   0.000000000000
 -3200.156306310   0.000000000000
 -3200.155274496   0.000000000000
 -3200.154112480   0.000000000000
 -3200.148949280   0.000000000000
 -3200.148660693   0.000000000000
 -3200.144603304   0.000000000000
 -3200.142543431   0.000000000000
 -3200.141419914   0.000000000000
 -3200.136179369   0.000000000000
 -3200.133697813   0.000000000000
 -3200.132868627   0.000000000000
 -3200.131946225   0.000000000000
 -3200.129677199   0.000000000000
 -3200.126282580   0.000000000000
 -3200.122791029   0.000000000000
 -3200.120854126   0.000000000000
 -3200.119043732   0.000000000000
 -3200.110559936   0.000000000000
 -3200.109624540   0.000000000000
 -3200.108544238   0.000000000000
 -3200.105672324   0.000000000000
 -3200.101088308   0.000000000000
 -3200.083205537   0.000000000000
 -3200.056633724   0.000000000000
 -3200.052791961   0.000000000000
 -3200.049078323   0.000000000000
 -3200.045945635   0.000000000000
 -3200.042719838   0.000000000000
 -3200.017295390   0.000000000000
 -3200.014223153   0.000000000000
 -3199.781244022   0.000000000000
 -3199.781020666   0.000000000000
 -3199.769916856   0.000000000000
 -3199.762670238   0.000000000000
 -3199.725832136   0.000000000000
 -3199.715815161   0.000000000000
   CI-PROBLEM SOLVED
   DENSITIES MADE
   E(CAS)= -3200.141727007 Eh DE=   -5.439995e-02
   --- Energy gap subspaces: Ext-Act = 0.319   Act-Int = 0.077
   N(occ)=  1.20000 1.20000 1.20000 1.20000 1.20000
   ||g|| =     3.755089e-01 Max(G)=   -2.996584e-02 Rot=166,79
   --- Orbital Update [SuperCI(PT)]
   --- Canonicalize Internal Space
   --- Canonicalize External Space
   --- SX_PT (Skipped TA=0 IT=0): ||X|| =      0.122953085 Max(X)(172,165) =      0.018812373 
   --- SFit(Active Orbitals)

MACRO-ITERATION   9: 
   --- Inactive Energy E0 = -3191.54498033 Eh
CI-ITERATION   0: 
 -3200.239571841   0.000000000000 (    0.00)
 -3200.225403359   0.000000000000
 -3200.207624539   0.000000000000
 -3200.206412499   0.000000000000
 -3200.197079359   0.000000000000
   CI-PROBLEM SOLVED
   DENSITIES MADE
CI-ITERATION   0: 
 -3200.219596548   0.000000000000 (    0.00)
 -3200.202927430   0.000000000000
 -3200.201952620   0.000000000000
 -3200.196038401   0.000000000000
 -3200.176548987   0.000000000000
 -3200.174542487   0.000000000000
 -3200.172364907   0.000000000000
 -3200.168849055   0.000000000000
 -3200.164504562   0.000000000000
 -3200.163664394   0.000000000000
 -3200.162087354   0.000000000000
 -3200.158677734   0.000000000000
 -3200.157234544   0.000000000000
 -3200.156374098   0.000000000000
 -3200.155411385   0.000000000000
 -3200.153201490   0.000000000000
 -3200.153047075   0.000000000000
 -3200.146088729   0.000000000000
 -3200.144224212   0.000000000000
 -3200.141547735   0.000000000000
 -3200.137767090   0.000000000000
 -3200.136848825   0.000000000000
 -3200.135863846   0.000000000000
 -3200.134162496   0.000000000000
 -3200.126769352   0.000000000000
 -3200.125737737   0.000000000000
 -3200.117277778   0.000000000000
 -3200.116238992   0.000000000000
 -3200.115075754   0.000000000000
 -3200.112322897   0.000000000000
 -3200.111944820   0.000000000000
 -3200.094885909   0.000000000000
 -3200.067742868   0.000000000000
 -3200.064359122   0.000000000000
 -3200.056458514   0.000000000000
 -3200.052672282   0.000000000000
 -3200.046871279   0.000000000000
 -3200.020214199   0.000000000000
 -3200.018432830   0.000000000000
 -3199.774892806   0.000000000000
 -3199.772388599   0.000000000000
 -3199.766366835   0.000000000000
 -3199.756191058   0.000000000000
 -3199.718793717   0.000000000000
 -3199.712332590   0.000000000000
   CI-PROBLEM SOLVED
   DENSITIES MADE
   E(CAS)= -3200.148292448 Eh DE=   -6.565441e-03
   --- Energy gap subspaces: Ext-Act = 0.321   Act-Int = 0.081
   N(occ)=  1.20000 1.20000 1.20000 1.20000 1.20000
   ||g|| =     1.529923e-01 Max(G)=   -2.586216e-02 Rot=166,79
   --- Orbital Update [SuperCI(PT)]
   --- Canonicalize Internal Space
   --- Canonicalize External Space
   --- SX_PT (Skipped TA=0 IT=0): ||X|| =      0.069351753 Max(X)(163,159) =      0.018558020 
   --- SFit(Active Orbitals)

MACRO-ITERATION  10: 
   --- Inactive Energy E0 = -3191.60346964 Eh
CI-ITERATION   0: 
 -3200.250881245   0.000000000000 (    0.00)
 -3200.225160286   0.000000000000
 -3200.207162738   0.000000000000
 -3200.205675772   0.000000000000
 -3200.197305957   0.000000000000
   CI-PROBLEM SOLVED
   DENSITIES MADE
CI-ITERATION   0: 
 -3200.218840574   0.000000000000 (    0.00)
 -3200.202364646   0.000000000000
 -3200.201235355   0.000000000000
 -3200.195558779   0.000000000000
 -3200.179519870   0.000000000000
 -3200.178325101   0.000000000000
 -3200.173891955   0.000000000000
 -3200.170465638   0.000000000000
 -3200.168666218   0.000000000000
 -3200.167668445   0.000000000000
 -3200.167206725   0.000000000000
 -3200.165370696   0.000000000000
 -3200.164313096   0.000000000000
 -3200.162337438   0.000000000000
 -3200.159116879   0.000000000000
 -3200.158678174   0.000000000000
 -3200.157530672   0.000000000000
 -3200.152360502   0.000000000000
 -3200.150945147   0.000000000000
 -3200.148019568   0.000000000000
 -3200.146804908   0.000000000000
 -3200.146006823   0.000000000000
 -3200.137133656   0.000000000000
 -3200.135729278   0.000000000000
 -3200.132996596   0.000000000000
 -3200.131609312   0.000000000000
 -3200.122541937   0.000000000000
 -3200.119737656   0.000000000000
 -3200.117627500   0.000000000000
 -3200.115197244   0.000000000000
 -3200.112601689   0.000000000000
 -3200.106449851   0.000000000000
 -3200.080673438   0.000000000000
 -3200.077880215   0.000000000000
 -3200.070873493   0.000000000000
 -3200.052592719   0.000000000000
 -3200.046648293   0.000000000000
 -3200.020562300   0.000000000000
 -3200.018915566   0.000000000000
 -3199.764409138   0.000000000000
 -3199.759084876   0.000000000000
 -3199.754705986   0.000000000000
 -3199.743414717   0.000000000000
 -3199.705492931   0.000000000000
 -3199.699578803   0.000000000000
   CI-PROBLEM SOLVED
   DENSITIES MADE
   E(CAS)= -3200.150415093 Eh DE=   -2.122645e-03
   --- Energy gap subspaces: Ext-Act = 0.319   Act-Int = 0.080
   N(occ)=  1.20000 1.20000 1.20000 1.20000 1.20000
   ||g|| =     6.881162e-02 Max(G)=   -1.419861e-02 Rot=166,79
   --- Orbital Update [SuperCI(PT)]
   --- Canonicalize Internal Space
   --- Canonicalize External Space
   --- SX_PT (Skipped TA=0 IT=0): ||X|| =      0.034355274 Max(X)(163,159) =      0.011283630 
   --- SFit(Active Orbitals)

MACRO-ITERATION  11: 
   --- Inactive Energy E0 = -3191.61596194 Eh
CI-ITERATION   0: 
 -3200.252948307   0.000000000000 (    0.00)
 -3200.225811248   0.000000000000
 -3200.207555152   0.000000000000
 -3200.205764734   0.000000000000
 -3200.197443872   0.000000000000
   CI-PROBLEM SOLVED
   DENSITIES MADE
CI-ITERATION   0: 
 -3200.219483320   0.000000000000 (    0.00)
 -3200.202813426   0.000000000000
 -3200.201451180   0.000000000000
 -3200.195867243   0.000000000000
 -3200.180733314   0.000000000000
 -3200.179911828   0.000000000000
 -3200.174896361   0.000000000000
 -3200.171452116   0.000000000000
 -3200.169602558   0.000000000000
 -3200.169161206   0.000000000000
 -3200.168215446   0.000000000000
 -3200.166665092   0.000000000000
 -3200.165706947   0.000000000000
 -3200.163882273   0.000000000000
 -3200.160615891   0.000000000000
 -3200.159661674   0.000000000000
 -3200.157944048   0.000000000000
 -3200.153086154   0.000000000000
 -3200.151715450   0.000000000000
 -3200.148782272   0.000000000000
 -3200.148418609   0.000000000000
 -3200.148261907   0.000000000000
 -3200.138121005   0.000000000000
 -3200.136586954   0.000000000000
 -3200.134625025   0.000000000000
 -3200.133279625   0.000000000000
 -3200.123175963   0.000000000000
 -3200.120406102   0.000000000000
 -3200.117981410   0.000000000000
 -3200.115623410   0.000000000000
 -3200.112932494   0.000000000000
 -3200.108571666   0.000000000000
 -3200.083689247   0.000000000000
 -3200.081084525   0.000000000000
 -3200.074344313   0.000000000000
 -3200.052918416   0.000000000000
 -3200.047252231   0.000000000000
 -3200.021077484   0.000000000000
 -3200.019364694   0.000000000000
 -3199.765714800   0.000000000000
 -3199.758680867   0.000000000000
 -3199.755008544   0.000000000000
 -3199.742737281   0.000000000000
 -3199.704852190   0.000000000000
 -3199.698507949   0.000000000000
   CI-PROBLEM SOLVED
   DENSITIES MADE
   E(CAS)= -3200.151228604 Eh DE=   -8.135104e-04
   --- Energy gap subspaces: Ext-Act = 0.318   Act-Int = 0.080
   N(occ)=  1.20000 1.20000 1.20000 1.20000 1.20000
   ||g|| =     3.502066e-02 Max(G)=   -7.465916e-03 Rot=166,79
   --- Orbital Update [SuperCI(PT)]
   --- Canonicalize Internal Space
   --- Canonicalize External Space
   --- SX_PT (Skipped TA=0 IT=0): ||X|| =      0.020241720 Max(X)(163,159) =     -0.005593894 
   --- SFit(Active Orbitals)

MACRO-ITERATION  12: 
   --- Inactive Energy E0 = -3191.63517333 Eh
CI-ITERATION   0: 
 -3200.252713654   0.000000000000 (    0.00)
 -3200.226129716   0.000000000000
 -3200.207677428   0.000000000000
 -3200.205673531   0.000000000000
 -3200.197488016   0.000000000000
   CI-PROBLEM SOLVED
   DENSITIES MADE
CI-ITERATION   0: 
 -3200.219592019   0.000000000000 (    0.00)
 -3200.202709301   0.000000000000
 -3200.201148431   0.000000000000
 -3200.195655128   0.000000000000
 -3200.180570812   0.000000000000
 -3200.179914873   0.000000000000
 -3200.174578817   0.000000000000
 -3200.171660447   0.000000000000
 -3200.169545253   0.000000000000
 -3200.169203681   0.000000000000
 -3200.168452796   0.000000000000
 -3200.166953140   0.000000000000
 -3200.165845628   0.000000000000
 -3200.164178669   0.000000000000
 -3200.160775142   0.000000000000
 -3200.160069608   0.000000000000
 -3200.158074982   0.000000000000
 -3200.153423732   0.000000000000
 -3200.152078326   0.000000000000
 -3200.149129088   0.000000000000
 -3200.148708158   0.000000000000
 -3200.148229435   0.000000000000
 -3200.138358675   0.000000000000
 -3200.136845271   0.000000000000
 -3200.134968378   0.000000000000
 -3200.133626263   0.000000000000
 -3200.123595953   0.000000000000
 -3200.120863149   0.000000000000
 -3200.118350319   0.000000000000
 -3200.116001383   0.000000000000
 -3200.113256777   0.000000000000
 -3200.108719681   0.000000000000
 -3200.084616492   0.000000000000
 -3200.082122775   0.000000000000
 -3200.075540640   0.000000000000
 -3200.053428443   0.000000000000
 -3200.047918046   0.000000000000
 -3200.021766063   0.000000000000
 -3200.020077736   0.000000000000
 -3199.769398935   0.000000000000
 -3199.761423319   0.000000000000
 -3199.757652247   0.000000000000
 -3199.744833051   0.000000000000
 -3199.707289981   0.000000000000
 -3199.700584357   0.000000000000
   CI-PROBLEM SOLVED
   DENSITIES MADE
   E(CAS)= -3200.151543072 Eh DE=   -3.144686e-04
   --- Energy gap subspaces: Ext-Act = 0.318   Act-Int = 0.080
   N(occ)=  1.20000 1.20000 1.20000 1.20000 1.20000
   ||g|| =     2.086528e-02 Max(G)=   -3.298136e-03 Rot=166,164
   --- Orbital Update [SuperCI(PT)]
   --- Canonicalize Internal Space
   --- Canonicalize External Space
   --- SX_PT (Skipped TA=0 IT=0): ||X|| =      0.011737723 Max(X)(161,157) =      0.003226648 
   --- SFit(Active Orbitals)

MACRO-ITERATION  13: 
   --- Inactive Energy E0 = -3191.64411584 Eh
CI-ITERATION   0: 
 -3200.253945904   0.000000000000 (    0.00)
 -3200.226048648   0.000000000000
 -3200.207471725   0.000000000000
 -3200.205226135   0.000000000000
 -3200.197202123   0.000000000000
   CI-PROBLEM SOLVED
   DENSITIES MADE
CI-ITERATION   0: 
 -3200.219509776   0.000000000000 (    0.00)
 -3200.202527882   0.000000000000
 -3200.200784125   0.000000000000
 -3200.195422690   0.000000000000
 -3200.181144347   0.000000000000
 -3200.180532737   0.000000000000
 -3200.174843509   0.000000000000
 -3200.171947294   0.000000000000
 -3200.170385002   0.000000000000
 -3200.169790846   0.000000000000
 -3200.168598159   0.000000000000
 -3200.167509323   0.000000000000
 -3200.166289650   0.000000000000
 -3200.165052249   0.000000000000
 -3200.161560106   0.000000000000
 -3200.160195908   0.000000000000
 -3200.157780886   0.000000000000
 -3200.153530692   0.000000000000
 -3200.152265728   0.000000000000
 -3200.150052762   0.000000000000
 -3200.149223801   0.000000000000
 -3200.149093562   0.000000000000
 -3200.138859347   0.000000000000
 -3200.137202868   0.000000000000
 -3200.135434305   0.000000000000
 -3200.134155419   0.000000000000
 -3200.123624567   0.000000000000
 -3200.120832299   0.000000000000
 -3200.118187679   0.000000000000
 -3200.115818998   0.000000000000
 -3200.113011311   0.000000000000
 -3200.109891812   0.000000000000
 -3200.086427497   0.000000000000
 -3200.084005479   0.000000000000
 -3200.077503766   0.000000000000
 -3200.053173125   0.000000000000
 -3200.047747156   0.000000000000
 -3200.021651393   0.000000000000
 -3200.019929018   0.000000000000
 -3199.769121060   0.000000000000
 -3199.760874982   0.000000000000
 -3199.756201901   0.000000000000
 -3199.743279969   0.000000000000
 -3199.706160982   0.000000000000
 -3199.698942204   0.000000000000
   CI-PROBLEM SOLVED
   DENSITIES MADE
   E(CAS)= -3200.151656989 Eh DE=   -1.139164e-04
   --- Energy gap subspaces: Ext-Act = 0.317   Act-Int = 0.080
   N(occ)=  1.20000 1.20000 1.20000 1.20000 1.20000
   ||g|| =     1.359027e-02 Max(G)=   -3.379625e-03 Rot=166,164
   --- Orbital Update [SuperCI(PT)]
   --- Canonicalize Internal Space
   --- Canonicalize External Space
   --- SX_PT (Skipped TA=0 IT=0): ||X|| =      0.006823079 Max(X)(161,157) =      0.001971214 
   --- SFit(Active Orbitals)

MACRO-ITERATION  14: 
   --- Inactive Energy E0 = -3191.64297858 Eh
CI-ITERATION   0: 
 -3200.253882938   0.000000000000 (    0.00)
 -3200.226129799   0.000000000000
 -3200.207521919   0.000000000000
 -3200.205183539   0.000000000000
 -3200.197226014   0.000000000000
   CI-PROBLEM SOLVED
   DENSITIES MADE
CI-ITERATION   0: 
 -3200.219537785   0.000000000000 (    0.00)
 -3200.202513702   0.000000000000
 -3200.200673891   0.000000000000
 -3200.195357113   0.000000000000
 -3200.180991075   0.000000000000
 -3200.180421064   0.000000000000
 -3200.174704640   0.000000000000
 -3200.171923700   0.000000000000
 -3200.170325972   0.000000000000
 -3200.169727100   0.000000000000
 -3200.168547824   0.000000000000
 -3200.167581979   0.000000000000
 -3200.166271627   0.000000000000
 -3200.165127786   0.000000000000
 -3200.161590121   0.000000000000
 -3200.160262645   0.000000000000
 -3200.157777476   0.000000000000
 -3200.153533743   0.000000000000
 -3200.152312776   0.000000000000
 -3200.150104051   0.000000000000
 -3200.149187629   0.000000000000
 -3200.149047653   0.000000000000
 -3200.138826163   0.000000000000
 -3200.137182925   0.000000000000
 -3200.135466575   0.000000000000
 -3200.134226063   0.000000000000
 -3200.123694609   0.000000000000
 -3200.120886503   0.000000000000
 -3200.118245074   0.000000000000
 -3200.115835365   0.000000000000
 -3200.113041427   0.000000000000
 -3200.109847945   0.000000000000
 -3200.086575957   0.000000000000
 -3200.084150669   0.000000000000
 -3200.077688729   0.000000000000
 -3200.053199913   0.000000000000
 -3200.047796240   0.000000000000
 -3200.021737411   0.000000000000
 -3200.019988107   0.000000000000
 -3199.769617302   0.000000000000
 -3199.761443639   0.000000000000
 -3199.756287103   0.000000000000
 -3199.743383493   0.000000000000
 -3199.706520931   0.000000000000
 -3199.698978223   0.000000000000
   CI-PROBLEM SOLVED
   DENSITIES MADE
   E(CAS)= -3200.151684884 Eh DE=   -2.789568e-05
   --- Energy gap subspaces: Ext-Act = 0.317   Act-Int = 0.080
   N(occ)=  1.20000 1.20000 1.20000 1.20000 1.20000
   ||g|| =     1.156272e-02 Max(G)=   -3.350762e-03 Rot=166,164
   --- Orbital Update [SuperCI(PT)]
   --- Canonicalize Internal Space
   --- Canonicalize External Space
   --- SX_PT (Skipped TA=0 IT=0): ||X|| =      0.006005200 Max(X)(161,157) =      0.002122367 
   --- SFit(Active Orbitals)

MACRO-ITERATION  15: 
   --- Inactive Energy E0 = -3191.64451491 Eh
CI-ITERATION   0: 
 -3200.253746252   0.000000000000 (    0.00)
 -3200.226181542   0.000000000000
 -3200.207570819   0.000000000000
 -3200.205176806   0.000000000000
 -3200.197239204   0.000000000000
   CI-PROBLEM SOLVED
   DENSITIES MADE
CI-ITERATION   0: 
 -3200.219573386   0.000000000000 (    0.00)
 -3200.202528749   0.000000000000
 -3200.200639773   0.000000000000
 -3200.195328300   0.000000000000
 -3200.180873740   0.000000000000
 -3200.180345791   0.000000000000
 -3200.174603579   0.000000000000
 -3200.171947220   0.000000000000
 -3200.170194606   0.000000000000
 -3200.169634498   0.000000000000
[...]
      f+1     :     0.000766
      f-1     :     0.000710
      f+2     :     0.000552
      f-2     :     0.000994
      f+3     :     0.000826
      f-3     :     0.000547
 16 Crs       :     6.234133  s :     6.234133
      pz      :     4.124311  p :    12.509420
      px      :     4.189714
      py      :     4.195395
      dz2     :     1.399704  d :     6.223476
      dxz     :     1.373822
      dyz     :     1.196016
      dx2y2   :     1.043120
      dxy     :     1.210814
      f0      :     0.000149  f :     0.001505
      f+1     :     0.000247
      f-1     :     0.000142
      f+2     :     0.000225
      f-2     :     0.000137
      f+3     :     0.000204
      f-3     :     0.000402

SPIN
  0 Aus       :     0.019843  s :     0.019843
      pz      :     0.012838  p :     0.018084
      px      :     0.004321
      py      :     0.000925
      dz2     :     0.005079  d :     0.012675
      dxz     :     0.004267
      dyz     :     0.001193
      dx2y2   :     0.001362
      dxy     :     0.000773
      f0      :     0.000048  f :     0.000314
      f+1     :     0.000084
      f-1     :     0.000005
      f+2     :     0.000126
      f-2     :     0.000017
      f+3     :     0.000023
      f-3     :     0.000011
  1 Aus       :     0.034869  s :     0.034869
      pz      :     0.013065  p :     0.017578
      px      :     0.001895
      py      :     0.002619
      dz2     :     0.002791  d :     0.012309
      dxz     :     0.002721
      dyz     :     0.002091
      dx2y2   :     0.001628
      dxy     :     0.003079
      f0      :     0.000029  f :     0.000383
      f+1     :     0.000056
      f-1     :     0.000046
      f+2     :     0.000010
      f-2     :     0.000062
      f+3     :     0.000033
      f-3     :     0.000147
  2 Aus       :     0.013503  s :     0.013503
      pz      :     0.005945  p :     0.008743
      px      :     0.002351
      py      :     0.000446
      dz2     :     0.001296  d :     0.004808
      dxz     :     0.000122
      dyz     :     0.001856
      dx2y2   :     0.000197
      dxy     :     0.001338
      f0      :     0.000002  f :     0.000043
      f+1     :     0.000003
      f-1     :     0.000021
      f+2     :     0.000004
      f-2     :     0.000003
      f+3     :     0.000008
      f-3     :     0.000002
  3 Aus       :     0.019651  s :     0.019651
      pz      :     0.012381  p :     0.017892
      px      :     0.004415
      py      :     0.001097
      dz2     :     0.002902  d :     0.012651
      dxz     :     0.004716
      dyz     :     0.001580
      dx2y2   :     0.000444
      dxy     :     0.003008
      f0      :     0.000044  f :     0.000312
      f+1     :     0.000043
      f-1     :     0.000039
      f+2     :     0.000015
      f-2     :     0.000048
      f+3     :     0.000024
      f-3     :     0.000099
  4 Aus       :     0.009140  s :     0.009140
      pz      :     0.000900  p :     0.007126
      px      :     0.000615
      py      :     0.005611
      dz2     :     0.006072  d :     0.016273
      dxz     :     0.003785
      dyz     :     0.003124
      dx2y2   :     0.001803
      dxy     :     0.001488
      f0      :     0.000026  f :     0.000222
      f+1     :     0.000021
      f-1     :     0.000025
      f+2     :     0.000062
      f-2     :     0.000019
      f+3     :     0.000025
      f-3     :     0.000044
  5 Aus       :     0.007002  s :     0.007002
      pz      :     0.014322  p :     0.024041
      px      :     0.002472
      py      :     0.007247
      dz2     :     0.004903  d :     0.013290
      dxz     :     0.001002
      dyz     :     0.002834
      dx2y2   :     0.002748
      dxy     :     0.001803
      f0      :     0.000044  f :     0.000288
      f+1     :     0.000009
      f-1     :     0.000061
      f+2     :     0.000058
      f-2     :     0.000035
      f+3     :     0.000033
      f-3     :     0.000049
  6 Aus       :     0.006906  s :     0.006906
      pz      :     0.017793  p :     0.024141
      px      :     0.001335
      py      :     0.005014
      dz2     :     0.001095  d :     0.013375
      dxz     :     0.005234
      dyz     :     0.002185
      dx2y2   :     0.003531
      dxy     :     0.001330
      f0      :     0.000041  f :     0.000291
      f+1     :     0.000040
      f-1     :     0.000038
      f+2     :     0.000018
      f-2     :     0.000032
      f+3     :     0.000049
      f-3     :     0.000073
  7 Aus       :     0.034489  s :     0.034489
      pz      :     0.003861  p :     0.017606
      px      :     0.011799
      py      :     0.001946
      dz2     :     0.003433  d :     0.012290
      dxz     :     0.004734
      dyz     :     0.001975
      dx2y2   :     0.001267
      dxy     :     0.000882
      f0      :     0.000069  f :     0.000379
      f+1     :     0.000163
      f-1     :     0.000025
      f+2     :     0.000079
      f-2     :     0.000028
      f+3     :     0.000007
      f-3     :     0.000008
  8 Aus       :     0.002644  s :     0.002644
      pz      :     0.009557  p :     0.029873
      px      :     0.019297
      py      :     0.001020
      dz2     :     0.000599  d :     0.007844
      dxz     :     0.000405
      dyz     :     0.001257
      dx2y2   :     0.001339
      dxy     :     0.004245
      f0      :     0.000009  f :     0.000032
      f+1     :     0.000010
      f-1     :     0.000002
      f+2     :     0.000001
      f-2     :     0.000003
      f+3     :     0.000004
      f-3     :     0.000002
  9 Aus       :     0.002226  s :     0.002226
      pz      :     0.015826  p :     0.042124
      px      :     0.022464
      py      :     0.003834
      dz2     :     0.003300  d :     0.006834
      dxz     :     0.000206
      dyz     :     0.000620
      dx2y2   :     0.000416
      dxy     :     0.002292
      f0      :     0.000004  f :     0.000026
      f+1     :     0.000005
      f-1     :     0.000005
      f+2     :     0.000000
      f-2     :     0.000008
      f+3     :     0.000003
      f-3     :     0.000001
 10 Aus       :     0.002287  s :     0.002287
      pz      :     0.039890  p :     0.041919
      px      :     0.001514
      py      :     0.000515
      dz2     :     0.001061  d :     0.006846
      dxz     :     0.000733
      dyz     :     0.002748
      dx2y2   :     0.001549
      dxy     :     0.000754
      f0      :     0.000005  f :     0.000027
      f+1     :     0.000008
      f-1     :     0.000002
      f+2     :     0.000003
      f-2     :     0.000003
      f+3     :     0.000003
      f-3     :     0.000003
 11 Aus       :     0.057791  s :     0.057791
      pz      :     0.005123  p :     0.009498
      px      :     0.002703
      py      :     0.001673
      dz2     :     0.001250  d :     0.004426
      dxz     :     0.000502
      dyz     :     0.000574
      dx2y2   :     0.001597
      dxy     :     0.000504
      f0      :     0.000000  f :     0.000015
      f+1     :     0.000002
      f-1     :     0.000005
      f+2     :     0.000001
      f-2     :     0.000001
      f+3     :     0.000005
      f-3     :     0.000000
 12 Aus       :     0.001096  s :     0.001096
      pz      :     0.010432  p :     0.016860
      px      :     0.005284
      py      :     0.001144
      dz2     :     0.001594  d :     0.014374
      dxz     :     0.003663
      dyz     :     0.003438
      dx2y2   :     0.004382
      dxy     :     0.001296
      f0      :     0.000055  f :     0.000296
      f+1     :     0.000037
      f-1     :     0.000020
      f+2     :     0.000016
      f-2     :     0.000064
      f+3     :     0.000054
      f-3     :     0.000051
 13 Aus       :     0.004662  s :     0.004662
      pz      :     0.012095  p :     0.015365
      px      :     0.002473
      py      :     0.000798
      dz2     :     0.000693  d :     0.005116
      dxz     :     0.000486
      dyz     :     0.003008
      dx2y2   :     0.000583
      dxy     :     0.000346
      f0      :     0.000002  f :     0.000024
      f+1     :     0.000011
      f-1     :     0.000002
      f+2     :     0.000002
      f-2     :     0.000002
      f+3     :     0.000003
      f-3     :     0.000001
 14 Aus       :     0.001058  s :     0.001058
      pz      :     0.013796  p :     0.016795
      px      :     0.001734
      py      :     0.001265
      dz2     :     0.001669  d :     0.014409
      dxz     :     0.003617
      dyz     :     0.005109
      dx2y2   :     0.001361
      dxy     :     0.002653
      f0      :     0.000028  f :     0.000294
      f+1     :     0.000014
      f-1     :     0.000069
      f+2     :     0.000043
      f-2     :     0.000036
      f+3     :     0.000074
      f-3     :     0.000031
 15 Aus       :     0.002623  s :     0.002623
      pz      :     0.023933  p :     0.029995
      px      :     0.000729
      py      :     0.005333
      dz2     :     0.003507  d :     0.007768
      dxz     :     0.002877
      dyz     :     0.000339
      dx2y2   :     0.000477
      dxy     :     0.000569
      f0      :     0.000001  f :     0.000031
      f+1     :     0.000014
      f-1     :     0.000000
      f+2     :     0.000001
      f-2     :     0.000005
      f+3     :     0.000009
      f-3     :     0.000000
 16 Crs       :     0.003964  s :     0.003964
      pz      :     0.020934  p :     0.027128
      px      :     0.003603
      py      :     0.002591
      dz2     :     0.563044  d :     2.243204
      dxz     :     0.553266
      dyz     :     0.469338
      dx2y2   :     0.308543
      dxy     :     0.349013
      f0      :     0.000000  f :     0.000008
      f+1     :     0.000006
      f-1     :     0.000000
      f+2     :     0.000000
      f-2     :     0.000000
      f+3     :     0.000000
      f-3     :     0.000001


                      *****************************
                      * MAYER POPULATION ANALYSIS *
                      *****************************

  NA   - Mulliken gross atomic population
  ZA   - Total nuclear charge
  QA   - Mulliken gross atomic charge
  VA   - Mayer's total valence
  BVA  - Mayer's bonded valence
  FA   - Mayer's free valence

  ATOM       NA         ZA         QA         VA         BVA        FA
  0 Au    18.7602    19.0000     0.2398     1.6356     1.5352     0.1004
  1 Au    18.4707    19.0000     0.5293     1.1095     1.0480     0.0615
  2 Au    18.3524    19.0000     0.6476     0.8960     0.8775     0.0185
  3 Au    18.7612    19.0000     0.2388     1.6386     1.5389     0.0997
  4 Au    19.5643    19.0000    -0.5643     2.2023     2.1432     0.0591
  5 Au    18.3259    19.0000     0.6741     1.0528     1.0301     0.0227
  6 Au    18.3251    19.0000     0.6749     1.0509     1.0283     0.0226
  7 Au    18.4705    19.0000     0.5295     1.1086     1.0477     0.0610
  8 Au    18.7702    19.0000     0.2298     1.3621     1.3380     0.0241
  9 Au    19.2832    19.0000    -0.2832     1.8479     1.8241     0.0238
 10 Au    19.2911    19.0000    -0.2911     1.8539     1.8301     0.0237
 11 Au    18.7923    19.0000     0.2077     1.2649     1.1654     0.0995
 12 Au    18.7805    19.0000     0.2195     1.6313     1.6124     0.0189
 13 Au    18.8742    19.0000     0.1258     1.4025     1.3882     0.0142
 14 Au    18.7786    19.0000     0.2214     1.6288     1.6104     0.0184
 15 Au    18.7651    19.0000     0.2349     1.3585     1.3345     0.0241
 16 Cr    27.6344    24.0000    -3.6344     8.0092     4.3239     3.6853

  Mayer bond orders larger than 0.100000
B(  0-Au,  1-Au) :   0.1301 B(  0-Au,  4-Au) :   0.1018 B(  0-Au,  6-Au) :   0.1461 
B(  0-Au,  7-Au) :   0.1434 B(  0-Au,  8-Au) :   0.1897 B(  0-Au,  9-Au) :   0.2377 
B(  0-Au, 16-Cr) :   0.2912 B(  1-Au,  3-Au) :   0.1435 B(  1-Au,  6-Au) :   0.1364 
B(  1-Au, 14-Au) :   0.2378 B(  1-Au, 16-Cr) :   0.3047 B(  2-Au,  4-Au) :   0.3383 
B(  2-Au,  9-Au) :   0.2274 B(  2-Au, 10-Au) :   0.2286 B(  3-Au,  4-Au) :   0.1021 
B(  3-Au,  5-Au) :   0.1457 B(  3-Au,  7-Au) :   0.1304 B(  3-Au, 10-Au) :   0.2391 
B(  3-Au, 15-Au) :   0.1899 B(  3-Au, 16-Cr) :   0.2926 B(  4-Au,  5-Au) :   0.1621 
B(  4-Au,  6-Au) :   0.1618 B(  4-Au,  9-Au) :   0.3478 B(  4-Au, 10-Au) :   0.3497 
B(  4-Au, 16-Cr) :   0.3308 B(  5-Au,  6-Au) :   0.1115 B(  5-Au,  7-Au) :   0.1372 
B(  5-Au, 16-Cr) :   0.2682 B(  6-Au, 16-Cr) :   0.2682 B(  7-Au, 12-Au) :   0.2377 
B(  7-Au, 16-Cr) :   0.3037 B(  8-Au,  9-Au) :   0.3316 B(  8-Au, 11-Au) :   0.2418 
B(  8-Au, 13-Au) :   0.1570 B(  8-Au, 14-Au) :   0.1019 B(  8-Au, 16-Cr) :   0.2801 
B(  9-Au, 10-Au) :   0.2564 B(  9-Au, 11-Au) :   0.1804 B(  9-Au, 16-Cr) :   0.2724 
B( 10-Au, 11-Au) :   0.1812 B( 10-Au, 15-Au) :   0.3319 B( 10-Au, 16-Cr) :   0.2735 
B( 11-Au, 13-Au) :   0.2154 B( 11-Au, 15-Au) :   0.2393 B( 12-Au, 13-Au) :   0.2405 
B( 12-Au, 14-Au) :   0.1984 B( 12-Au, 15-Au) :   0.1024 B( 12-Au, 16-Cr) :   0.3926 
B( 13-Au, 14-Au) :   0.2381 B( 13-Au, 15-Au) :   0.1577 B( 13-Au, 16-Cr) :   0.3309 
B( 14-Au, 16-Cr) :   0.3937 B( 15-Au, 16-Cr) :   0.2781 


-------------------------------------------------------------
 Forming the transition density       ... done in 0.022320 sec
-------------------------------------------------------------



==========================================
CASSCF UV, CD spectra and dipole moments
==========================================
-------------------
ABSORPTION SPECTRUM
-------------------

Center of mass           = ( 16.7412, 14.9376, 15.1116)
Nuclear contribution to the dipole moment =   -20.127129,    9.878027,  -46.307267 au

Calculating the Dipole integrals                  ... done
Transforming integrals                            ... done
Calculating the Linear Momentum integrals         ... done
Transforming integrals                            ... done
Calculating the Angular Momentum integrals        ... done
Transforming integrals                            ... done

------------------------------------------------------------------------------------------
                                ABSORPTION SPECTRUM
------------------------------------------------------------------------------------------
  States           Energy   Wavelength   fosc          T2        TX         TY        TZ  
                   (cm-1)     (nm)                   (D**2)      (D)        (D)       (D) 
------------------------------------------------------------------------------------------
  0( 0)-> 1( 0) 5    6209.7   1610.4   0.000510258   0.17449  -0.18705  -0.36842  -0.06139
  0( 0)-> 2( 0) 5    9918.1   1008.3   0.002549812   0.54592  -0.52611   0.35488   0.37840
  0( 0)-> 3( 0) 5   10294.1    971.4   0.011663828   2.40606  -0.91013  -0.97948  -0.78635
  0( 0)-> 4( 0) 5   12267.5    815.2   0.040101707   6.94161   1.10352  -0.31008   2.37228
------------------------------------------------------------------------------------------



------------------------------------------------------------------------------
                             CD SPECTRUM
------------------------------------------------------------------------------
      States        Energy   Wavelength   R*T        RX        RY        RZ   
                    (cm-1)      (nm)   (1e40*sgs)   (au)      (au)      (au)  
------------------------------------------------------------------------------
  0( 0)-> 1( 0) 5    6209.7   1610.4    -0.00535   0.03061  -0.01266  -0.01680
  0( 0)-> 2( 0) 5    9918.1   1008.3     6.62953   0.10468   0.19846   0.05388
  0( 0)-> 3( 0) 5   10294.1    971.4    -6.58637   0.07044  -0.00745  -0.02709
  0( 0)-> 4( 0) 5   12267.5    815.2    -0.59929   0.08162  -0.03590  -0.04402
------------------------------------------------------------------------------

------------------------------------------------------------------------------
                                 DIPOLE MOMENTS
------------------------------------------------------------------------------
  Root  Block           TX        TY        TZ           |T|
                      (Debye)   (Debye)   (Debye)      (Debye)
------------------------------------------------------------------------------
    0    0           -2.72674  -0.34201  -4.97344      5.68218

--------------
CASSCF TIMINGS
--------------

Total time                       ...     4998.4 sec
Sum of individual times          ...     4988.3 sec ( 99.8%)

Calculation of AO operators
   F(Core) operator              ...     2442.9 sec ( 48.9%)
   G(Act) operator               ...     2339.7 sec ( 46.8%)
   J(AO) operators               ...        0.0 sec (  0.0%)
Calculation of MO transformed quantities
   J(MO) operators               ...      193.9 sec (  3.9%)
   (pq|rs) integrals             ...        0.0 sec (  0.0%)
   AO->MO one electron integrals ...        1.6 sec (  0.0%)
Configuration interaction steps
   CI-setup phase                ...        0.0 sec (  0.0%)
   CI-solution phase             ...        0.6 sec (  0.0%)
   Generation of densities       ...        0.1 sec (  0.0%)
Orbital improvement steps
   Orbital gradient              ...        0.2 sec (  0.0%)
   O(1) converger                ...        9.2 sec (  0.2%)
Properties                       ...        0.0 sec (  0.0%)
   SOC integral calculation      ...        0.0 sec (  0.0%)
   SSC RMEs (incl. integrals)    ...        0.0 sec (  0.0%)
   SOC RMEs                      ...        0.0 sec (  0.0%)

Maximum memory used throughout the entire CASSCF-calculation: 445.5 MB

-------------------------   --------------------
FINAL SINGLE POINT ENERGY     -3200.152179976415
-------------------------   --------------------


                            ***************************************
                            *     ORCA property calculations      *
                            ***************************************

                                    ---------------------
                                    Active property flags
                                    ---------------------
   (+) Dipole Moment


------------------------------------------------------------------------------
                       ORCA ELECTRIC PROPERTIES CALCULATION
------------------------------------------------------------------------------

Dipole Moment Calculation                       ... on
Quadrupole Moment Calculation                   ... off
Polarizability Calculation                      ... off
GBWName                                         ... casscf.gbw
Electron density                                ... casscf.scfp
The origin for moment calculation is the CENTER OF MASS  = (16.741185, 14.937644 15.111567)

-------------
DIPOLE MOMENT
-------------
                                X             Y             Z
Electronic contribution:     19.67607     -10.54282      45.98009
Nuclear contribution   :    -20.12713       9.87803     -46.30727
                        -----------------------------------------
Total Dipole Moment    :     -0.45106      -0.66480      -0.32718
                        -----------------------------------------
Magnitude (a.u.)       :      0.86744
Magnitude (Debye)      :      2.20486



--------------------
Rotational spectrum 
--------------------
 
Rotational constants in cm-1:     0.000865     0.000785     0.000717 
Rotational constants in MHz :    25.929728    23.528301    21.497504 

 Dipole components along the rotational axes: 
x,y,z [a.u.] :    -0.370087     0.784523     0.003617 
x,y,z [Debye]:    -0.940687     1.994100     0.009195 

 

Timings for individual modules:

Sum of individual times         ...     5016.982 sec (=  83.616 min)
GTO integral calculation        ...       11.408 sec (=   0.190 min)   0.2 %
SCF iterations                  ...        4.663 sec (=   0.078 min)   0.1 %
CASSCF iterations               ...     5000.911 sec (=  83.349 min)  99.7 %
                             ****ORCA TERMINATED NORMALLY****
TOTAL RUN TIME: 0 days 1 hours 23 minutes 37 seconds 654 msec
