
                                 *****************
                                 * O   R   C   A *
                                 *****************

                                            #,                                       
                                            ###                                      
                                            ####                                     
                                            #####                                    
                                            ######                                   
                                           ########,                                 
                                     ,,################,,,,,                         
                               ,,#################################,,                 
                          ,,##########################################,,             
                       ,#########################################, ''#####,          
                    ,#############################################,,   '####,        
                  ,##################################################,,,,####,       
                ,###########''''           ''''###############################       
              ,#####''   ,,,,##########,,,,          '''####'''          '####       
            ,##' ,,,,###########################,,,                        '##       
           ' ,,###''''                  '''############,,,                           
         ,,##''                                '''############,,,,        ,,,,,,###''
      ,#''                                            '''#######################'''  
     '                                                          ''''####''''         
             ,#######,   #######,   ,#######,      ##                                
            ,#'     '#,  ##    ##  ,#'     '#,    #''#        ######   ,####,        
            ##       ##  ##   ,#'  ##            #'  '#       #        #'  '#        
            ##       ##  #######   ##           ,######,      #####,   #    #        
            '#,     ,#'  ##    ##  '#,     ,#' ,#      #,         ##   #,  ,#        
             '#######'   ##     ##  '#######'  #'      '#     #####' # '####'        



                  #######################################################
                  #                        -***-                        #
                  #          Department of theory and spectroscopy      #
                  #    Directorship and core code : Frank Neese         #
                  #        Max Planck Institute fuer Kohlenforschung    #
                  #                Kaiser Wilhelm Platz 1               #
                  #                 D-45470 Muelheim/Ruhr               #
                  #                      Germany                        #
                  #                                                     #
                  #                  All rights reserved                #
                  #                        -***-                        #
                  #######################################################


                         Program Version 5.0.3 -  RELEASE  -


 With contributions from (in alphabetic order):
   Daniel Aravena         : Magnetic Suceptibility
   Michael Atanasov       : Ab Initio Ligand Field Theory (pilot matlab implementation)
   Alexander A. Auer      : GIAO ZORA, VPT2 properties, NMR spectrum
   Ute Becker             : Parallelization
   Giovanni Bistoni       : ED, misc. LED, open-shell LED, HFLD
   Martin Brehm           : Molecular dynamics
   Dmytro Bykov           : SCF Hessian
   Vijay G. Chilkuri      : MRCI spin determinant printing, contributions to CSF-ICE
   Dipayan Datta          : RHF DLPNO-CCSD density
   Achintya Kumar Dutta   : EOM-CC, STEOM-CC
   Dmitry Ganyushin       : Spin-Orbit,Spin-Spin,Magnetic field MRCI
   Miquel Garcia          : C-PCM and meta-GGA Hessian, CC/C-PCM, Gaussian charge scheme
   Yang Guo               : DLPNO-NEVPT2, F12-NEVPT2, CIM, IAO-localization
   Andreas Hansen         : Spin unrestricted coupled pair/coupled cluster methods
   Benjamin Helmich-Paris : MC-RPA, TRAH-SCF, COSX integrals
   Lee Huntington         : MR-EOM, pCC
   Robert Izsak           : Overlap fitted RIJCOSX, COSX-SCS-MP3, EOM
   Marcus Kettner         : VPT2
   Christian Kollmar      : KDIIS, OOCD, Brueckner-CCSD(T), CCSD density, CASPT2, CASPT2-K
   Simone Kossmann        : Meta GGA functionals, TD-DFT gradient, OOMP2, MP2 Hessian
   Martin Krupicka        : Initial AUTO-CI
   Lucas Lang             : DCDCAS
   Marvin Lechner         : AUTO-CI (C++ implementation), FIC-MRCC
   Dagmar Lenk            : GEPOL surface, SMD
   Dimitrios Liakos       : Extrapolation schemes; Compound Job, initial MDCI parallelization
   Dimitrios Manganas     : Further ROCIS development; embedding schemes
   Dimitrios Pantazis     : SARC Basis sets
   Anastasios Papadopoulos: AUTO-CI, single reference methods and gradients
   Taras Petrenko         : DFT Hessian,TD-DFT gradient, ASA, ECA, R-Raman, ABS, FL, XAS/XES, NRVS
   Peter Pinski           : DLPNO-MP2, DLPNO-MP2 Gradient
   Christoph Reimann      : Effective Core Potentials
   Marius Retegan         : Local ZFS, SOC
   Christoph Riplinger    : Optimizer, TS searches, QM/MM, DLPNO-CCSD(T), (RO)-DLPNO pert. Triples
   Tobias Risthaus        : Range-separated hybrids, TD-DFT gradient, RPA, STAB
   Michael Roemelt        : Original ROCIS implementation
   Masaaki Saitow         : Open-shell DLPNO-CCSD energy and density
   Barbara Sandhoefer     : DKH picture change effects
   Avijit Sen             : IP-ROCIS
   Kantharuban Sivalingam : CASSCF convergence, NEVPT2, FIC-MRCI
   Bernardo de Souza      : ESD, SOC TD-DFT
   Georgi Stoychev        : AutoAux, RI-MP2 NMR, DLPNO-MP2 response
   Willem Van den Heuvel  : Paramagnetic NMR
   Boris Wezisla          : Elementary symmetry handling
   Frank Wennmohs         : Technical directorship


 We gratefully acknowledge several colleagues who have allowed us to
 interface, adapt or use parts of their codes:
   Stefan Grimme, W. Hujo, H. Kruse, P. Pracht,  : VdW corrections, initial TS optimization,
                  C. Bannwarth, S. Ehlert          DFT functionals, gCP, sTDA/sTD-DF
   Ed Valeev, F. Pavosevic, A. Kumar             : LibInt (2-el integral package), F12 methods
   Garnet Chan, S. Sharma, J. Yang, R. Olivares  : DMRG
   Ulf Ekstrom                                   : XCFun DFT Library
   Mihaly Kallay                                 : mrcc  (arbitrary order and MRCC methods)
   Jiri Pittner, Ondrej Demel                    : Mk-CCSD
   Frank Weinhold                                : gennbo (NPA and NBO analysis)
   Christopher J. Cramer and Donald G. Truhlar   : smd solvation model
   Lars Goerigk                                  : TD-DFT with DH, B97 family of functionals
   V. Asgeirsson, H. Jonsson                     : NEB implementation
   FAccTs GmbH                                   : IRC, NEB, NEB-TS, DLPNO-Multilevel, CI-OPT
                                                   MM, QMMM, 2- and 3-layer-ONIOM, Crystal-QMMM,
                                                   LR-CPCM, SF, NACMEs, symmetry and pop. for TD-DFT,
                                                   nearIR, NL-DFT gradient (VV10), updates on ESD,
                                                   ML-optimized integration grids
   S Lehtola, MJT Oliveira, MAL Marques          : LibXC Library
   Liviu Ungur et al                             : ANISO software


 Your calculation uses the libint2 library for the computation of 2-el integrals
 For citations please refer to: http://libint.valeyev.net

 Your ORCA version has been built with support for libXC version: 5.1.0
 For citations please refer to: https://tddft.org/programs/libxc/

 This ORCA versions uses:
   CBLAS   interface :  Fast vector & matrix operations
   LAPACKE interface :  Fast linear algebra routines
   SCALAPACK package :  Parallel linear algebra routines
   Shared memory     :  Shared parallel matrices
   BLAS/LAPACK       :  OpenBLAS 0.3.15  USE64BITINT DYNAMIC_ARCH NO_AFFINITY Haswell SINGLE_THREADED
        Core in use  :  Haswell
   Copyright (c) 2011-2014, The OpenBLAS Project




***************************************
The coordinates will be read from file: 7.xyz
***************************************


================================================================================

cite the ECPs for Au [Def2-ECP] as follows:
Ce-Yb(ecp-28): M. Dolg, H. Stoll, H.Preuss, J. Chem. Phys., 1989, 90, 1730-1734.
Y-Cd(ecp-28), Hf-Hg(ecp-46): D. Andrae,U. Haeussermann, M. Dolg, H. Stoll, H. Preuss, Theor. Chim. Acta, 1990, 77, 123-141.
In-Sb(ecp-28), Tl-Bi(ecp-46): B. Metz, H. Stoll, M. Dolg, J. Chem. Phys., 2000, 113, 2563-2569.
Te-Xe(ecp-28), Po-Rn(ecp-46): K. A. Peterson, D. Figgen, E. Goll, H. Stoll, M. Dolg, J. Chem. Phys., 2003, 119, 11113-11123.
Rb(ecp-28), Cs(ecp-46): T. Leininger, A. Nicklass, W. Kuechle, H. Stoll, M. Dolg, A. Bergner, Chem. Phys. Lett., 1996, 255, 274-280.
Sr(ecp-28), Ba(ecp-46): M. Kaupp, P. V. Schleyer, H. Stoll and H. Preuss, J. Chem. Phys., 1991, 94, 1360-1366.
La(ecp-46): M. Dolg, H. Stoll, A. Savin, H. Preuss, Theor. Chim. Acta, 1989, 75, 173-194.
Lu(ecp-28): X. Cao, M. Dolg, J. Chem. Phys., 2001, 115, 7348-7355.

ECP parameters for Au [Def2-ECP] have been obtained from:
TURBOMOLE (7.0.2)

----- Orbital basis set information -----
Your calculation utilizes the basis: def2-TZVP
   F. Weigend and R. Ahlrichs, Phys. Chem. Chem. Phys. 7, 3297 (2005).

----- AuxJ basis set information -----
Your calculation utilizes the auxiliary basis: def2/J
   F. Weigend, Phys. Chem. Chem. Phys. 8, 1057 (2006).

================================================================================
                                        WARNINGS
                       Please study these warnings very carefully!
================================================================================


WARNING: your system is open-shell and RHF/RKS was chosen
  ===> : WILL SWITCH to UHF/UKS


WARNING: Geometry Optimization
  ===> : Switching off AutoStart
         For restart on a previous wavefunction, please use MOREAD

INFO   : the flag for use of the SHARK integral package has been found!

================================================================================
                                       INPUT FILE
================================================================================
NAME = pbe.inp
|  1> %pal nprocs 1 end 
|  2> 
|  3> !PBE def2-TZVP OPT UNO
|  4> !SLOWCONV KDIIS 
|  5> 
|  6> %geom maxiter 300 end
|  7> 
|  8> *xyzfile 0 5 7.xyz                           ****END OF INPUT****
================================================================================

                       *****************************
                       * Geometry Optimization Run *
                       *****************************

Geometry optimization settings:
Update method            Update   .... BFGS
Choice of coordinates    CoordSys .... Z-matrix Internals
Initial Hessian          InHess   .... Almoef's Model

Convergence Tolerances:
Energy Change            TolE     ....  5.0000e-06 Eh
Max. Gradient            TolMAXG  ....  3.0000e-04 Eh/bohr
RMS Gradient             TolRMSG  ....  1.0000e-04 Eh/bohr
Max. Displacement        TolMAXD  ....  4.0000e-03 bohr
RMS Displacement         TolRMSD  ....  2.0000e-03 bohr
Strict Convergence                ....  False
------------------------------------------------------------------------------
                        ORCA OPTIMIZATION COORDINATE SETUP
------------------------------------------------------------------------------

The optimization will be done in new redundant internal coordinates
Making redundant internal coordinates   ...  (new redundants) done
Evaluating the initial hessian          ...  (Almloef) done
Evaluating the coordinates              ...  done
Calculating the B-matrix                .... done
Calculating the G-matrix                .... done
Diagonalizing the G-matrix              .... done
The first mode is                       ....   56
The number of degrees of freedom        ....   27

    -----------------------------------------------------------------
                    Redundant Internal Coordinates


    -----------------------------------------------------------------
         Definition                    Initial Value    Approx d2E/dq
    -----------------------------------------------------------------
      1. B(Au  2,Au  1)                  2.7516         0.008139   
      2. B(Au  3,Au  2)                  2.7514         0.008144   
      3. B(Au  7,Au  6)                  2.7517         0.008136   
      4. B(Au  7,Au  2)                  2.7770         0.007414   
      5. B(Au  8,Au  7)                  2.7516         0.008140   
      6. B(Cr 10,Au  8)                  2.5660         0.117003   
      7. B(Cr 10,Au  6)                  2.5660         0.116997   
      8. B(Cr 10,Au  3)                  2.5661         0.116985   
      9. B(Cr 10,Au  5)                  2.5230         0.137009   
     10. B(Cr 10,Au  9)                  2.5229         0.137068   
     11. B(Cr 10,Au  4)                  2.5230         0.137014   
     12. B(Cr 10,Au  1)                  2.5662         0.116943   
     13. B(Cr 10,Au  0)                  2.5230         0.137011   
     14. A(Au  2,Au  1,Cr 10)           95.2518         0.198180   
     15. A(Au  1,Au  2,Au  7)           94.2413         0.141144   
     16. A(Au  1,Au  2,Au  3)           65.0106         0.142264   
     17. A(Au  3,Au  2,Au  7)           94.2642         0.141151   
     18. A(Au  2,Au  3,Cr 10)           95.2578         0.198203   
     19. A(Au  7,Au  6,Cr 10)           95.2787         0.198184   
     20. A(Au  2,Au  7,Au  6)           94.2031         0.141140   
     21. A(Au  2,Au  7,Au  8)           94.2189         0.141146   
     22. A(Au  6,Au  7,Au  8)           65.0010         0.142255   
     23. A(Au  7,Au  8,Cr 10)           95.2821         0.198196   
     24. A(Au  0,Cr 10,Au  5)          114.0285         0.329461   
     25. A(Au  5,Cr 10,Au  6)          105.3314         0.321018   
     26. A(Au  1,Cr 10,Au  8)           76.6599         0.312852   
     27. A(Au  3,Cr 10,Au  8)          115.6869         0.312870   
     28. A(Au  3,Cr 10,Au  6)           76.6711         0.312867   
     29. A(Au  3,Cr 10,Au  4)          105.3332         0.321014   
     30. A(Au  1,Cr 10,Au  3)           70.3683         0.312844   
     31. A(Au  1,Cr 10,Au  6)          115.6738         0.312850   
     32. A(Au  4,Cr 10,Au  9)          114.0472         0.329485   
     33. A(Au  3,Cr 10,Au  9)          108.3570         0.321035   
     34. A(Au  5,Cr 10,Au  9)           72.8648         0.329483   
     35. A(Au  6,Cr 10,Au  9)           65.1701         0.321041   
     36. A(Au  8,Cr 10,Au  9)          105.3354         0.321043   
     37. A(Au  0,Cr 10,Au  6)          108.3743         0.321019   
     38. A(Au  1,Cr 10,Au  4)           65.1738         0.320996   
     39. A(Au  0,Cr 10,Au  9)           72.6619         0.329484   
     40. A(Au  6,Cr 10,Au  8)           70.3633         0.312875   
     41. A(Au  4,Cr 10,Au  5)           72.6637         0.329462   
     42. A(Au  5,Cr 10,Au  8)           65.1720         0.321021   
     43. A(Au  4,Cr 10,Au  8)          108.3565         0.321023   
     44. A(Au  1,Cr 10,Au  5)          108.3645         0.320994   
     45. A(Au  0,Cr 10,Au  4)           72.8602         0.329463   
     46. A(Au  0,Cr 10,Au  3)           65.1770         0.321013   
     47. A(Au  0,Cr 10,Au  1)          105.3422         0.320995   
     48. D(Au  7,Au  2,Au  1,Cr 10)    -50.8709         0.001502   
     49. D(Au  3,Au  2,Au  1,Cr 10)     41.8629         0.001502   
     50. D(Cr 10,Au  3,Au  2,Au  7)     50.8325         0.001502   
     51. D(Cr 10,Au  3,Au  2,Au  1)    -41.8654         0.001502   
     52. D(Au  2,Au  7,Au  6,Cr 10)    -50.8565         0.001502   
     53. D(Au  8,Au  7,Au  6,Cr 10)     41.8444         0.001502   
     54. D(Au  8,Au  7,Au  2,Au  1)      0.0245         0.001502   
     55. D(Au  8,Au  7,Au  2,Au  3)    -65.1879         0.001502   
     56. D(Au  6,Au  7,Au  2,Au  3)      0.0109         0.001502   
     57. D(Au  6,Au  7,Au  2,Au  1)     65.2232         0.001502   
     58. D(Cr 10,Au  8,Au  7,Au  6)    -41.8450         0.001502   
     59. D(Cr 10,Au  8,Au  7,Au  2)     50.8312         0.001502   
     60. D(Au  4,Cr 10,Au  1,Au  2)   -161.8374         0.001554   
     61. D(Au  5,Cr 10,Au  6,Au  7)    -99.4384         0.001554   
     62. D(Au  3,Cr 10,Au  1,Au  2)    -43.5197         0.001554   
     63. D(Au  0,Cr 10,Au  1,Au  2)    -99.4595         0.001554   
     64. D(Au  0,Cr 10,Au  6,Au  7)    138.1525         0.001554   
     65. D(Au  9,Cr 10,Au  3,Au  2)   -138.1122         0.001554   
     66. D(Au  6,Cr 10,Au  3,Au  2)    -80.3412         0.001554   
     67. D(Au  4,Cr 10,Au  3,Au  2)     99.4648         0.001554   
     68. D(Au  1,Cr 10,Au  3,Au  2)     43.5234         0.001554   
     69. D(Au  8,Cr 10,Au  3,Au  2)    -20.1552         0.001554   
     70. D(Au  0,Cr 10,Au  3,Au  2)    161.8504         0.001554   
     71. D(Au  9,Cr 10,Au  8,Au  7)     99.4364         0.001554   
     72. D(Au  1,Cr 10,Au  6,Au  7)     20.1827         0.001554   
     73. D(Au  3,Cr 10,Au  6,Au  7)     80.3819         0.001554   
     74. D(Au  8,Cr 10,Au  1,Au  2)     80.3670         0.001554   
     75. D(Au  8,Cr 10,Au  6,Au  7)    -43.5008         0.001554   
     76. D(Au  9,Cr 10,Au  6,Au  7)   -161.8272         0.001554   
     77. D(Au  1,Cr 10,Au  8,Au  7)    -80.3701         0.001554   
     78. D(Au  6,Cr 10,Au  8,Au  7)     43.5036         0.001554   
     79. D(Au  5,Cr 10,Au  8,Au  7)    161.8237         0.001554   
     80. D(Au  6,Cr 10,Au  1,Au  2)     20.1815         0.001554   
     81. D(Au  4,Cr 10,Au  8,Au  7)   -138.1396         0.001554   
     82. D(Au  3,Cr 10,Au  8,Au  7)    -20.1858         0.001554   
     83. D(Au  5,Cr 10,Au  1,Au  2)    138.1305         0.001554   
    -----------------------------------------------------------------

Number of atoms                         .... 11
Number of degrees of freedom            .... 83

         *************************************************************
         *                GEOMETRY OPTIMIZATION CYCLE   1            *
         *************************************************************
---------------------------------
CARTESIAN COORDINATES (ANGSTROEM)
---------------------------------
  Au     8.555041    3.622018    8.898038
  Au     6.829488    6.956047    7.386844
  Au     9.079661    8.372793    6.679146
  Au     9.554266    5.830227    7.617510
  Au     5.793993    4.762763    8.664047
  Au     6.098310    6.048729   11.345731
  Au     9.878008    7.200031   10.472672
  Au     9.361570    9.568082    9.169830
  Au     7.153243    8.325142   10.241964
  Au     8.859725    4.908511   11.579287
  Cr     7.841733    5.959748    9.524105

----------------------------
CARTESIAN COORDINATES (A.U.)
----------------------------
  NO LB      ZA    FRAG     MASS         X           Y           Z
   0 Au   19.0000*   0   196.966   16.166685    6.844622   16.814856
   1 Au   19.0000*   0   196.966   12.905862   13.145023   13.959111
   2 Au   19.0000*   0   196.966   17.158073   15.822285   12.621757
   3 Au   19.0000*   0   196.966   18.054946   11.017532   14.395008
   4 Au   19.0000*   0   196.966   10.949060    9.000317   16.372675
   5 Au   19.0000*   0   196.966   11.524136   11.430442   21.440325
   6 Au   19.0000*   0   196.966   18.666730   13.606086   19.790481
   7 Au   19.0000*   0   196.966   17.690803   18.081054   17.328468
   8 Au   19.0000*   0   196.966   13.517670   15.732239   19.354506
   9 Au   19.0000*   0   196.966   16.742454    9.275741   21.881680
  10 Cr   24.0000    0    52.000   14.818728   11.262291   17.997951
* core charge reduced due to ECP

--------------------------------
INTERNAL COORDINATES (ANGSTROEM)
--------------------------------
 Au     0   0   0     0.000000000000     0.00000000     0.00000000
 Au     1   0   0     4.046849522422     0.00000000     0.00000000
 Au     2   1   0     2.751596981587    99.87735861     0.00000000
 Au     1   2   3     2.741238602872    46.94717350   353.95703490
 Au     2   1   3     2.741166335543    47.76988770   186.03583648
 Au     5   2   1     2.989607311403    92.02409416    89.98073742
 Au     4   1   2     3.183256027772    87.97848389    89.97659585
 Au     7   4   1     2.751685087666    85.78862983   212.19659618
 Au     6   5   2     2.741029428758    92.01736460     0.00000000
 Au     7   4   1     2.740905097493    87.97022256     0.00000000
 Cr    10   7   4     2.522930082014    58.17404775   316.02407846

---------------------------
INTERNAL COORDINATES (A.U.)
---------------------------
 Au     0   0   0     0.000000000000     0.00000000     0.00000000
 Au     1   0   0     7.647437302568     0.00000000     0.00000000
 Au     2   1   0     5.199764726124    99.87735861     0.00000000
 Au     1   2   3     5.180190227160    46.94717350   353.95703490
 Au     2   1   3     5.180053661700    47.76988770   186.03583648
 Au     5   2   1     5.649539066521    92.02409416    89.98073742
 Au     4   1   2     6.015482106644    87.97848389    89.97659585
 Au     7   4   1     5.199931222484    85.78862983   212.19659618
 Au     6   5   2     5.179794945371    92.01736460     0.00000000
 Au     7   4   1     5.179559993331    87.97022256     0.00000000
 Cr    10   7   4     4.767646910039    58.17404775   316.02407846

---------------------
BASIS SET INFORMATION
---------------------
There are 2 groups of distinct atoms

 Group   1 Type Au  : 8s7p6d1f contracted to 6s4p3d1f pattern {311111/4111/411/1}
 Group   2 Type Cr  : 17s11p7d1f contracted to 6s4p4d1f pattern {842111/6311/4111/1}

Atom   0Au   basis set group =>   1
Atom   1Au   basis set group =>   1
Atom   2Au   basis set group =>   1
Atom   3Au   basis set group =>   1
Atom   4Au   basis set group =>   1
Atom   5Au   basis set group =>   1
Atom   6Au   basis set group =>   1
Atom   7Au   basis set group =>   1
Atom   8Au   basis set group =>   1
Atom   9Au   basis set group =>   1
Atom  10Cr   basis set group =>   2
---------------------------------
AUXILIARY/J BASIS SET INFORMATION
---------------------------------
There are 2 groups of distinct atoms

 Group   1 Type Au  : 11s5p5d3f3g contracted to 8s5p5d2f3g pattern {41111111/11111/11111/21/111}
 Group   2 Type Cr  : 19s5p5d3f3g contracted to 8s5p5d2f3g pattern {121111111/11111/11111/21/111}

Atom   0Au   basis set group =>   1
Atom   1Au   basis set group =>   1
Atom   2Au   basis set group =>   1
Atom   3Au   basis set group =>   1
Atom   4Au   basis set group =>   1
Atom   5Au   basis set group =>   1
Atom   6Au   basis set group =>   1
Atom   7Au   basis set group =>   1
Atom   8Au   basis set group =>   1
Atom   9Au   basis set group =>   1
Atom  10Cr   basis set group =>   2
-------------------------
ECP PARAMETER INFORMATION
-------------------------

 Group 1, Type Au ECP Def2-ECP (replacing 60 core electrons, lmax=3)

Atom   0Au   ECP group =>   1
Atom   1Au   ECP group =>   1
Atom   2Au   ECP group =>   1
Atom   3Au   ECP group =>   1
Atom   4Au   ECP group =>   1
Atom   5Au   ECP group =>   1
Atom   6Au   ECP group =>   1
Atom   7Au   ECP group =>   1
Atom   8Au   ECP group =>   1
Atom   9Au   ECP group =>   1

------------------------------------------------------------------------------
                           ORCA GTO INTEGRAL CALCULATION
                           -- RI-GTO INTEGRALS CHOSEN --
------------------------------------------------------------------------------
------------------------------------------------------------------------------
                   ___                                                        
                  /   \      - P O W E R E D   B Y -                         
                 /     \                                                     
                 |  |  |   _    _      __       _____    __    __             
                 |  |  |  | |  | |    /  \     |  _  \  |  |  /  |          
                  \  \/   | |  | |   /    \    | | | |  |  | /  /          
                 / \  \   | |__| |  /  /\  \   | |_| |  |  |/  /          
                |  |  |   |  __  | /  /__\  \  |    /   |      \           
                |  |  |   | |  | | |   __   |  |    \   |  |\   \          
                \     /   | |  | | |  |  |  |  | |\  \  |  | \   \       
                 \___/    |_|  |_| |__|  |__|  |_| \__\ |__|  \__/        
                                                                              
                      - O R C A' S   B I G   F R I E N D -                    
                                      &                                       
                       - I N T E G R A L  F E E D E R -                       
                                                                              
 v1 FN, 2020, v2 2021                                                         
------------------------------------------------------------------------------


Reading SHARK input file pbe.SHARKINP.tmp ... ok
----------------------
SHARK INTEGRAL PACKAGE
----------------------

Number of atoms                             ...     11
Number of basis functions                   ...    445
Number of shells                            ...    155
Maximum angular momentum                    ...      3
Integral batch strategy                     ... SHARK/LIBINT Hybrid
RI-J (if used) integral strategy            ... SPLIT-RIJ (Revised 2003 algorithm where possible)
Printlevel                                  ...      1
Contraction scheme used                     ... SEGMENTED contraction
Coulomb Range Separation                    ... NOT USED
Exchange Range Separation                   ... NOT USED
Finite Nucleus Model                        ... NOT USED
Auxiliary Coulomb fitting basis             ... AVAILABLE
   # of basis functions in Aux-J            ...    979
   # of shells in Aux-J                     ...    253
   Maximum angular momentum in Aux-J        ...      4
Auxiliary J/K fitting basis                 ... NOT available
Auxiliary Correlation fitting basis         ... NOT available
Auxiliary 'external' fitting basis          ... NOT available
Integral threshold                          ...     2.500000e-11
Primitive cut-off                           ...     2.500000e-12
Primitive pair pre-selection threshold      ...     2.500000e-12

Calculating pre-screening integrals         ... done (  0.2 sec) Dimension = 155
Organizing shell pair data                  ... done (  0.2 sec)
Shell pair information
Total number of shell pairs                 ...     12090
Shell pairs after pre-screening             ...     10155
Total number of primitive shell pairs       ...     33105
Primitive shell pairs kept                  ...     20493
          la=0 lb=0:   1589 shell pairs
          la=1 lb=0:   2324 shell pairs
          la=1 lb=1:    865 shell pairs
          la=2 lb=0:   1996 shell pairs
          la=2 lb=1:   1410 shell pairs
          la=2 lb=2:    583 shell pairs
          la=3 lb=0:    552 shell pairs
          la=3 lb=1:    428 shell pairs
          la=3 lb=2:    350 shell pairs
          la=3 lb=3:     58 shell pairs

Calculating one electron integrals          ... done (  0.1 sec)
Calculating ECP integrals                   ... done (  5.3 sec)
Calculating RI/J V-Matrix + Cholesky decomp.... done (  0.0 sec)
Calculating Nuclear repulsion               ... done (  0.0 sec) ENN=   3174.532937256577 Eh

SHARK setup successfully completed in   6.4 seconds

Maximum memory used throughout the entire GTOINT-calculation: 305.3 MB
-------------------------------------------------------------------------------
                                 ORCA SCF
-------------------------------------------------------------------------------

------------
SCF SETTINGS
------------
Hamiltonian:
 Density Functional     Method          .... DFT(GTOs)
 Exchange Functional    Exchange        .... PBE
   PBE kappa parameter   XKappa         ....  0.804000
   PBE mue parameter    XMuePBE         ....  0.219520
 Correlation Functional Correlation     .... PBE
   PBE beta parameter  CBetaPBE         ....  0.066725
 LDA part of GGA corr.  LDAOpt          .... PW91-LDA
 Gradients option       PostSCFGGA      .... off
   Density functional embedding theory  .... OFF
   NL short-range parameter             ....  6.400000
 RI-approximation to the Coulomb term is turned on
   Number of AuxJ basis functions       .... 979


General Settings:
 Integral files         IntName         .... pbe
 Hartree-Fock type      HFTyp           .... UHF
 Total Charge           Charge          ....    0
 Multiplicity           Mult            ....    5
 Number of Electrons    NEL             ....  214
 Basis Dimension        Dim             ....  445
 Nuclear Repulsion      ENuc            ....   3174.5329372566 Eh

Convergence Acceleration:
 DIIS                   CNVDIIS         .... off
 Trust-Rad. Augm. Hess. CNVTRAH         .... auto
   Auto Start mean grad. ratio tolernc. ....  1.125000
   Auto Start start iteration           ....    20
   Auto Start num. interpolation iter.  ....    10
   Max. Number of Micro iterations      ....    16
   Max. Number of Macro iterations      .... Maxiter - #DIIS iter
   Number of Davidson start vectors     ....     2
   Converg. threshold I  (grad. norm)   ....   1.000e-05
   Converg. threshold II (energy diff.) ....   1.000e-08
   Grad. Scal. Fac. for Micro threshold ....   0.100
   Minimum threshold for Micro iter.    ....   0.010
   NR start threshold (gradient norm)   ....   0.001
   Initial trust radius                 ....   0.400
   Minimum AH scaling param. (alpha)    ....   1.000
   Maximum AH scaling param. (alpha)    .... 1000.000
   Orbital update algorithm             .... Taylor
   White noise on init. David. guess    .... on
   Maximum white noise                  ....   0.010
   Quad. conv. algorithm                .... NR
 SOSCF                  CNVSOSCF        .... off
 Level Shifting         CNVShift        .... off
 Zerner damping         CNVZerner       .... off
 Static damping         CNVDamp         .... off
 Fernandez-Rico         CNVRico         .... off

SCF Procedure:
 Maximum # iterations   MaxIter         ....   125
 SCF integral mode      SCFMode         .... Direct
   Integral package                     .... SHARK and LIBINT hybrid scheme
 Reset frequency        DirectResetFreq ....    20
 Integral Threshold     Thresh          ....  2.500e-11 Eh
 Primitive CutOff       TCut            ....  2.500e-12 Eh

Convergence Tolerance:
 Convergence Check Mode ConvCheckMode   .... Total+1el-Energy
 Convergence forced     ConvForced      .... 0
 Energy Change          TolE            ....  1.000e-08 Eh
 1-El. energy change                    ....  1.000e-05 Eh


Diagonalization of the overlap matrix:
Smallest eigenvalue                        ... 2.005e-04
Time for diagonalization                   ...    0.027 sec
Threshold for overlap eigenvalues          ... 1.000e-08
Number of eigenvalues below threshold      ... 0
Time for construction of square roots      ...    0.013 sec
Total time needed                          ...    0.040 sec

Time for model grid setup =    0.972 sec

------------------------------
INITIAL GUESS: MODEL POTENTIAL
------------------------------
Loading Hartree-Fock densities                     ... done
  calling /media/Programs/ORCA501/orca pbe_atom79.inp > pbe_atom79.out in order to generate an atomic fitting density for atom 0 (Au with ECP) on-the-fly... 
    atom 0 (Au), assumed electronic state with S=2: 1s2 2s2 2p6 3s2 3p6 4s2 3d10 4p6 5s2 4d10 5p6 6s1 4f14 5d10           ... done
Calculating cut-offs                               ... done
Initializing the effective Hamiltonian             ... done
Setting up the integral package (SHARK)            ... done
Starting the Coulomb interaction                   ... done (   1.2 sec)
Reading the grid                                   ... done
Mapping shells                                     ... done
Starting the XC term evaluation                    ... done (   1.7 sec)
  promolecular density results
     # of electrons  =    814.011658177
     EX              =  -3705.436774015
     EC              =    -49.429738566
     EX+EC           =  -3754.866512581
Transforming the Hamiltonian                       ... done (   0.0 sec)
Diagonalizing the Hamiltonian                      ... done (   0.0 sec)
Back transforming the eigenvectors                 ... done (   0.0 sec)
Now organizing SCF variables                       ... done
                      ------------------
                      INITIAL GUESS DONE (   4.7 sec)
                      ------------------
-------------------
DFT GRID GENERATION
-------------------

General Integration Accuracy     IntAcc      ... 4.388
Radial Grid Type                 RadialGrid  ... OptM3 with GC (2021)
Angular Grid (max. ang.)         AngularGrid ... 4 (Lebedev-302)
Angular grid pruning method      GridPruning ... 4 (adaptive)
Weight generation scheme         WeightScheme... Becke
Basis function cutoff            BFCut       ... 1.0000e-11
Integration weight cutoff        WCut        ... 1.0000e-14
Angular grids for H and He will be reduced by one unit
Partially contracted basis set               ... off
Rotationally invariant grid construction     ... off

Total number of grid points                  ...   123242
Total number of batches                      ...     1932
Average number of points per batch           ...       63
Average number of grid points per atom       ...    11204
Time for grid setup =    2.555 sec

--------------
SCF ITERATIONS
--------------
ITER       Energy         Delta-E        Max-DP      RMS-DP      [F,P]   Gradient Norm
               ***  Starting incremental Fock matrix formation  ***
                             ****Resetting KDIIS****
                             ****Turning on KDIIS(Cayley)****
  0  -2401.2576681118   0.000000000000 0.49108390  0.00203195  0.3412918   0.203833049
  1  -2401.8546684348  -0.597000322994 0.39747502  0.00143656  0.3052494   0.164981491
  2  -2402.1978478440  -0.343179409224 0.09506409  0.00120131  0.2412261   0.123940711
  3  -2402.3720372394  -0.174189395379 0.22063522  0.00163299  0.1408617   0.071224581
  4  -2402.4101588923  -0.038121652911 0.12107092  0.00060369  0.0396131   0.023513053
  5  -2402.4443455870  -0.034186694657 0.04488920  0.00028127  0.0105936   0.003987234
  6  -2402.4467642462  -0.002418659256 0.04233179  0.00027184  0.0134130   0.003260054
  7  -2402.4486276866  -0.001863440398 0.09339246  0.00030326  0.0103043   0.003284545
  8  -2402.4470311115   0.001596575094 0.05368860  0.00021336  0.0106153   0.005914577
  9  -2402.4502695066  -0.003238395086 0.04027863  0.00015520  0.0063834   0.001702083
 10  -2402.4507735964  -0.000504089781 0.02463239  0.00008933  0.0059327   0.002446887
 11  -2402.4510363484  -0.000262751985 0.00677475  0.00007571  0.0045518   0.001386416
 12  -2402.4513861431  -0.000349794700 0.00601287  0.00006003  0.0025553   0.001381086
 13  -2402.4514632561  -0.000077112954 0.01559145  0.00014271  0.0030530   0.000837487
 14  -2402.4519697081  -0.000506452035 0.01536536  0.00007706  0.0020075   0.000936355
 15  -2402.4518352134   0.000134494647 0.00900670  0.00008014  0.0028490   0.000967080
 16  -2402.4520643497  -0.000229136270 0.00604110  0.00003054  0.0008004   0.000543634
 17  -2402.4520516502   0.000012699489 0.00421443  0.00002509  0.0017937   0.000676591
 18  -2402.4520990117  -0.000047361499 0.00195044  0.00001934  0.0008336   0.000323748
 19  -2402.4520995770  -0.000000565295 0.00159112  0.00001460  0.0011425   0.000371589
               *** Restarting incremental Fock matrix formation ***
                             ****Resetting KDIIS****
 20  -2402.4521170508  -0.000017473761 0.00047974  0.00000205  0.0008699   0.000157518
 21  -2402.4521187753  -0.000001724550 0.00028544  0.00000196  0.0007339   0.000104185
 22  -2402.4521205063  -0.000001730951 0.00024200  0.00000317  0.0007446   0.000083710
 23  -2402.4521235871  -0.000003080862 0.00093991  0.00001835  0.0006601   0.000075870
 24  -2402.4521349125  -0.000011325393 0.00097749  0.00001660  0.0004127   0.000152991
 25  -2402.4521417579  -0.000006845405 0.00195430  0.00000532  0.0001094   0.000042421
 26  -2402.4521416378   0.000000120130 0.00140396  0.00000554  0.0001695   0.000084941
 27  -2402.4521424924  -0.000000854639 0.00016465  0.00000094  0.0001103   0.000023051
 28  -2402.4521425330  -0.000000040534 0.00022189  0.00000351  0.0001012   0.000026529
 29  -2402.4521427774  -0.000000244382 0.00024823  0.00000156  0.0000682   0.000023639
 30  -2402.4521428172  -0.000000039833 0.00010288  0.00000100  0.0000442   0.000011314
 31  -2402.4521428263  -0.000000009070 0.00012171  0.00000086  0.0000367   0.000016282
 32  -2402.4521428317  -0.000000005449 0.00025179  0.00000083  0.0000327   0.000004627
 33  -2402.4521428452  -0.000000013487 0.00016775  0.00000064  0.0000194   0.000009017
 34  -2402.4521428063   0.000000038883 0.00016692  0.00000050  0.0000206   0.000004460
                 **** Energy Check signals convergence ****
                    *** KDIIS BlockDiag ( 0.049 sec) ***

               *****************************************************
               *                     SUCCESS                       *
               *           SCF CONVERGED AFTER  35 CYCLES          *
               *****************************************************


----------------
TOTAL SCF ENERGY
----------------

Total Energy       :        -2402.45214281 Eh          -65374.04636 eV

Components:
Nuclear Repulsion  :         3174.53293726 Eh           86383.43287 eV
Electronic Energy  :        -5576.98508007 Eh         -151757.47923 eV
One Electron Energy:       -10165.20745908 Eh         -276609.35751 eV
Two Electron Energy:         4588.22237902 Eh          124851.87828 eV

Virial components:
Potential Energy   :        -3903.09656964 Eh         -106208.65720 eV
Kinetic Energy     :         1500.64442683 Eh           40834.61085 eV
Virial Ratio       :            2.60094697


DFT components:
N(Alpha)           :      108.999971787154 electrons
N(Beta)            :      104.999967749136 electrons
N(Total)           :      213.999939536290 electrons
E(X)               :     -167.891110078658 Eh       
E(C)               :       -9.272980994440 Eh       
E(XC)              :     -177.164091073098 Eh       
DFET-embed. en.    :        0.000000000000 Eh       

---------------
SCF CONVERGENCE
---------------

  Last Energy change         ...   -4.5688e-09  Tolerance :   1.0000e-08
  Last MAX-Density change    ...    1.0011e-04  Tolerance :   1.0000e-07
  Last RMS-Density change    ...    3.3812e-07  Tolerance :   5.0000e-09

             **** THE GBW FILE WAS UPDATED (pbe.gbw) ****
             **** DENSITY pbe.scfp WAS UPDATED ****
             **** ENERGY FILE WAS UPDATED (pbe.en.tmp) ****
----------------------
UHF SPIN CONTAMINATION
----------------------

Warning: in a DFT calculation there is little theoretical justification to 
         calculate <S**2> as in Hartree-Fock theory. We will do it anyways
         but you should keep in mind that the values have only limited relevance

Expectation value of <S**2>     :     6.307634
Ideal value S*(S+1) for S=2.0   :     6.000000
Deviation                       :     0.307634

             **** THE GBW FILE WAS UPDATED (pbe.gbw) ****
             **** DENSITY pbe.scfp WAS UPDATED ****
----------------
ORBITAL ENERGIES
----------------
                 SPIN UP ORBITALS
  NO   OCC          E(Eh)            E(eV) 
   0   1.0000    -214.502161     -5836.9005 
   1   1.0000     -24.309882      -661.5055 
   2   1.0000     -20.674924      -562.5933 
   3   1.0000     -20.674423      -562.5797 
   4   1.0000     -20.671705      -562.5057 
   5   1.0000      -4.023661      -109.4894 
   6   1.0000      -4.023646      -109.4890 
   7   1.0000      -4.023610      -109.4880 
   8   1.0000      -4.023594      -109.4876 
   9   1.0000      -4.018237      -109.3418 
  10   1.0000      -4.018197      -109.3407 
  11   1.0000      -4.018193      -109.3406 
  12   1.0000      -4.018153      -109.3395 
  13   1.0000      -4.012918      -109.1971 
  14   1.0000      -4.012786      -109.1935 
  15   1.0000      -2.803471       -76.2863 
  16   1.0000      -2.243044       -61.0363 
  17   1.0000      -2.242895       -61.0323 
  18   1.0000      -2.242763       -61.0287 
  19   1.0000      -2.242516       -61.0220 
  20   1.0000      -2.239326       -60.9351 
  21   1.0000      -2.239006       -60.9265 
  22   1.0000      -2.238571       -60.9146 
  23   1.0000      -2.238139       -60.9029 
  24   1.0000      -2.238136       -60.9028 
  25   1.0000      -2.237818       -60.8941 
  26   1.0000      -2.237213       -60.8777 
  27   1.0000      -2.236937       -60.8702 
  28   1.0000      -2.230550       -60.6963 
  29   1.0000      -2.230215       -60.6872 
  30   1.0000      -2.230013       -60.6817 
  31   1.0000      -2.229690       -60.6730 
  32   1.0000      -2.229646       -60.6718 
  33   1.0000      -2.229327       -60.6631 
  34   1.0000      -2.229121       -60.6575 
  35   1.0000      -2.228764       -60.6478 
  36   1.0000      -2.228451       -60.6392 
  37   1.0000      -2.227993       -60.6268 
  38   1.0000      -2.225527       -60.5597 
  39   1.0000      -2.225394       -60.5561 
  40   1.0000      -2.225246       -60.5520 
  41   1.0000      -2.224720       -60.5377 
  42   1.0000      -2.224677       -60.5365 
  43   1.0000      -2.224558       -60.5333 
  44   1.0000      -2.223932       -60.5163 
  45   1.0000      -2.221618       -60.4533 
  46   1.0000      -1.795210       -48.8501 
  47   1.0000      -1.793187       -48.7951 
  48   1.0000      -1.790370       -48.7185 
  49   1.0000      -0.402140       -10.9428 
  50   1.0000      -0.363436        -9.8896 
  51   1.0000      -0.357437        -9.7264 
  52   1.0000      -0.355836        -9.6828 
  53   1.0000      -0.353809        -9.6276 
  54   1.0000      -0.353475        -9.6185 
  55   1.0000      -0.349015        -9.4972 
  56   1.0000      -0.344520        -9.3749 
  57   1.0000      -0.337530        -9.1847 
  58   1.0000      -0.334934        -9.1140 
  59   1.0000      -0.333466        -9.0741 
  60   1.0000      -0.331583        -9.0228 
  61   1.0000      -0.329445        -8.9646 
  62   1.0000      -0.328173        -8.9300 
  63   1.0000      -0.325645        -8.8613 
  64   1.0000      -0.318309        -8.6616 
  65   1.0000      -0.312388        -8.5005 
  66   1.0000      -0.308837        -8.4039 
  67   1.0000      -0.304239        -8.2788 
  68   1.0000      -0.302595        -8.2340 
  69   1.0000      -0.301596        -8.2068 
  70   1.0000      -0.296242        -8.0612 
  71   1.0000      -0.295547        -8.0423 
  72   1.0000      -0.294451        -8.0124 
  73   1.0000      -0.293258        -7.9799 
  74   1.0000      -0.292756        -7.9663 
  75   1.0000      -0.291930        -7.9438 
  76   1.0000      -0.287517        -7.8237 
  77   1.0000      -0.287326        -7.8185 
  78   1.0000      -0.282899        -7.6981 
  79   1.0000      -0.282487        -7.6869 
  80   1.0000      -0.280117        -7.6224 
  81   1.0000      -0.277581        -7.5534 
  82   1.0000      -0.276721        -7.5300 
  83   1.0000      -0.273127        -7.4322 
  84   1.0000      -0.271662        -7.3923 
  85   1.0000      -0.269011        -7.3202 
  86   1.0000      -0.268270        -7.3000 
  87   1.0000      -0.265299        -7.2191 
  88   1.0000      -0.265060        -7.2127 
  89   1.0000      -0.260696        -7.0939 
  90   1.0000      -0.258260        -7.0276 
  91   1.0000      -0.257830        -7.0159 
  92   1.0000      -0.254929        -6.9370 
  93   1.0000      -0.252890        -6.8815 
  94   1.0000      -0.251121        -6.8333 
  95   1.0000      -0.250049        -6.8042 
  96   1.0000      -0.247212        -6.7270 
  97   1.0000      -0.244753        -6.6601 
  98   1.0000      -0.244522        -6.6538 
  99   1.0000      -0.242981        -6.6118 
 100   1.0000      -0.233918        -6.3652 
 101   1.0000      -0.231988        -6.3127 
 102   1.0000      -0.230482        -6.2717 
 103   1.0000      -0.214495        -5.8367 
 104   1.0000      -0.208222        -5.6660 
 105   1.0000      -0.205287        -5.5861 
 106   1.0000      -0.204592        -5.5672 
 107   1.0000      -0.196546        -5.3483 
 108   1.0000      -0.178856        -4.8669 
 109   0.0000      -0.170979        -4.6526 
 110   0.0000      -0.151346        -4.1183 
 111   0.0000      -0.149917        -4.0794 
 112   0.0000      -0.114536        -3.1167 
 113   0.0000      -0.112401        -3.0586 
 114   0.0000      -0.104552        -2.8450 
 115   0.0000      -0.082957        -2.2574 
 116   0.0000      -0.069780        -1.8988 
 117   0.0000      -0.059715        -1.6249 
 118   0.0000      -0.046638        -1.2691 
 119   0.0000      -0.045312        -1.2330 
 120   0.0000      -0.035862        -0.9758 
 121   0.0000      -0.022040        -0.5997 
 122   0.0000      -0.013993        -0.3808 
 123   0.0000       0.007795         0.2121 
 124   0.0000       0.010706         0.2913 
 125   0.0000       0.016447         0.4476 
 126   0.0000       0.018022         0.4904 
 127   0.0000       0.034494         0.9386 
 128   0.0000       0.036886         1.0037 
 129   0.0000       0.038144         1.0379 
 130   0.0000       0.043159         1.1744 
 131   0.0000       0.048119         1.3094 
 132   0.0000       0.056175         1.5286 
 133   0.0000       0.057829         1.5736 
 134   0.0000       0.064190         1.7467 
 135   0.0000       0.065846         1.7918 
 136   0.0000       0.071570         1.9475 
 137   0.0000       0.075271         2.0482 
 138   0.0000       0.084450         2.2980 
 139   0.0000       0.089856         2.4451 
 140   0.0000       0.100868         2.7448 
 141   0.0000       0.106612         2.9010 
 142   0.0000       0.108874         2.9626 
 143   0.0000       0.111688         3.0392 
 144   0.0000       0.117342         3.1930 
 145   0.0000       0.127313         3.4644 
 146   0.0000       0.134385         3.6568 
 147   0.0000       0.136964         3.7270 
 148   0.0000       0.140497         3.8231 
 149   0.0000       0.141951         3.8627 
 150   0.0000       0.153963         4.1896 
 151   0.0000       0.158317         4.3080 
 152   0.0000       0.180742         4.9182 
 153   0.0000       0.183671         4.9979 
 154   0.0000       0.205424         5.5899 
 155   0.0000       0.211231         5.7479 
 156   0.0000       0.226768         6.1707 
 157   0.0000       0.233123         6.3436 
 158   0.0000       0.236745         6.4421 
 159   0.0000       0.240029         6.5315 
 160   0.0000       0.251936         6.8555 
 161   0.0000       0.252110         6.8603 
 162   0.0000       0.258399         7.0314 
 163   0.0000       0.258757         7.0411 
 164   0.0000       0.266889         7.2624 
 165   0.0000       0.272526         7.4158 
 166   0.0000       0.278461         7.5773 
 167   0.0000       0.278793         7.5864 
 168   0.0000       0.280678         7.6376 
 169   0.0000       0.285394         7.7660 
 170   0.0000       0.290730         7.9112 
 171   0.0000       0.302494         8.2313 
 172   0.0000       0.308340         8.3904 
 173   0.0000       0.312335         8.4991 
 174   0.0000       0.312452         8.5023 
 175   0.0000       0.317701         8.6451 
 176   0.0000       0.334298         9.0967 
 177   0.0000       0.334979         9.1152 
 178   0.0000       0.341249         9.2859 
 179   0.0000       0.346144         9.4190 
 180   0.0000       0.350215         9.5298 
 181   0.0000       0.350765         9.5448 
 182   0.0000       0.351205         9.5568 
 183   0.0000       0.365995         9.9592 
 184   0.0000       0.369387        10.0515 
 185   0.0000       0.370279        10.0758 
 186   0.0000       0.382173        10.3994 
 187   0.0000       0.382261        10.4019 
 188   0.0000       0.386044        10.5048 
 189   0.0000       0.388307        10.5664 
 190   0.0000       0.393190        10.6993 
 191   0.0000       0.397075        10.8050 
 192   0.0000       0.405512        11.0345 
 193   0.0000       0.411868        11.2075 
 194   0.0000       0.415360        11.3025 
 195   0.0000       0.425924        11.5900 
 196   0.0000       0.430922        11.7260 
 197   0.0000       0.441290        12.0081 
 198   0.0000       0.444003        12.0819 
 199   0.0000       0.451354        12.2820 
 200   0.0000       0.456693        12.4272 
 201   0.0000       0.461387        12.5550 
 202   0.0000       0.469494        12.7756 
 203   0.0000       0.474530        12.9126 
 204   0.0000       0.490910        13.3583 
 205   0.0000       0.496267        13.5041 
 206   0.0000       0.502789        13.6816 
 207   0.0000       0.502831        13.6827 
 208   0.0000       0.503049        13.6887 
 209   0.0000       0.507769        13.8171 
 210   0.0000       0.515612        14.0305 
 211   0.0000       0.529594        14.4110 
 212   0.0000       0.552249        15.0275 
 213   0.0000       0.552922        15.0458 
 214   0.0000       0.554516        15.0892 
 215   0.0000       0.560028        15.2391 
 216   0.0000       0.573504        15.6058 
 217   0.0000       0.573647        15.6097 
 218   0.0000       0.577272        15.7084 
 219   0.0000       0.610557        16.6141 
 220   0.0000       0.631904        17.1950 
 221   0.0000       0.648202        17.6385 
 222   0.0000       0.710643        19.3376 
 223   0.0000       0.715295        19.4642 
 224   0.0000       0.719038        19.5660 
 225   0.0000       0.740853        20.1596 
 226   0.0000       0.751952        20.4617 
 227   0.0000       0.753008        20.4904 
 228   0.0000       0.792855        21.5747 
 229   0.0000       0.804475        21.8909 
 230   0.0000       0.814766        22.1709 
 231   0.0000       0.821635        22.3578 
 232   0.0000       0.830438        22.5974 
 233   0.0000       0.830754        22.6060 
 234   0.0000       0.833913        22.6919 
 235   0.0000       0.834172        22.6990 
 236   0.0000       0.848365        23.0852 
 237   0.0000       0.867410        23.6034 
 238   0.0000       0.869379        23.6570 
 239   0.0000       0.879667        23.9370 
 240   0.0000       0.883587        24.0436 
 241   0.0000       0.895404        24.3652 
 242   0.0000       0.926193        25.2030 
 243   0.0000       0.943937        25.6858 
 244   0.0000       0.949934        25.8490 
 245   0.0000       0.981093        26.6969 
 246   0.0000       1.142748        31.0958 
 247   0.0000       1.173547        31.9338 
 248   0.0000       1.191404        32.4198 
 249   0.0000       1.195269        32.5249 
 250   0.0000       1.216520        33.1032 
 251   0.0000       1.239089        33.7173 
 252   0.0000       1.244345        33.8604 
 253   0.0000       1.250086        34.0166 
 254   0.0000       1.259746        34.2794 
 255   0.0000       1.276823        34.7441 
 256   0.0000       1.285550        34.9816 
 257   0.0000       1.308750        35.6129 
 258   0.0000       1.337884        36.4057 
 259   0.0000       1.338249        36.4156 
 260   0.0000       1.342391        36.5283 
 261   0.0000       1.344960        36.5982 
 262   0.0000       1.377186        37.4751 
 263   0.0000       1.377948        37.4959 
 264   0.0000       1.378968        37.5236 
 265   0.0000       1.386978        37.7416 
 266   0.0000       1.395586        37.9758 
 267   0.0000       1.396379        37.9974 
 268   0.0000       1.396742        38.0073 
 269   0.0000       1.416751        38.5517 
 270   0.0000       1.422221        38.7006 
 271   0.0000       1.422806        38.7165 
 272   0.0000       1.425900        38.8007 
 273   0.0000       1.428466        38.8705 
 274   0.0000       1.430732        38.9322 
 275   0.0000       1.438379        39.1403 
 276   0.0000       1.443267        39.2733 
 277   0.0000       1.445961        39.3466 
 278   0.0000       1.449109        39.4323 
 279   0.0000       1.450135        39.4602 
 280   0.0000       1.452763        39.5317 
 281   0.0000       1.454744        39.5856 
 282   0.0000       1.457689        39.6657 
 283   0.0000       1.460772        39.7496 
 284   0.0000       1.466022        39.8925 
 285   0.0000       1.471493        40.0414 
 286   0.0000       1.475194        40.1421 
 287   0.0000       1.479317        40.2543 
 288   0.0000       1.480069        40.2747 
 289   0.0000       1.480867        40.2964 
 290   0.0000       1.481798        40.3218 
 291   0.0000       1.483742        40.3747 
 292   0.0000       1.490053        40.5464 
 293   0.0000       1.491192        40.5774 
 294   0.0000       1.491579        40.5879 
 295   0.0000       1.491676        40.5906 
 296   0.0000       1.497875        40.7592 
 297   0.0000       1.498123        40.7660 
 298   0.0000       1.498229        40.7689 
 299   0.0000       1.502194        40.8768 
 300   0.0000       1.505663        40.9712 
 301   0.0000       1.507994        41.0346 
 302   0.0000       1.509278        41.0695 
 303   0.0000       1.509381        41.0723 
 304   0.0000       1.512954        41.1696 
 305   0.0000       1.516242        41.2590 
 306   0.0000       1.520736        41.3813 
 307   0.0000       1.521010        41.3888 
 308   0.0000       1.522599        41.4320 
 309   0.0000       1.524713        41.4896 
 310   0.0000       1.524817        41.4924 
 311   0.0000       1.528554        41.5941 
 312   0.0000       1.532786        41.7092 
 313   0.0000       1.533038        41.7161 
 314   0.0000       1.536357        41.8064 
 315   0.0000       1.539556        41.8935 
 316   0.0000       1.540421        41.9170 
 317   0.0000       1.541298        41.9409 
 318   0.0000       1.547265        42.1032 
 319   0.0000       1.548867        42.1468 
 320   0.0000       1.549124        42.1538 
 321   0.0000       1.549621        42.1673 
 322   0.0000       1.554686        42.3052 
 323   0.0000       1.557866        42.3917 
 324   0.0000       1.560649        42.4674 
 325   0.0000       1.562347        42.5136 
 326   0.0000       1.562875        42.5280 
 327   0.0000       1.566587        42.6290 
 328   0.0000       1.570377        42.7321 
 329   0.0000       1.571250        42.7559 
 330   0.0000       1.571327        42.7580 
 331   0.0000       1.575672        42.8762 
 332   0.0000       1.578112        42.9426 
 333   0.0000       1.581292        43.0291 
 334   0.0000       1.582748        43.0688 
 335   0.0000       1.584331        43.1118 
 336   0.0000       1.584973        43.1293 
 337   0.0000       1.596201        43.4348 
 338   0.0000       1.600520        43.5524 
 339   0.0000       1.605313        43.6828 
 340   0.0000       1.607990        43.7556 
 341   0.0000       1.613527        43.9063 
 342   0.0000       1.620275        44.0899 
 343   0.0000       1.622888        44.1610 
 344   0.0000       1.630646        44.3721 
 345   0.0000       1.632359        44.4188 
 346   0.0000       1.633904        44.4608 
 347   0.0000       1.636609        44.5344 
 348   0.0000       1.643704        44.7275 
 349   0.0000       1.651768        44.9469 
 350   0.0000       1.656493        45.0755 
 351   0.0000       1.663396        45.2633 
 352   0.0000       1.666991        45.3611 
 353   0.0000       1.668335        45.3977 
 354   0.0000       1.682076        45.7716 
 355   0.0000       1.706225        46.4287 
 356   0.0000       1.712650        46.6036 
 357   0.0000       1.722483        46.8711 
 358   0.0000       1.759297        47.8729 
 359   0.0000       1.775369        48.3103 
 360   0.0000       1.798212        48.9318 
 361   0.0000       1.801423        49.0192 
 362   0.0000       1.803703        49.0813 
 363   0.0000       1.835681        49.9514 
 364   0.0000       1.867684        50.8223 
 365   0.0000       1.875114        51.0245 
 366   0.0000       1.883197        51.2444 
 367   0.0000       1.885382        51.3038 
 368   0.0000       1.901404        51.7398 
 369   0.0000       1.998827        54.3908 
 370   0.0000       2.000889        54.4470 
 371   0.0000       2.014790        54.8252 
 372   0.0000       2.131238        57.9939 
 373   0.0000       2.196614        59.7729 
 374   0.0000       2.216681        60.3190 
 375   0.0000       2.226952        60.5984 
 376   0.0000       2.231144        60.7125 
 377   0.0000       2.250841        61.2485 
 378   0.0000       2.331368        63.4397 
 379   0.0000       2.346261        63.8450 
 380   0.0000       2.368464        64.4492 
 381   0.0000       2.399075        65.2821 
 382   0.0000       2.451657        66.7130 
 383   0.0000       2.475941        67.3738 
 384   0.0000       2.576135        70.1002 
 385   0.0000       2.634300        71.6829 
 386   0.0000       2.721166        74.0467 
 387   0.0000       2.756578        75.0103 
 388   0.0000       2.826672        76.9177 
 389   0.0000       2.829234        76.9874 
 390   0.0000       2.836253        77.1784 
 391   0.0000       2.897070        78.8333 
 392   0.0000       2.905566        79.0645 
 393   0.0000       2.909775        79.1790 
 394   0.0000       3.005000        81.7702 
 395   0.0000      23.469897       638.6484 
 396   0.0000      23.624777       642.8629 
 397   0.0000      23.665033       643.9583 
 398   0.0000      24.072200       655.0379 
 399   0.0000      24.520159       667.2274 
 400   0.0000      24.719785       672.6595 
 401   0.0000      24.922840       678.1850 
 402   0.0000      25.011845       680.6069 
 403   0.0000      25.542511       695.0471 
 404   0.0000      25.562981       695.6041 
 405   0.0000      25.685265       698.9316 
 406   0.0000      25.757224       700.8897 
 407   0.0000      25.769358       701.2199 
 408   0.0000      25.817531       702.5307 
 409   0.0000      26.013106       707.8526 
 410   0.0000      26.215233       713.3528 
 411   0.0000      26.499405       721.0855 
 412   0.0000      26.524194       721.7600 
 413   0.0000      26.530492       721.9314 
 414   0.0000      26.692674       726.3446 
 415   0.0000      26.700665       726.5620 
 416   0.0000      27.018631       735.2143 
 417   0.0000      27.025807       735.4096 
 418   0.0000      27.125889       738.1330 
 419   0.0000      27.167249       739.2584 
 420   0.0000      27.202672       740.2223 
 421   0.0000      27.615778       751.4635 
 422   0.0000      29.601790       805.5057 
 423   0.0000      29.804085       811.0104 
 424   0.0000      30.035410       817.3051 
 425   0.0000      43.884087      1194.1467 
 426   0.0000      43.922434      1195.1902 
 427   0.0000      43.949603      1195.9295 
 428   0.0000      43.954380      1196.0595 
 429   0.0000      44.040746      1198.4096 
 430   0.0000      44.085508      1199.6277 
 431   0.0000      44.144502      1201.2330 
 432   0.0000      44.187944      1202.4151 
 433   0.0000      44.204290      1202.8599 
 434   0.0000      44.242722      1203.9057 
 435   0.0000     205.088612      5580.7449 
 436   0.0000     205.105494      5581.2042 
 437   0.0000     205.115920      5581.4879 
 438   0.0000     205.117264      5581.5245 
 439   0.0000     205.153432      5582.5087 
 440   0.0000     205.171981      5583.0134 
 441   0.0000     205.193240      5583.5919 
 442   0.0000     205.204784      5583.9060 
 443   0.0000     205.217532      5584.2529 
 444   0.0000     205.237859      5584.8061 

                 SPIN DOWN ORBITALS
  NO   OCC          E(Eh)            E(eV) 
   0   1.0000    -214.501706     -5836.8882 
   1   1.0000     -24.270117      -660.4235 
   2   1.0000     -20.645979      -561.8057 
   3   1.0000     -20.643615      -561.7413 
   4   1.0000     -20.640185      -561.6480 
   5   1.0000      -4.021662      -109.4350 
   6   1.0000      -4.021648      -109.4346 
   7   1.0000      -4.021611      -109.4336 
   8   1.0000      -4.021596      -109.4332 
   9   1.0000      -4.016286      -109.2887 
  10   1.0000      -4.016246      -109.2876 
  11   1.0000      -4.016242      -109.2875 
  12   1.0000      -4.016202      -109.2864 
  13   1.0000      -4.011524      -109.1591 
  14   1.0000      -4.011392      -109.1555 
  15   1.0000      -2.696881       -73.3859 
  16   1.0000      -2.240541       -60.9682 
  17   1.0000      -2.240405       -60.9645 
  18   1.0000      -2.240242       -60.9601 
  19   1.0000      -2.240017       -60.9540 
  20   1.0000      -2.236858       -60.8680 
  21   1.0000      -2.236620       -60.8615 
  22   1.0000      -2.235960       -60.8436 
  23   1.0000      -2.235621       -60.8343 
  24   1.0000      -2.235599       -60.8337 
  25   1.0000      -2.235266       -60.8247 
  26   1.0000      -2.234770       -60.8112 
  27   1.0000      -2.234462       -60.8028 
  28   1.0000      -2.228590       -60.6430 
  29   1.0000      -2.228210       -60.6327 
  30   1.0000      -2.228023       -60.6276 
  31   1.0000      -2.227852       -60.6229 
  32   1.0000      -2.227630       -60.6169 
  33   1.0000      -2.227513       -60.6137 
  34   1.0000      -2.227382       -60.6102 
  35   1.0000      -2.227022       -60.6003 
  36   1.0000      -2.226588       -60.5886 
  37   1.0000      -2.226080       -60.5747 
  38   1.0000      -2.224261       -60.5252 
  39   1.0000      -2.223982       -60.5176 
  40   1.0000      -2.223854       -60.5142 
  41   1.0000      -2.223253       -60.4978 
  42   1.0000      -2.223152       -60.4950 
  43   1.0000      -2.222985       -60.4905 
  44   1.0000      -2.222385       -60.4742 
  45   1.0000      -2.220209       -60.4149 
  46   1.0000      -1.695043       -46.1245 
  47   1.0000      -1.687574       -45.9212 
  48   1.0000      -1.681643       -45.7598 
  49   1.0000      -0.392594       -10.6830 
  50   1.0000      -0.357885        -9.7385 
  51   1.0000      -0.353521        -9.6198 
  52   1.0000      -0.349255        -9.5037 
  53   1.0000      -0.346583        -9.4310 
  54   1.0000      -0.345627        -9.4050 
  55   1.0000      -0.340440        -9.2638 
  56   1.0000      -0.337146        -9.1742 
  57   1.0000      -0.330276        -8.9873 
  58   1.0000      -0.329010        -8.9528 
  59   1.0000      -0.328209        -8.9310 
  60   1.0000      -0.322962        -8.7883 
  61   1.0000      -0.321591        -8.7509 
  62   1.0000      -0.321385        -8.7453 
  63   1.0000      -0.319134        -8.6841 
  64   1.0000      -0.317194        -8.6313 
  65   1.0000      -0.310089        -8.4380 
  66   1.0000      -0.307495        -8.3674 
  67   1.0000      -0.301856        -8.2139 
  68   1.0000      -0.301606        -8.2071 
  69   1.0000      -0.300125        -8.1668 
  70   1.0000      -0.293842        -7.9958 
  71   1.0000      -0.293596        -7.9891 
  72   1.0000      -0.292301        -7.9539 
  73   1.0000      -0.291271        -7.9259 
  74   1.0000      -0.290601        -7.9076 
  75   1.0000      -0.289547        -7.8790 
  76   1.0000      -0.285697        -7.7742 
  77   1.0000      -0.284822        -7.7504 
  78   1.0000      -0.280871        -7.6429 
  79   1.0000      -0.279735        -7.6120 
  80   1.0000      -0.276767        -7.5312 
  81   1.0000      -0.275444        -7.4952 
  82   1.0000      -0.275128        -7.4866 
  83   1.0000      -0.270160        -7.3514 
  84   1.0000      -0.269860        -7.3433 
  85   1.0000      -0.267189        -7.2706 
  86   1.0000      -0.267140        -7.2692 
  87   1.0000      -0.263224        -7.1627 
  88   1.0000      -0.262800        -7.1512 
  89   1.0000      -0.259518        -7.0618 
  90   1.0000      -0.256558        -6.9813 
  91   1.0000      -0.255515        -6.9529 
  92   1.0000      -0.253004        -6.8846 
  93   1.0000      -0.249570        -6.7911 
  94   1.0000      -0.248734        -6.7684 
  95   1.0000      -0.247004        -6.7213 
  96   1.0000      -0.245371        -6.6769 
  97   1.0000      -0.242694        -6.6040 
  98   1.0000      -0.241293        -6.5659 
  99   1.0000      -0.241255        -6.5649 
 100   1.0000      -0.231292        -6.2938 
 101   1.0000      -0.230140        -6.2624 
 102   1.0000      -0.229348        -6.2409 
 103   1.0000      -0.199035        -5.4160 
 104   1.0000      -0.191050        -5.1987 
 105   0.0000      -0.171840        -4.6760 
 106   0.0000      -0.170902        -4.6505 
 107   0.0000      -0.134593        -3.6625 
 108   0.0000      -0.125162        -3.4058 
 109   0.0000      -0.119691        -3.2570 
 110   0.0000      -0.114713        -3.1215 
 111   0.0000      -0.110100        -2.9960 
 112   0.0000      -0.107114        -2.9147 
 113   0.0000      -0.101260        -2.7554 
 114   0.0000      -0.096617        -2.6291 
 115   0.0000      -0.063988        -1.7412 
 116   0.0000      -0.054571        -1.4849 
 117   0.0000      -0.054294        -1.4774 
 118   0.0000      -0.043868        -1.1937 
 119   0.0000      -0.041970        -1.1421 
 120   0.0000      -0.034547        -0.9401 
 121   0.0000      -0.020405        -0.5552 
 122   0.0000      -0.008490        -0.2310 
 123   0.0000       0.014031         0.3818 
 124   0.0000       0.016137         0.4391 
 125   0.0000       0.016265         0.4426 
 126   0.0000       0.019038         0.5180 
 127   0.0000       0.037376         1.0171 
 128   0.0000       0.041448         1.1279 
 129   0.0000       0.043772         1.1911 
 130   0.0000       0.046932         1.2771 
 131   0.0000       0.048202         1.3116 
 132   0.0000       0.057893         1.5753 
 133   0.0000       0.058282         1.5859 
 134   0.0000       0.065408         1.7799 
 135   0.0000       0.072325         1.9681 
 136   0.0000       0.075360         2.0507 
 137   0.0000       0.076598         2.0843 
 138   0.0000       0.083237         2.2650 
 139   0.0000       0.091952         2.5022 
 140   0.0000       0.103620         2.8196 
 141   0.0000       0.111395         3.0312 
 142   0.0000       0.112431         3.0594 
 143   0.0000       0.115347         3.1388 
 144   0.0000       0.121712         3.3119 
 145   0.0000       0.133269         3.6264 
 146   0.0000       0.136475         3.7137 
 147   0.0000       0.138982         3.7819 
 148   0.0000       0.144698         3.9374 
 149   0.0000       0.145839         3.9685 
 150   0.0000       0.157933         4.2976 
 151   0.0000       0.160090         4.3563 
 152   0.0000       0.182838         4.9753 
 153   0.0000       0.191683         5.2160 
 154   0.0000       0.209346         5.6966 
 155   0.0000       0.215559         5.8657 
 156   0.0000       0.228207         6.2098 
 157   0.0000       0.235250         6.4015 
 158   0.0000       0.238629         6.4934 
 159   0.0000       0.242480         6.5982 
 160   0.0000       0.253634         6.9017 
 161   0.0000       0.255454         6.9513 
 162   0.0000       0.260671         7.0932 
 163   0.0000       0.261162         7.1066 
 164   0.0000       0.271487         7.3875 
 165   0.0000       0.271845         7.3973 
 166   0.0000       0.279249         7.5987 
 167   0.0000       0.282311         7.6821 
 168   0.0000       0.282328         7.6825 
 169   0.0000       0.287994         7.8367 
 170   0.0000       0.298221         8.1150 
 171   0.0000       0.304197         8.2776 
 172   0.0000       0.307287         8.3617 
 173   0.0000       0.314532         8.5589 
 174   0.0000       0.316387         8.6093 
 175   0.0000       0.321524         8.7491 
 176   0.0000       0.337335         9.1793 
 177   0.0000       0.338853         9.2206 
 178   0.0000       0.344162         9.3651 
 179   0.0000       0.347986         9.4692 
 180   0.0000       0.352828         9.6009 
 181   0.0000       0.353278         9.6132 
 182   0.0000       0.356665         9.7054 
 183   0.0000       0.369797        10.0627 
 184   0.0000       0.371903        10.1200 
 185   0.0000       0.380327        10.3492 
 186   0.0000       0.381963        10.3937 
 187   0.0000       0.386481        10.5167 
 188   0.0000       0.388089        10.5604 
 189   0.0000       0.390275        10.6199 
 190   0.0000       0.397221        10.8089 
 191   0.0000       0.397312        10.8114 
 192   0.0000       0.408730        11.1221 
 193   0.0000       0.412576        11.2268 
 194   0.0000       0.423889        11.5346 
 195   0.0000       0.429844        11.6967 
 196   0.0000       0.437727        11.9112 
 197   0.0000       0.444887        12.1060 
 198   0.0000       0.446493        12.1497 
 199   0.0000       0.452811        12.3216 
 200   0.0000       0.459309        12.4984 
 201   0.0000       0.463130        12.6024 
 202   0.0000       0.475256        12.9324 
 203   0.0000       0.475939        12.9510 
 204   0.0000       0.495410        13.4808 
 205   0.0000       0.502936        13.6856 
 206   0.0000       0.504901        13.7390 
 207   0.0000       0.507381        13.8065 
 208   0.0000       0.511719        13.9246 
 209   0.0000       0.516921        14.0661 
 210   0.0000       0.518377        14.1057 
 211   0.0000       0.532322        14.4852 
 212   0.0000       0.557395        15.1675 
 213   0.0000       0.558292        15.1919 
 214   0.0000       0.562299        15.3009 
 215   0.0000       0.564192        15.3524 
 216   0.0000       0.576797        15.6954 
 217   0.0000       0.581046        15.8111 
 218   0.0000       0.583218        15.8702 
 219   0.0000       0.614809        16.7298 
 220   0.0000       0.635429        17.2909 
 221   0.0000       0.653303        17.7773 
 222   0.0000       0.713081        19.4039 
 223   0.0000       0.716568        19.4988 
 224   0.0000       0.718954        19.5637 
 225   0.0000       0.741890        20.1878 
 226   0.0000       0.752119        20.4662 
 227   0.0000       0.761508        20.7217 
 228   0.0000       0.795979        21.6597 
 229   0.0000       0.813304        22.1311 
 230   0.0000       0.814906        22.1747 
 231   0.0000       0.824446        22.4343 
 232   0.0000       0.836936        22.7742 
 233   0.0000       0.837009        22.7762 
 234   0.0000       0.840425        22.8691 
 235   0.0000       0.844116        22.9696 
 236   0.0000       0.856346        23.3024 
 237   0.0000       0.871382        23.7115 
 238   0.0000       0.871981        23.7278 
 239   0.0000       0.886019        24.1098 
 240   0.0000       0.893760        24.3204 
 241   0.0000       0.898510        24.4497 
 242   0.0000       0.929547        25.2943 
 243   0.0000       0.945824        25.7372 
 244   0.0000       0.960894        26.1473 
 245   0.0000       0.986407        26.8415 
 246   0.0000       1.150547        31.3080 
 247   0.0000       1.179106        32.0851 
 248   0.0000       1.198718        32.6188 
 249   0.0000       1.201105        32.6837 
 250   0.0000       1.220611        33.2145 
 251   0.0000       1.240795        33.7638 
 252   0.0000       1.254042        34.1242 
 253   0.0000       1.256580        34.1933 
 254   0.0000       1.262593        34.3569 
 255   0.0000       1.278999        34.8033 
 256   0.0000       1.290396        35.1135 
 257   0.0000       1.319196        35.8971 
 258   0.0000       1.339811        36.4581 
 259   0.0000       1.341977        36.5170 
 260   0.0000       1.344906        36.5967 
 261   0.0000       1.346145        36.6305 
 262   0.0000       1.379687        37.5432 
 263   0.0000       1.381362        37.5888 
 264   0.0000       1.382436        37.6180 
 265   0.0000       1.388348        37.7789 
 266   0.0000       1.397042        38.0155 
 267   0.0000       1.399479        38.0818 
 268   0.0000       1.400087        38.0983 
 269   0.0000       1.419246        38.6197 
 270   0.0000       1.423668        38.7400 
 271   0.0000       1.425850        38.7993 
 272   0.0000       1.428322        38.8666 
 273   0.0000       1.430840        38.9351 
 274   0.0000       1.433411        39.0051 
 275   0.0000       1.440753        39.2049 
 276   0.0000       1.445459        39.3329 
 277   0.0000       1.447000        39.3749 
 278   0.0000       1.450554        39.4716 
 279   0.0000       1.451744        39.5040 
 280   0.0000       1.454378        39.5756 
 281   0.0000       1.456687        39.6385 
 282   0.0000       1.460414        39.7399 
 283   0.0000       1.462742        39.8032 
 284   0.0000       1.467854        39.9423 
 285   0.0000       1.472978        40.0818 
 286   0.0000       1.478134        40.2221 
 287   0.0000       1.480939        40.2984 
 288   0.0000       1.481934        40.3255 
 289   0.0000       1.483389        40.3651 
 290   0.0000       1.483670        40.3727 
 291   0.0000       1.486270        40.4435 
 292   0.0000       1.491939        40.5977 
 293   0.0000       1.492495        40.6129 
 294   0.0000       1.494907        40.6785 
 295   0.0000       1.495118        40.6842 
 296   0.0000       1.497924        40.7606 
 297   0.0000       1.501459        40.8568 
 298   0.0000       1.502795        40.8931 
 299   0.0000       1.504580        40.9417 
 300   0.0000       1.507789        41.0290 
 301   0.0000       1.511241        41.1229 
 302   0.0000       1.512891        41.1679 
 303   0.0000       1.513663        41.1889 
 304   0.0000       1.516838        41.2752 
 305   0.0000       1.519815        41.3563 
 306   0.0000       1.523824        41.4654 
 307   0.0000       1.524712        41.4895 
 308   0.0000       1.525453        41.5097 
 309   0.0000       1.527107        41.5547 
 310   0.0000       1.528141        41.5828 
 311   0.0000       1.530701        41.6525 
 312   0.0000       1.533719        41.7346 
 313   0.0000       1.535504        41.7832 
 314   0.0000       1.539168        41.8829 
 315   0.0000       1.541866        41.9563 
 316   0.0000       1.542445        41.9721 
 317   0.0000       1.542658        41.9779 
 318   0.0000       1.547949        42.1218 
 319   0.0000       1.551064        42.2066 
 320   0.0000       1.551066        42.2067 
 321   0.0000       1.553898        42.2837 
 322   0.0000       1.555706        42.3329 
 323   0.0000       1.561332        42.4860 
 324   0.0000       1.561758        42.4976 
 325   0.0000       1.562808        42.5262 
 326   0.0000       1.564620        42.5755 
 327   0.0000       1.570403        42.7328 
 328   0.0000       1.572807        42.7983 
 329   0.0000       1.573513        42.8175 
 330   0.0000       1.573842        42.8264 
 331   0.0000       1.577451        42.9246 
 332   0.0000       1.579850        42.9899 
 333   0.0000       1.583233        43.0820 
 334   0.0000       1.586329        43.1662 
 335   0.0000       1.587179        43.1893 
 336   0.0000       1.589408        43.2500 
 337   0.0000       1.598818        43.5061 
 338   0.0000       1.604722        43.6667 
 339   0.0000       1.609660        43.8011 
 340   0.0000       1.611022        43.8381 
 341   0.0000       1.616600        43.9899 
 342   0.0000       1.623212        44.1699 
 343   0.0000       1.630503        44.3682 
 344   0.0000       1.632700        44.4280 
 345   0.0000       1.635086        44.4929 
 346   0.0000       1.638144        44.5762 
 347   0.0000       1.645381        44.7731 
 348   0.0000       1.654755        45.0282 
 349   0.0000       1.663372        45.2627 
 350   0.0000       1.663996        45.2796 
 351   0.0000       1.669918        45.4408 
 352   0.0000       1.680367        45.7251 
 353   0.0000       1.683598        45.8130 
 354   0.0000       1.688983        45.9596 
 355   0.0000       1.709641        46.5217 
 356   0.0000       1.712739        46.6060 
 357   0.0000       1.730124        47.0791 
 358   0.0000       1.762114        47.9496 
 359   0.0000       1.794399        48.8281 
 360   0.0000       1.801321        49.0164 
 361   0.0000       1.803607        49.0786 
 362   0.0000       1.808033        49.1991 
 363   0.0000       1.840968        50.0953 
 364   0.0000       1.888025        51.3758 
 365   0.0000       1.890846        51.4525 
 366   0.0000       1.892289        51.4918 
 367   0.0000       1.903339        51.7925 
 368   0.0000       1.925176        52.3867 
 369   0.0000       2.018902        54.9371 
 370   0.0000       2.021904        55.0188 
 371   0.0000       2.030351        55.2487 
 372   0.0000       2.140399        58.2432 
 373   0.0000       2.222735        60.4837 
 374   0.0000       2.224083        60.5204 
 375   0.0000       2.234695        60.8091 
 376   0.0000       2.282454        62.1087 
 377   0.0000       2.318914        63.1008 
 378   0.0000       2.335347        63.5480 
 379   0.0000       2.349984        63.9463 
 380   0.0000       2.377640        64.6989 
 381   0.0000       2.409000        65.5522 
 382   0.0000       2.458712        66.9049 
 383   0.0000       2.481972        67.5379 
 384   0.0000       2.614026        71.1313 
 385   0.0000       2.664418        72.5025 
 386   0.0000       2.780172        75.6523 
 387   0.0000       2.789075        75.8946 
 388   0.0000       2.920410        79.4684 
 389   0.0000       2.923211        79.5446 
 390   0.0000       2.925571        79.6088 
 391   0.0000       2.998833        81.6024 
 392   0.0000       3.006330        81.8064 
 393   0.0000       3.013382        81.9983 
 394   0.0000       3.064764        83.3965 
 395   0.0000      23.472026       638.7063 
 396   0.0000      23.627250       642.9302 
 397   0.0000      23.665871       643.9811 
 398   0.0000      24.072975       655.0589 
 399   0.0000      24.521253       667.2572 
 400   0.0000      24.720869       672.6890 
 401   0.0000      24.925331       678.2527 
 402   0.0000      25.012968       680.6375 
 403   0.0000      25.544167       695.0921 
 404   0.0000      25.564229       695.6380 
 405   0.0000      25.686285       698.9593 
 406   0.0000      25.758836       700.9335 
 407   0.0000      25.771564       701.2799 
 408   0.0000      25.818551       702.5585 
 409   0.0000      26.014137       707.8806 
 410   0.0000      26.216529       713.3880 
 411   0.0000      26.500819       721.1240 
 412   0.0000      26.526218       721.8151 
 413   0.0000      26.531855       721.9685 
 414   0.0000      26.695756       726.4285 
 415   0.0000      26.702997       726.6255 
 416   0.0000      27.020559       735.2668 
 417   0.0000      27.027505       735.4558 
 418   0.0000      27.128435       738.2022 
 419   0.0000      27.170496       739.3468 
 420   0.0000      27.204406       740.2695 
 421   0.0000      27.617527       751.5111 
 422   0.0000      29.604204       805.5714 
 423   0.0000      29.806075       811.0645 
 424   0.0000      30.037535       817.3629 
 425   0.0000      43.884908      1194.1691 
 426   0.0000      43.923268      1195.2129 
 427   0.0000      43.950426      1195.9519 
 428   0.0000      43.955178      1196.0812 
 429   0.0000      44.041621      1198.4334 
 430   0.0000      44.086380      1199.6514 
 431   0.0000      44.145316      1201.2551 
 432   0.0000      44.188797      1202.4383 
 433   0.0000      44.205155      1202.8834 
 434   0.0000      44.243552      1203.9283 
 435   0.0000     205.089205      5580.7610 
 436   0.0000     205.106070      5581.2199 
 437   0.0000     205.116519      5581.5042 
 438   0.0000     205.117868      5581.5410 
[...]
  63( 2) :    -0.320487 a.u.    -8.721 eV
  64( 2) :    -0.320198 a.u.    -8.713 eV
  65( 2) :    -0.316903 a.u.    -8.623 eV
  66( 2) :    -0.313964 a.u.    -8.543 eV
  67( 2) :    -0.311293 a.u.    -8.471 eV
  68( 2) :    -0.310262 a.u.    -8.443 eV
  69( 2) :    -0.304850 a.u.    -8.295 eV
  70( 2) :    -0.302303 a.u.    -8.226 eV
  71( 2) :    -0.297111 a.u.    -8.085 eV
  72( 2) :    -0.295625 a.u.    -8.044 eV
  73( 2) :    -0.290443 a.u.    -7.903 eV
  74( 2) :    -0.288535 a.u.    -7.851 eV
  75( 2) :    -0.287835 a.u.    -7.832 eV
  76( 2) :    -0.285615 a.u.    -7.772 eV
  77( 2) :    -0.282351 a.u.    -7.683 eV
  78( 2) :    -0.282215 a.u.    -7.679 eV
  79( 2) :    -0.278155 a.u.    -7.569 eV
  80( 2) :    -0.277199 a.u.    -7.543 eV
  81( 2) :    -0.274551 a.u.    -7.471 eV
  82( 2) :    -0.274075 a.u.    -7.458 eV
  83( 2) :    -0.270326 a.u.    -7.356 eV
  84( 2) :    -0.268253 a.u.    -7.300 eV
  85( 2) :    -0.268228 a.u.    -7.299 eV
  86( 2) :    -0.267137 a.u.    -7.269 eV
  87( 2) :    -0.266914 a.u.    -7.263 eV
  88( 2) :    -0.260926 a.u.    -7.100 eV
  89( 2) :    -0.259802 a.u.    -7.070 eV
  90( 2) :    -0.257047 a.u.    -6.995 eV
  91( 2) :    -0.256423 a.u.    -6.978 eV
  92( 2) :    -0.254853 a.u.    -6.935 eV
  93( 2) :    -0.249918 a.u.    -6.801 eV
  94( 2) :    -0.249747 a.u.    -6.796 eV
  95( 2) :    -0.249190 a.u.    -6.781 eV
  96( 2) :    -0.247626 a.u.    -6.738 eV
  97( 2) :    -0.244902 a.u.    -6.664 eV
  98( 2) :    -0.239776 a.u.    -6.525 eV
  99( 2) :    -0.238666 a.u.    -6.494 eV
 100( 2) :    -0.236910 a.u.    -6.447 eV
 101( 2) :    -0.228896 a.u.    -6.229 eV
 102( 2) :    -0.225271 a.u.    -6.130 eV
 103( 2) :    -0.211269 a.u.    -5.749 eV
 104( 2) :    -0.189915 a.u.    -5.168 eV
 105( 1) :    -0.153516 a.u.    -4.177 eV alpha=   -5.562 beta=   -2.793
 106( 1) :    -0.151356 a.u.    -4.119 eV alpha=   -5.509 beta=   -2.728
 107( 1) :    -0.146583 a.u.    -3.989 eV alpha=   -5.480 beta=   -2.498
 108( 1) :    -0.137098 a.u.    -3.731 eV alpha=   -5.325 beta=   -2.137
 109( 0) :    -0.168590 a.u.    -4.588 eV
 110( 0) :    -0.145888 a.u.    -3.970 eV
 111( 0) :    -0.143627 a.u.    -3.908 eV
 112( 0) :    -0.140755 a.u.    -3.830 eV
 113( 0) :    -0.107796 a.u.    -2.933 eV
 114( 0) :    -0.104470 a.u.    -2.843 eV
 115( 0) :    -0.084108 a.u.    -2.289 eV
 116( 0) :    -0.060391 a.u.    -1.643 eV
 117( 0) :    -0.057805 a.u.    -1.573 eV
 118( 0) :    -0.045512 a.u.    -1.238 eV
 119( 0) :    -0.038787 a.u.    -1.055 eV
 120( 0) :    -0.034432 a.u.    -0.937 eV
 121( 0) :    -0.030925 a.u.    -0.842 eV
 122( 0) :    -0.009364 a.u.    -0.255 eV
 123( 0) :    -0.006223 a.u.    -0.169 eV
 124( 0) :    -0.005801 a.u.    -0.158 eV
 125( 0) :     0.017217 a.u.     0.469 eV
 126( 0) :     0.030746 a.u.     0.837 eV
 127( 0) :     0.037395 a.u.     1.018 eV
 128( 0) :     0.046087 a.u.     1.254 eV
 129( 0) :     0.046490 a.u.     1.265 eV
 130( 0) :     0.048574 a.u.     1.322 eV
 131( 0) :     0.053809 a.u.     1.464 eV
 132( 0) :     0.057973 a.u.     1.578 eV
 133( 0) :     0.063078 a.u.     1.716 eV
 134( 0) :     0.068247 a.u.     1.857 eV
 135( 0) :     0.071236 a.u.     1.938 eV
 136( 0) :     0.074593 a.u.     2.030 eV
 137( 0) :     0.083112 a.u.     2.262 eV
 138( 0) :     0.085494 a.u.     2.326 eV
 139( 0) :     0.091117 a.u.     2.479 eV
 140( 0) :     0.095223 a.u.     2.591 eV
 141( 0) :     0.100043 a.u.     2.722 eV
 142( 0) :     0.117440 a.u.     3.196 eV
 143( 0) :     0.117949 a.u.     3.210 eV
 144( 0) :     0.133653 a.u.     3.637 eV
 145( 0) :     0.133957 a.u.     3.645 eV
 146( 0) :     0.134961 a.u.     3.672 eV
 147( 0) :     0.137186 a.u.     3.733 eV
 148( 0) :     0.149477 a.u.     4.067 eV
 149( 0) :     0.149861 a.u.     4.078 eV
 150( 0) :     0.158581 a.u.     4.315 eV
 151( 0) :     0.161219 a.u.     4.387 eV
 152( 0) :     0.164874 a.u.     4.486 eV
 153( 0) :     0.173216 a.u.     4.713 eV
 154( 0) :     0.201592 a.u.     5.486 eV
 155( 0) :     0.206324 a.u.     5.614 eV
 156( 0) :     0.223436 a.u.     6.080 eV
 157( 0) :     0.231168 a.u.     6.290 eV
 158( 0) :     0.237516 a.u.     6.463 eV
 159( 0) :     0.240032 a.u.     6.532 eV
 160( 0) :     0.247887 a.u.     6.745 eV
 161( 0) :     0.249908 a.u.     6.800 eV
 162( 0) :     0.253303 a.u.     6.893 eV
 163( 0) :     0.258718 a.u.     7.040 eV
 164( 0) :     0.267802 a.u.     7.287 eV
 165( 0) :     0.269012 a.u.     7.320 eV
 166( 0) :     0.274469 a.u.     7.469 eV
 167( 0) :     0.279220 a.u.     7.598 eV
 168( 0) :     0.284495 a.u.     7.742 eV
 169( 0) :     0.292359 a.u.     7.955 eV
 170( 0) :     0.292521 a.u.     7.960 eV
 171( 0) :     0.300886 a.u.     8.188 eV
 172( 0) :     0.302665 a.u.     8.236 eV
 173( 0) :     0.306901 a.u.     8.351 eV
 174( 0) :     0.309426 a.u.     8.420 eV
 175( 0) :     0.320201 a.u.     8.713 eV
 176( 0) :     0.328320 a.u.     8.934 eV
 177( 0) :     0.329655 a.u.     8.970 eV
 178( 0) :     0.335279 a.u.     9.123 eV
 179( 0) :     0.340166 a.u.     9.256 eV
 180( 0) :     0.343732 a.u.     9.353 eV
 181( 0) :     0.352547 a.u.     9.593 eV
 182( 0) :     0.356178 a.u.     9.692 eV
 183( 0) :     0.360524 a.u.     9.810 eV
 184( 0) :     0.372323 a.u.    10.131 eV
 185( 0) :     0.375570 a.u.    10.220 eV
 186( 0) :     0.383487 a.u.    10.435 eV
 187( 0) :     0.388212 a.u.    10.564 eV
 188( 0) :     0.389351 a.u.    10.595 eV
 189( 0) :     0.394144 a.u.    10.725 eV
 190( 0) :     0.400033 a.u.    10.885 eV
 191( 0) :     0.400365 a.u.    10.894 eV
 192( 0) :     0.408219 a.u.    11.108 eV
 193( 0) :     0.410948 a.u.    11.182 eV
 194( 0) :     0.422585 a.u.    11.499 eV
 195( 0) :     0.427807 a.u.    11.641 eV
 196( 0) :     0.428725 a.u.    11.666 eV
 197( 0) :     0.442931 a.u.    12.053 eV
 198( 0) :     0.450232 a.u.    12.251 eV
 199( 0) :     0.453941 a.u.    12.352 eV
 200( 0) :     0.463892 a.u.    12.623 eV
 201( 0) :     0.468960 a.u.    12.761 eV
 202( 0) :     0.471978 a.u.    12.843 eV
 203( 0) :     0.478495 a.u.    13.021 eV
 204( 0) :     0.481276 a.u.    13.096 eV
 205( 0) :     0.482449 a.u.    13.128 eV
 206( 0) :     0.494725 a.u.    13.462 eV
 207( 0) :     0.498193 a.u.    13.557 eV
 208( 0) :     0.498546 a.u.    13.566 eV
 209( 0) :     0.513900 a.u.    13.984 eV
 210( 0) :     0.515856 a.u.    14.037 eV
 211( 0) :     0.529324 a.u.    14.404 eV
 212( 0) :     0.532858 a.u.    14.500 eV
 213( 0) :     0.535187 a.u.    14.563 eV
 214( 0) :     0.542070 a.u.    14.750 eV
 215( 0) :     0.545371 a.u.    14.840 eV
 216( 0) :     0.551494 a.u.    15.007 eV
 217( 0) :     0.569509 a.u.    15.497 eV
 218( 0) :     0.575010 a.u.    15.647 eV
 219( 0) :     0.576089 a.u.    15.676 eV
 220( 0) :     0.651244 a.u.    17.721 eV
 221( 0) :     0.657959 a.u.    17.904 eV
 222( 0) :     0.661893 a.u.    18.011 eV
 223( 0) :     0.671203 a.u.    18.264 eV
 224( 0) :     0.687672 a.u.    18.712 eV
 225( 0) :     0.710812 a.u.    19.342 eV
 226( 0) :     0.713949 a.u.    19.428 eV
 227( 0) :     0.737223 a.u.    20.061 eV
 228( 0) :     0.752605 a.u.    20.479 eV
 229( 0) :     0.768553 a.u.    20.913 eV
 230( 0) :     0.778054 a.u.    21.172 eV
 231( 0) :     0.786105 a.u.    21.391 eV
 232( 0) :     0.787189 a.u.    21.421 eV
 233( 0) :     0.796718 a.u.    21.680 eV
 234( 0) :     0.805446 a.u.    21.917 eV
 235( 0) :     0.820188 a.u.    22.318 eV
 236( 0) :     0.822975 a.u.    22.394 eV
 237( 0) :     0.841465 a.u.    22.897 eV
 238( 0) :     0.855155 a.u.    23.270 eV
 239( 0) :     0.865312 a.u.    23.546 eV
 240( 0) :     0.867493 a.u.    23.606 eV
 241( 0) :     0.882265 a.u.    24.008 eV
 242( 0) :     0.897417 a.u.    24.420 eV
 243( 0) :     0.901232 a.u.    24.524 eV
 244( 0) :     0.947192 a.u.    25.774 eV
 245( 0) :     0.954131 a.u.    25.963 eV
 246( 0) :     0.955472 a.u.    26.000 eV
 247( 0) :     1.004394 a.u.    27.331 eV
 248( 0) :     1.025597 a.u.    27.908 eV
 249( 0) :     1.201744 a.u.    32.701 eV
 250( 0) :     1.212295 a.u.    32.988 eV
 251( 0) :     1.247345 a.u.    33.942 eV
 252( 0) :     1.250364 a.u.    34.024 eV
 253( 0) :     1.254253 a.u.    34.130 eV
 254( 0) :     1.286639 a.u.    35.011 eV
 255( 0) :     1.291570 a.u.    35.145 eV
 256( 0) :     1.307317 a.u.    35.574 eV
 257( 0) :     1.316095 a.u.    35.813 eV
 258( 0) :     1.316612 a.u.    35.827 eV
 259( 0) :     1.326108 a.u.    36.085 eV
 260( 0) :     1.338473 a.u.    36.422 eV
 261( 0) :     1.352894 a.u.    36.814 eV
 262( 0) :     1.358140 a.u.    36.957 eV
 263( 0) :     1.363590 a.u.    37.105 eV
 264( 0) :     1.367052 a.u.    37.199 eV
 265( 0) :     1.378447 a.u.    37.509 eV
 266( 0) :     1.382735 a.u.    37.626 eV
 267( 0) :     1.391323 a.u.    37.860 eV
 268( 0) :     1.393304 a.u.    37.914 eV
 269( 0) :     1.403414 a.u.    38.189 eV
 270( 0) :     1.411178 a.u.    38.400 eV
 271( 0) :     1.414747 a.u.    38.497 eV
 272( 0) :     1.424425 a.u.    38.761 eV
 273( 0) :     1.424825 a.u.    38.771 eV
 274( 0) :     1.430180 a.u.    38.917 eV
 275( 0) :     1.433545 a.u.    39.009 eV
 276( 0) :     1.436906 a.u.    39.100 eV
 277( 0) :     1.439984 a.u.    39.184 eV
 278( 0) :     1.449365 a.u.    39.439 eV
 279( 0) :     1.450181 a.u.    39.461 eV
 280( 0) :     1.452607 a.u.    39.527 eV
 281( 0) :     1.454302 a.u.    39.574 eV
 282( 0) :     1.458162 a.u.    39.679 eV
 283( 0) :     1.465574 a.u.    39.880 eV
 284( 0) :     1.470511 a.u.    40.015 eV
 285( 0) :     1.470553 a.u.    40.016 eV
 286( 0) :     1.473492 a.u.    40.096 eV
 287( 0) :     1.474602 a.u.    40.126 eV
 288( 0) :     1.480145 a.u.    40.277 eV
 289( 0) :     1.481774 a.u.    40.321 eV
 290( 0) :     1.481912 a.u.    40.325 eV
 291( 0) :     1.484769 a.u.    40.403 eV
 292( 0) :     1.487038 a.u.    40.464 eV
 293( 0) :     1.490457 a.u.    40.557 eV
 294( 0) :     1.490885 a.u.    40.569 eV
 295( 0) :     1.495052 a.u.    40.682 eV
 296( 0) :     1.496687 a.u.    40.727 eV
 297( 0) :     1.498560 a.u.    40.778 eV
 298( 0) :     1.500694 a.u.    40.836 eV
 299( 0) :     1.502065 a.u.    40.873 eV
 300( 0) :     1.503211 a.u.    40.904 eV
 301( 0) :     1.506177 a.u.    40.985 eV
 302( 0) :     1.506626 a.u.    40.997 eV
 303( 0) :     1.507614 a.u.    41.024 eV
 304( 0) :     1.509832 a.u.    41.085 eV
 305( 0) :     1.510783 a.u.    41.111 eV
 306( 0) :     1.511371 a.u.    41.127 eV
 307( 0) :     1.516182 a.u.    41.257 eV
 308( 0) :     1.517832 a.u.    41.302 eV
 309( 0) :     1.519283 a.u.    41.342 eV
 310( 0) :     1.520864 a.u.    41.385 eV
 311( 0) :     1.522725 a.u.    41.435 eV
 312( 0) :     1.526689 a.u.    41.543 eV
 313( 0) :     1.530212 a.u.    41.639 eV
 314( 0) :     1.532380 a.u.    41.698 eV
 315( 0) :     1.534685 a.u.    41.761 eV
 316( 0) :     1.537008 a.u.    41.824 eV
 317( 0) :     1.538987 a.u.    41.878 eV
 318( 0) :     1.541043 a.u.    41.934 eV
 319( 0) :     1.543364 a.u.    41.997 eV
 320( 0) :     1.544735 a.u.    42.034 eV
 321( 0) :     1.549067 a.u.    42.152 eV
 322( 0) :     1.549295 a.u.    42.158 eV
 323( 0) :     1.550180 a.u.    42.183 eV
 324( 0) :     1.554023 a.u.    42.287 eV
 325( 0) :     1.555237 a.u.    42.320 eV
 326( 0) :     1.559172 a.u.    42.427 eV
 327( 0) :     1.559408 a.u.    42.434 eV
 328( 0) :     1.564223 a.u.    42.565 eV
 329( 0) :     1.565214 a.u.    42.592 eV
 330( 0) :     1.566837 a.u.    42.636 eV
 331( 0) :     1.569266 a.u.    42.702 eV
 332( 0) :     1.574679 a.u.    42.849 eV
 333( 0) :     1.576677 a.u.    42.904 eV
 334( 0) :     1.581828 a.u.    43.044 eV
 335( 0) :     1.583345 a.u.    43.085 eV
 336( 0) :     1.584884 a.u.    43.127 eV
 337( 0) :     1.591855 a.u.    43.317 eV
 338( 0) :     1.595901 a.u.    43.427 eV
 339( 0) :     1.599097 a.u.    43.514 eV
 340( 0) :     1.599766 a.u.    43.532 eV
 341( 0) :     1.604436 a.u.    43.659 eV
 342( 0) :     1.611441 a.u.    43.850 eV
 343( 0) :     1.611581 a.u.    43.853 eV
 344( 0) :     1.618198 a.u.    44.033 eV
 345( 0) :     1.619889 a.u.    44.079 eV
 346( 0) :     1.622293 a.u.    44.145 eV
 347( 0) :     1.622532 a.u.    44.151 eV
 348( 0) :     1.634773 a.u.    44.484 eV
 349( 0) :     1.637024 a.u.    44.546 eV
 350( 0) :     1.640755 a.u.    44.647 eV
 351( 0) :     1.655717 a.u.    45.054 eV
 352( 0) :     1.657849 a.u.    45.112 eV
 353( 0) :     1.686883 a.u.    45.902 eV
 354( 0) :     1.694179 a.u.    46.101 eV
 355( 0) :     1.714031 a.u.    46.641 eV
 356( 0) :     1.716472 a.u.    46.708 eV
 357( 0) :     1.721284 a.u.    46.839 eV
 358( 0) :     1.762916 a.u.    47.971 eV
 359( 0) :     1.766252 a.u.    48.062 eV
 360( 0) :     1.788406 a.u.    48.665 eV
 361( 0) :     1.802073 a.u.    49.037 eV
 362( 0) :     1.822147 a.u.    49.583 eV
 363( 0) :     1.837350 a.u.    49.997 eV
 364( 0) :     1.844566 a.u.    50.193 eV
 365( 0) :     1.852609 a.u.    50.412 eV
 366( 0) :     1.867572 a.u.    50.819 eV
 367( 0) :     1.906707 a.u.    51.884 eV
 368( 0) :     1.919927 a.u.    52.244 eV
 369( 0) :     1.948697 a.u.    53.027 eV
 370( 0) :     1.952103 a.u.    53.119 eV
 371( 0) :     1.964581 a.u.    53.459 eV
 372( 0) :     2.105848 a.u.    57.303 eV
 373( 0) :     2.234106 a.u.    60.793 eV
 374( 0) :     2.268559 a.u.    61.731 eV
 375( 0) :     2.283333 a.u.    62.133 eV
 376( 0) :     2.302416 a.u.    62.652 eV
 377( 0) :     2.316279 a.u.    63.029 eV
 378( 0) :     2.360832 a.u.    64.241 eV
 379( 0) :     2.372848 a.u.    64.568 eV
 380( 0) :     2.394445 a.u.    65.156 eV
 381( 0) :     2.437838 a.u.    66.337 eV
 382( 0) :     2.444225 a.u.    66.511 eV
 383( 0) :     2.472368 a.u.    67.277 eV
 384( 0) :     2.476839 a.u.    67.398 eV
 385( 0) :     2.517629 a.u.    68.508 eV
 386( 0) :     2.536967 a.u.    69.034 eV
 387( 0) :     2.777523 a.u.    75.580 eV
 388( 0) :     2.836579 a.u.    77.187 eV
 389( 0) :     2.840579 a.u.    77.296 eV
 390( 0) :     2.840982 a.u.    77.307 eV
 391( 0) :     2.861221 a.u.    77.858 eV
 392( 0) :     2.866221 a.u.    77.994 eV
 393( 0) :     2.878235 a.u.    78.321 eV
 394( 0) :     2.886999 a.u.    78.559 eV
 395( 0) :    23.228689 a.u.   632.085 eV
 396( 0) :    23.588478 a.u.   641.875 eV
 397( 0) :    23.856008 a.u.   649.155 eV
 398( 0) :    24.197266 a.u.   658.441 eV
 399( 0) :    24.292238 a.u.   661.025 eV
 400( 0) :    24.389133 a.u.   663.662 eV
 401( 0) :    24.629664 a.u.   670.207 eV
 402( 0) :    24.653493 a.u.   670.856 eV
 403( 0) :    24.841341 a.u.   675.967 eV
 404( 0) :    25.059443 a.u.   681.902 eV
 405( 0) :    25.114612 a.u.   683.403 eV
 406( 0) :    25.261886 a.u.   687.411 eV
 407( 0) :    25.511831 a.u.   694.212 eV
 408( 0) :    25.678868 a.u.   698.758 eV
 409( 0) :    25.854156 a.u.   703.527 eV
 410( 0) :    26.232935 a.u.   713.834 eV
 411( 0) :    26.258804 a.u.   714.538 eV
 412( 0) :    26.485658 a.u.   720.711 eV
 413( 0) :    26.582110 a.u.   723.336 eV
 414( 0) :    26.656782 a.u.   725.368 eV
 415( 0) :    26.834569 a.u.   730.206 eV
 416( 0) :    27.042358 a.u.   735.860 eV
 417( 0) :    27.063286 a.u.   736.429 eV
 418( 0) :    27.225110 a.u.   740.833 eV
 419( 0) :    27.280398 a.u.   742.337 eV
 420( 0) :    27.413110 a.u.   745.949 eV
 421( 0) :    27.654352 a.u.   752.513 eV
 422( 0) :    27.820878 a.u.   757.045 eV
 423( 0) :    27.950084 a.u.   760.560 eV
 424( 0) :    28.100231 a.u.   764.646 eV
 425( 0) :    43.894679 a.u.  1194.435 eV
 426( 0) :    43.970463 a.u.  1196.497 eV
 427( 0) :    44.009274 a.u.  1197.553 eV
 428( 0) :    44.034351 a.u.  1198.236 eV
 429( 0) :    44.046860 a.u.  1198.576 eV
 430( 0) :    44.069481 a.u.  1199.192 eV
 431( 0) :    44.115969 a.u.  1200.457 eV
 432( 0) :    44.137615 a.u.  1201.046 eV
 433( 0) :    44.196786 a.u.  1202.656 eV
 434( 0) :    44.201831 a.u.  1202.793 eV
 435( 0) :   205.090850 a.u.  5580.806 eV
 436( 0) :   205.121294 a.u.  5581.634 eV
 437( 0) :   205.136826 a.u.  5582.057 eV
 438( 0) :   205.148334 a.u.  5582.370 eV
 439( 0) :   205.151859 a.u.  5582.466 eV
 440( 0) :   205.164279 a.u.  5582.804 eV
 441( 0) :   205.179771 a.u.  5583.225 eV
 442( 0) :   205.194156 a.u.  5583.617 eV
 443( 0) :   205.214149 a.u.  5584.161 eV
 444( 0) :   205.214770 a.u.  5584.178 eV
-------
TIMINGS
-------

Total SCF time: 0 days 0 hours 2 min 21 sec 

Total time                  ....     141.716 sec
Sum of individual times     ....     140.377 sec  ( 99.1%)

Fock matrix formation       ....     137.038 sec  ( 96.7%)
  Split-RI-J                ....      47.532 sec  ( 34.7% of F)
  XC integration            ....      89.401 sec  ( 65.2% of F)
    Basis function eval.    ....      16.058 sec  ( 18.0% of XC)
    Density eval.           ....      35.131 sec  ( 39.3% of XC)
    XC-Functional eval.     ....       2.417 sec  (  2.7% of XC)
    XC-Potential eval.      ....      32.408 sec  ( 36.2% of XC)
Diagonalization             ....       0.933 sec  (  0.7%)
Density matrix formation    ....       0.198 sec  (  0.1%)
Population analysis         ....       0.282 sec  (  0.2%)
Initial guess               ....       0.071 sec  (  0.1%)
Orbital Transformation      ....       0.231 sec  (  0.2%)
Orbital Orthonormalization  ....       0.058 sec  (  0.0%)
DIIS solution               ....       0.000 sec  (  0.0%)
Grid generation             ....       1.622 sec  (  1.1%)

Maximum memory used throughout the entire SCF-calculation: 362.3 MB

-------------------------   --------------------
FINAL SINGLE POINT ENERGY     -2402.496500905473
-------------------------   --------------------

                                *** OPTIMIZATION RUN DONE ***

                            ***************************************
                            *     ORCA property calculations      *
                            ***************************************

                                    ---------------------
                                    Active property flags
                                    ---------------------
   (+) Dipole Moment


------------------------------------------------------------------------------
                       ORCA ELECTRIC PROPERTIES CALCULATION
------------------------------------------------------------------------------

Dipole Moment Calculation                       ... on
Quadrupole Moment Calculation                   ... off
Polarizability Calculation                      ... off
GBWName                                         ... pbe.gbw
Electron density                                ... pbe.scfp
The origin for moment calculation is the CENTER OF MASS  = (15.326670, 12.364859 17.373804)

-------------
DIPOLE MOMENT
-------------
                                X             Y             Z
Electronic contribution:     10.31338      20.58772     -22.02934
Nuclear contribution   :    -10.27170     -20.52690      21.79480
                        -----------------------------------------
Total Dipole Moment    :      0.04168       0.06083      -0.23454
                        -----------------------------------------
Magnitude (a.u.)       :      0.24586
Magnitude (Debye)      :      0.62492



--------------------
Rotational spectrum 
--------------------
 
Rotational constants in cm-1:     0.002236     0.001585     0.001234 
Rotational constants in MHz :    67.044469    47.528616    36.999747 

 Dipole components along the rotational axes: 
x,y,z [a.u.] :     0.022934    -0.003141    -0.244765 
x,y,z [Debye]:     0.058294    -0.007983    -0.622142 

 

Timings for individual modules:

Sum of individual times         ...    18139.043 sec (= 302.317 min)
GTO integral calculation        ...      344.135 sec (=   5.736 min)   1.9 %
SCF iterations                  ...    14579.969 sec (= 242.999 min)  80.4 %
SCF Gradient evaluation         ...     3212.093 sec (=  53.535 min)  17.7 %
Geometry relaxation             ...        2.846 sec (=   0.047 min)   0.0 %
                             ****ORCA TERMINATED NORMALLY****
TOTAL RUN TIME: 0 days 5 hours 2 minutes 31 seconds 36 msec
