
                                 *****************
                                 * O   R   C   A *
                                 *****************

                                            #,                                       
                                            ###                                      
                                            ####                                     
                                            #####                                    
                                            ######                                   
                                           ########,                                 
                                     ,,################,,,,,                         
                               ,,#################################,,                 
                          ,,##########################################,,             
                       ,#########################################, ''#####,          
                    ,#############################################,,   '####,        
                  ,##################################################,,,,####,       
                ,###########''''           ''''###############################       
              ,#####''   ,,,,##########,,,,          '''####'''          '####       
            ,##' ,,,,###########################,,,                        '##       
           ' ,,###''''                  '''############,,,                           
         ,,##''                                '''############,,,,        ,,,,,,###''
      ,#''                                            '''#######################'''  
     '                                                          ''''####''''         
             ,#######,   #######,   ,#######,      ##                                
            ,#'     '#,  ##    ##  ,#'     '#,    #''#        ######   ,####,        
            ##       ##  ##   ,#'  ##            #'  '#       #        #'  '#        
            ##       ##  #######   ##           ,######,      #####,   #    #        
            '#,     ,#'  ##    ##  '#,     ,#' ,#      #,         ##   #,  ,#        
             '#######'   ##     ##  '#######'  #'      '#     #####' # '####'        



                  #######################################################
                  #                        -***-                        #
                  #          Department of theory and spectroscopy      #
                  #    Directorship and core code : Frank Neese         #
                  #        Max Planck Institute fuer Kohlenforschung    #
                  #                Kaiser Wilhelm Platz 1               #
                  #                 D-45470 Muelheim/Ruhr               #
                  #                      Germany                        #
                  #                                                     #
                  #                  All rights reserved                #
                  #                        -***-                        #
                  #######################################################


                         Program Version 5.0.3 -  RELEASE  -


 With contributions from (in alphabetic order):
   Daniel Aravena         : Magnetic Suceptibility
   Michael Atanasov       : Ab Initio Ligand Field Theory (pilot matlab implementation)
   Alexander A. Auer      : GIAO ZORA, VPT2 properties, NMR spectrum
   Ute Becker             : Parallelization
   Giovanni Bistoni       : ED, misc. LED, open-shell LED, HFLD
   Martin Brehm           : Molecular dynamics
   Dmytro Bykov           : SCF Hessian
   Vijay G. Chilkuri      : MRCI spin determinant printing, contributions to CSF-ICE
   Dipayan Datta          : RHF DLPNO-CCSD density
   Achintya Kumar Dutta   : EOM-CC, STEOM-CC
   Dmitry Ganyushin       : Spin-Orbit,Spin-Spin,Magnetic field MRCI
   Miquel Garcia          : C-PCM and meta-GGA Hessian, CC/C-PCM, Gaussian charge scheme
   Yang Guo               : DLPNO-NEVPT2, F12-NEVPT2, CIM, IAO-localization
   Andreas Hansen         : Spin unrestricted coupled pair/coupled cluster methods
   Benjamin Helmich-Paris : MC-RPA, TRAH-SCF, COSX integrals
   Lee Huntington         : MR-EOM, pCC
   Robert Izsak           : Overlap fitted RIJCOSX, COSX-SCS-MP3, EOM
   Marcus Kettner         : VPT2
   Christian Kollmar      : KDIIS, OOCD, Brueckner-CCSD(T), CCSD density, CASPT2, CASPT2-K
   Simone Kossmann        : Meta GGA functionals, TD-DFT gradient, OOMP2, MP2 Hessian
   Martin Krupicka        : Initial AUTO-CI
   Lucas Lang             : DCDCAS
   Marvin Lechner         : AUTO-CI (C++ implementation), FIC-MRCC
   Dagmar Lenk            : GEPOL surface, SMD
   Dimitrios Liakos       : Extrapolation schemes; Compound Job, initial MDCI parallelization
   Dimitrios Manganas     : Further ROCIS development; embedding schemes
   Dimitrios Pantazis     : SARC Basis sets
   Anastasios Papadopoulos: AUTO-CI, single reference methods and gradients
   Taras Petrenko         : DFT Hessian,TD-DFT gradient, ASA, ECA, R-Raman, ABS, FL, XAS/XES, NRVS
   Peter Pinski           : DLPNO-MP2, DLPNO-MP2 Gradient
   Christoph Reimann      : Effective Core Potentials
   Marius Retegan         : Local ZFS, SOC
   Christoph Riplinger    : Optimizer, TS searches, QM/MM, DLPNO-CCSD(T), (RO)-DLPNO pert. Triples
   Tobias Risthaus        : Range-separated hybrids, TD-DFT gradient, RPA, STAB
   Michael Roemelt        : Original ROCIS implementation
   Masaaki Saitow         : Open-shell DLPNO-CCSD energy and density
   Barbara Sandhoefer     : DKH picture change effects
   Avijit Sen             : IP-ROCIS
   Kantharuban Sivalingam : CASSCF convergence, NEVPT2, FIC-MRCI
   Bernardo de Souza      : ESD, SOC TD-DFT
   Georgi Stoychev        : AutoAux, RI-MP2 NMR, DLPNO-MP2 response
   Willem Van den Heuvel  : Paramagnetic NMR
   Boris Wezisla          : Elementary symmetry handling
   Frank Wennmohs         : Technical directorship


 We gratefully acknowledge several colleagues who have allowed us to
 interface, adapt or use parts of their codes:
   Stefan Grimme, W. Hujo, H. Kruse, P. Pracht,  : VdW corrections, initial TS optimization,
                  C. Bannwarth, S. Ehlert          DFT functionals, gCP, sTDA/sTD-DF
   Ed Valeev, F. Pavosevic, A. Kumar             : LibInt (2-el integral package), F12 methods
   Garnet Chan, S. Sharma, J. Yang, R. Olivares  : DMRG
   Ulf Ekstrom                                   : XCFun DFT Library
   Mihaly Kallay                                 : mrcc  (arbitrary order and MRCC methods)
   Jiri Pittner, Ondrej Demel                    : Mk-CCSD
   Frank Weinhold                                : gennbo (NPA and NBO analysis)
   Christopher J. Cramer and Donald G. Truhlar   : smd solvation model
   Lars Goerigk                                  : TD-DFT with DH, B97 family of functionals
   V. Asgeirsson, H. Jonsson                     : NEB implementation
   FAccTs GmbH                                   : IRC, NEB, NEB-TS, DLPNO-Multilevel, CI-OPT
                                                   MM, QMMM, 2- and 3-layer-ONIOM, Crystal-QMMM,
                                                   LR-CPCM, SF, NACMEs, symmetry and pop. for TD-DFT,
                                                   nearIR, NL-DFT gradient (VV10), updates on ESD,
                                                   ML-optimized integration grids
   S Lehtola, MJT Oliveira, MAL Marques          : LibXC Library
   Liviu Ungur et al                             : ANISO software


 Your calculation uses the libint2 library for the computation of 2-el integrals
 For citations please refer to: http://libint.valeyev.net

 Your ORCA version has been built with support for libXC version: 5.1.0
 For citations please refer to: https://tddft.org/programs/libxc/

 This ORCA versions uses:
   CBLAS   interface :  Fast vector & matrix operations
   LAPACKE interface :  Fast linear algebra routines
   SCALAPACK package :  Parallel linear algebra routines
   Shared memory     :  Shared parallel matrices
   BLAS/LAPACK       :  OpenBLAS 0.3.15  USE64BITINT DYNAMIC_ARCH NO_AFFINITY Haswell SINGLE_THREADED
        Core in use  :  Haswell
   Copyright (c) 2011-2014, The OpenBLAS Project




***************************************
The coordinates will be read from file: pbe.xyz
***************************************


================================================================================

cite the ECPs for Au [Def2-ECP] as follows:
Ce-Yb(ecp-28): M. Dolg, H. Stoll, H.Preuss, J. Chem. Phys., 1989, 90, 1730-1734.
Y-Cd(ecp-28), Hf-Hg(ecp-46): D. Andrae,U. Haeussermann, M. Dolg, H. Stoll, H. Preuss, Theor. Chim. Acta, 1990, 77, 123-141.
In-Sb(ecp-28), Tl-Bi(ecp-46): B. Metz, H. Stoll, M. Dolg, J. Chem. Phys., 2000, 113, 2563-2569.
Te-Xe(ecp-28), Po-Rn(ecp-46): K. A. Peterson, D. Figgen, E. Goll, H. Stoll, M. Dolg, J. Chem. Phys., 2003, 119, 11113-11123.
Rb(ecp-28), Cs(ecp-46): T. Leininger, A. Nicklass, W. Kuechle, H. Stoll, M. Dolg, A. Bergner, Chem. Phys. Lett., 1996, 255, 274-280.
Sr(ecp-28), Ba(ecp-46): M. Kaupp, P. V. Schleyer, H. Stoll and H. Preuss, J. Chem. Phys., 1991, 94, 1360-1366.
La(ecp-46): M. Dolg, H. Stoll, A. Savin, H. Preuss, Theor. Chim. Acta, 1989, 75, 173-194.
Lu(ecp-28): X. Cao, M. Dolg, J. Chem. Phys., 2001, 115, 7348-7355.

ECP parameters for Au [Def2-ECP] have been obtained from:
TURBOMOLE (7.0.2)

----- Orbital basis set information -----
Your calculation utilizes the basis: def2-TZVP
   F. Weigend and R. Ahlrichs, Phys. Chem. Chem. Phys. 7, 3297 (2005).

----- AuxJ basis set information -----
Your calculation utilizes the auxiliary basis: def2/J
   F. Weigend, Phys. Chem. Chem. Phys. 8, 1057 (2006).

================================================================================
                                        WARNINGS
                       Please study these warnings very carefully!
================================================================================

Using LibXC functional ID 497 : Re-regularized SCAN exchange by Furness et al
[ 1]  J. W. Furness, A. D. Kaplan, J. Ning, J. P. Perdew, and J. Sun, J. Phys. Chem. Lett. 11, 8208 (2020)
[ 2]  J. W. Furness, A. D. Kaplan, J. Ning, J. P. Perdew, and J. Sun, J. Phys. Chem. Lett. 11, 9248 (2020)
Using LibXC functional ID 498 : Re-regularized SCAN correlation by Furness et al
[ 1]  J. W. Furness, A. D. Kaplan, J. Ning, J. P. Perdew, and J. Sun, J. Phys. Chem. Lett. 11, 8208 (2020)
[ 2]  J. W. Furness, A. D. Kaplan, J. Ning, J. P. Perdew, and J. Sun, J. Phys. Chem. Lett. 11, 9248 (2020)
Using LibXC functional ID 497 : Re-regularized SCAN exchange by Furness et al
[ 1]  J. W. Furness, A. D. Kaplan, J. Ning, J. P. Perdew, and J. Sun, J. Phys. Chem. Lett. 11, 8208 (2020)
[ 2]  J. W. Furness, A. D. Kaplan, J. Ning, J. P. Perdew, and J. Sun, J. Phys. Chem. Lett. 11, 9248 (2020)
Using LibXC functional ID 498 : Re-regularized SCAN correlation by Furness et al
[ 1]  J. W. Furness, A. D. Kaplan, J. Ning, J. P. Perdew, and J. Sun, J. Phys. Chem. Lett. 11, 8208 (2020)
[ 2]  J. W. Furness, A. D. Kaplan, J. Ning, J. P. Perdew, and J. Sun, J. Phys. Chem. Lett. 11, 9248 (2020)

WARNING: your system is open-shell and RHF/RKS was chosen
  ===> : WILL SWITCH to UHF/UKS


INFO   : the flag for use of the SHARK integral package has been found!



***************************************
The coordinates will be read from file: pbe.xyz
***************************************


================================================================================

cite the ECPs for Au [Def2-ECP] as follows:
Ce-Yb(ecp-28): M. Dolg, H. Stoll, H.Preuss, J. Chem. Phys., 1989, 90, 1730-1734.
Y-Cd(ecp-28), Hf-Hg(ecp-46): D. Andrae,U. Haeussermann, M. Dolg, H. Stoll, H. Preuss, Theor. Chim. Acta, 1990, 77, 123-141.
In-Sb(ecp-28), Tl-Bi(ecp-46): B. Metz, H. Stoll, M. Dolg, J. Chem. Phys., 2000, 113, 2563-2569.
Te-Xe(ecp-28), Po-Rn(ecp-46): K. A. Peterson, D. Figgen, E. Goll, H. Stoll, M. Dolg, J. Chem. Phys., 2003, 119, 11113-11123.
Rb(ecp-28), Cs(ecp-46): T. Leininger, A. Nicklass, W. Kuechle, H. Stoll, M. Dolg, A. Bergner, Chem. Phys. Lett., 1996, 255, 274-280.
Sr(ecp-28), Ba(ecp-46): M. Kaupp, P. V. Schleyer, H. Stoll and H. Preuss, J. Chem. Phys., 1991, 94, 1360-1366.
La(ecp-46): M. Dolg, H. Stoll, A. Savin, H. Preuss, Theor. Chim. Acta, 1989, 75, 173-194.
Lu(ecp-28): X. Cao, M. Dolg, J. Chem. Phys., 2001, 115, 7348-7355.

ECP parameters for Au [Def2-ECP] have been obtained from:
TURBOMOLE (7.0.2)

----- Orbital basis set information -----
Your calculation utilizes the basis: def2-TZVP
   F. Weigend and R. Ahlrichs, Phys. Chem. Chem. Phys. 7, 3297 (2005).

----- AuxJ basis set information -----
Your calculation utilizes the auxiliary basis: def2/J
   F. Weigend, Phys. Chem. Chem. Phys. 8, 1057 (2006).

================================================================================
                                        WARNINGS
                       Please study these warnings very carefully!
================================================================================

Using LibXC functional ID 497 : Re-regularized SCAN exchange by Furness et al
[ 1]  J. W. Furness, A. D. Kaplan, J. Ning, J. P. Perdew, and J. Sun, J. Phys. Chem. Lett. 11, 8208 (2020)
[ 2]  J. W. Furness, A. D. Kaplan, J. Ning, J. P. Perdew, and J. Sun, J. Phys. Chem. Lett. 11, 9248 (2020)
Using LibXC functional ID 498 : Re-regularized SCAN correlation by Furness et al
[ 1]  J. W. Furness, A. D. Kaplan, J. Ning, J. P. Perdew, and J. Sun, J. Phys. Chem. Lett. 11, 8208 (2020)
[ 2]  J. W. Furness, A. D. Kaplan, J. Ning, J. P. Perdew, and J. Sun, J. Phys. Chem. Lett. 11, 9248 (2020)
Using LibXC functional ID 497 : Re-regularized SCAN exchange by Furness et al
[ 1]  J. W. Furness, A. D. Kaplan, J. Ning, J. P. Perdew, and J. Sun, J. Phys. Chem. Lett. 11, 8208 (2020)
[ 2]  J. W. Furness, A. D. Kaplan, J. Ning, J. P. Perdew, and J. Sun, J. Phys. Chem. Lett. 11, 9248 (2020)
Using LibXC functional ID 498 : Re-regularized SCAN correlation by Furness et al
[ 1]  J. W. Furness, A. D. Kaplan, J. Ning, J. P. Perdew, and J. Sun, J. Phys. Chem. Lett. 11, 8208 (2020)
[ 2]  J. W. Furness, A. D. Kaplan, J. Ning, J. P. Perdew, and J. Sun, J. Phys. Chem. Lett. 11, 9248 (2020)

INFO   : the flag for use of the SHARK integral package has been found!

================================================================================
                                       INPUT FILE
================================================================================
NAME = scan.inp
|  1> !R2SCAN def2-TZVP VERYSLOWCONV
|  2> !KDIIS
|  3> %scf
|  4>   AutoTRAHIter 200
|  5>   maxiter 400
|  6> end
|  7> 
|  8> %pal nprocs 6 end 
|  9> 
| 10> *xyzfile 0 5 pbe.xyz
| 11> 
| 12> $new_job
| 13> 
| 14> !R2SCAN def2-TZVP VERYSLOWCONV
| 15> !KDIIS
| 16> %scf
| 17>   AutoTRAHIter 200
| 18>   maxiter 400
| 19> end
| 20> 
| 21> 
| 22> %pal nprocs 6 end 
| 23> 
| 24> *xyzfile 0 3 pbe.xyz
| 25> 
| 26> 
| 27> 
| 28> 
| 29> 
| 30>                          ****END OF INPUT****
================================================================================


                 $$$$$$$$$$$$$$$$$$$$$$$$$$$$$$$$$$$$$$$$$$$$$$ 
                 $ THERE ARE  2 JOBS TO BE PROCESSED THIS RUN $
                 $$$$$$$$$$$$$$$$$$$$$$$$$$$$$$$$$$$$$$$$$$$$$$ 




                 $$$$$$$$$$$$$$$$  JOB NUMBER  1 $$$$$$$$$$$$$$


                       ****************************
                       * Single Point Calculation *
                       ****************************

---------------------------------
CARTESIAN COORDINATES (ANGSTROEM)
---------------------------------
  Au     8.617435    9.195463    9.366982
  Au     8.791198    6.654736    6.597243
  Au     9.870614    4.599887    7.922189
  Au    10.674992    5.462947   10.447213
  Au     9.302329    7.739370   11.503343
  Au     7.349214    8.924376    6.935830
  Au     6.143952    7.727296    9.110550
  Au     6.766620    6.212577   11.225358
  Au     8.936677    5.227401   12.677518
  Au     8.315775    4.031615   10.172234
  Cr     8.504639    6.575100    9.186037

----------------------------
CARTESIAN COORDINATES (A.U.)
----------------------------
  NO LB      ZA    FRAG     MASS         X           Y           Z
   0 Au   19.0000*   0   196.966   16.284592   17.376907   17.701031
   1 Au   19.0000*   0   196.966   16.612956   12.575629   12.466982
   2 Au   19.0000*   0   196.966   18.652758    8.692526   14.970768
   3 Au   19.0000*   0   196.966   20.172811   10.323474   19.742372
   4 Au   19.0000*   0   196.966   17.578854   14.625290   21.738168
   5 Au   19.0000*   0   196.966   13.888001   16.864626   13.106819
   6 Au   19.0000*   0   196.966   11.610386   14.602472   17.216445
   7 Au   19.0000*   0   196.966   12.787058   11.740070   21.212852
   8 Au   19.0000*   0   196.966   16.887871    9.878355   23.957036
   9 Au   19.0000*   0   196.966   15.714538    7.618648   19.222736
  10 Cr   24.0000    0    52.000   16.071438   12.425139   17.359094
* core charge reduced due to ECP

--------------------------------
INTERNAL COORDINATES (ANGSTROEM)
--------------------------------
 Au     0   0   0     0.000000000000     0.00000000     0.00000000
 Au     1   0   0     3.762571442190     0.00000000     0.00000000
 Au     2   1   0     2.672644949929    99.95608552     0.00000000
 Au     3   2   1     2.787049257254   109.12395255   351.08555899
 Au     1   2   3     2.674569922674   102.03695521   352.05491808
 Au     2   1   3     2.710207239846    46.99753676   160.47632845
 Au     6   2   1     2.759541222084    88.14081731   296.79387328
 Au     7   6   2     2.674789121985   140.09133304    42.27835359
 Au     8   7   6     2.790786205440   142.40343711    11.03280587
 Au     4   3   2     2.773125968951    60.31675425   101.69033948
 Cr     2   1   3     2.605823098279    44.29441586    30.05662731

---------------------------
INTERNAL COORDINATES (A.U.)
---------------------------
 Au     0   0   0     0.000000000000     0.00000000     0.00000000
 Au     1   0   0     7.110229585053     0.00000000     0.00000000
 Au     2   1   0     5.050567008574    99.95608552     0.00000000
 Au     3   2   1     5.266759817959   109.12395255   351.08555899
 Au     1   2   3     5.054204679876   102.03695521   352.05491808
 Au     2   1   3     5.121549449479    46.99753676   160.47632845
 Au     6   2   1     5.214777165005    88.14081731   296.79387328
 Au     7   6   2     5.054618906544   140.09133304    42.27835359
 Au     8   7   6     5.273821626608   142.40343711    11.03280587
 Au     4   3   2     5.240448616182    60.31675425   101.69033948
 Cr     2   1   3     4.924292009194    44.29441586    30.05662731

---------------------
BASIS SET INFORMATION
---------------------
There are 2 groups of distinct atoms

 Group   1 Type Au  : 8s7p6d1f contracted to 6s4p3d1f pattern {311111/4111/411/1}
 Group   2 Type Cr  : 17s11p7d1f contracted to 6s4p4d1f pattern {842111/6311/4111/1}

Atom   0Au   basis set group =>   1
Atom   1Au   basis set group =>   1
Atom   2Au   basis set group =>   1
Atom   3Au   basis set group =>   1
Atom   4Au   basis set group =>   1
Atom   5Au   basis set group =>   1
Atom   6Au   basis set group =>   1
Atom   7Au   basis set group =>   1
Atom   8Au   basis set group =>   1
Atom   9Au   basis set group =>   1
Atom  10Cr   basis set group =>   2
---------------------------------
AUXILIARY/J BASIS SET INFORMATION
---------------------------------
There are 2 groups of distinct atoms

 Group   1 Type Au  : 11s5p5d3f3g contracted to 8s5p5d2f3g pattern {41111111/11111/11111/21/111}
 Group   2 Type Cr  : 19s5p5d3f3g contracted to 8s5p5d2f3g pattern {121111111/11111/11111/21/111}

Atom   0Au   basis set group =>   1
Atom   1Au   basis set group =>   1
Atom   2Au   basis set group =>   1
Atom   3Au   basis set group =>   1
Atom   4Au   basis set group =>   1
Atom   5Au   basis set group =>   1
Atom   6Au   basis set group =>   1
Atom   7Au   basis set group =>   1
Atom   8Au   basis set group =>   1
Atom   9Au   basis set group =>   1
Atom  10Cr   basis set group =>   2
-------------------------
ECP PARAMETER INFORMATION
-------------------------

 Group 1, Type Au ECP Def2-ECP (replacing 60 core electrons, lmax=3)

Atom   0Au   ECP group =>   1
Atom   1Au   ECP group =>   1
Atom   2Au   ECP group =>   1
Atom   3Au   ECP group =>   1
Atom   4Au   ECP group =>   1
Atom   5Au   ECP group =>   1
Atom   6Au   ECP group =>   1
Atom   7Au   ECP group =>   1
Atom   8Au   ECP group =>   1
Atom   9Au   ECP group =>   1



           ************************************************************
           *        Program running with 6 parallel MPI-processes     *
           *              working on a common directory               *
           ************************************************************
------------------------------------------------------------------------------
                           ORCA GTO INTEGRAL CALCULATION
                           -- RI-GTO INTEGRALS CHOSEN --
------------------------------------------------------------------------------
------------------------------------------------------------------------------
                   ___                                                        
                  /   \      - P O W E R E D   B Y -                         
                 /     \                                                     
                 |  |  |   _    _      __       _____    __    __             
                 |  |  |  | |  | |    /  \     |  _  \  |  |  /  |          
                  \  \/   | |  | |   /    \    | | | |  |  | /  /          
                 / \  \   | |__| |  /  /\  \   | |_| |  |  |/  /          
                |  |  |   |  __  | /  /__\  \  |    /   |      \           
                |  |  |   | |  | | |   __   |  |    \   |  |\   \          
                \     /   | |  | | |  |  |  |  | |\  \  |  | \   \       
                 \___/    |_|  |_| |__|  |__|  |_| \__\ |__|  \__/        
                                                                              
                      - O R C A' S   B I G   F R I E N D -                    
                                      &                                       
                       - I N T E G R A L  F E E D E R -                       
                                                                              
 v1 FN, 2020, v2 2021                                                         
------------------------------------------------------------------------------


Reading SHARK input file scan.SHARKINP.tmp ... ok
----------------------
SHARK INTEGRAL PACKAGE
----------------------

Number of atoms                             ...     11
Number of basis functions                   ...    445
Number of shells                            ...    155
Maximum angular momentum                    ...      3
Integral batch strategy                     ... SHARK/LIBINT Hybrid
RI-J (if used) integral strategy            ... SPLIT-RIJ (Revised 2003 algorithm where possible)
Printlevel                                  ...      1
Contraction scheme used                     ... SEGMENTED contraction
Coulomb Range Separation                    ... NOT USED
Exchange Range Separation                   ... NOT USED
Finite Nucleus Model                        ... NOT USED
Auxiliary Coulomb fitting basis             ... AVAILABLE
   # of basis functions in Aux-J            ...    979
   # of shells in Aux-J                     ...    253
   Maximum angular momentum in Aux-J        ...      4
Auxiliary J/K fitting basis                 ... NOT available
Auxiliary Correlation fitting basis         ... NOT available
Auxiliary 'external' fitting basis          ... NOT available
Integral threshold                          ...     1.000000e-10
Primitive cut-off                           ...     1.000000e-11
Primitive pair pre-selection threshold      ...     1.000000e-11

Calculating pre-screening integrals         ... done (  0.2 sec) Dimension = 155
Organizing shell pair data                  ... done (  5.1 sec)
Shell pair information
Total number of shell pairs                 ...     12090
Shell pairs after pre-screening             ...      9921
Total number of primitive shell pairs       ...     33105
Primitive shell pairs kept                  ...     19992
          la=0 lb=0:   1554 shell pairs
          la=1 lb=0:   2261 shell pairs
          la=1 lb=1:    861 shell pairs
          la=2 lb=0:   1952 shell pairs
          la=2 lb=1:   1386 shell pairs
          la=2 lb=2:    573 shell pairs
          la=3 lb=0:    532 shell pairs
          la=3 lb=1:    402 shell pairs
          la=3 lb=2:    342 shell pairs
          la=3 lb=3:     58 shell pairs

Calculating one electron integrals          ... done (  0.0 sec)
Calculating ECP integrals                   ... done (  6.3 sec)
Calculating RI/J V-Matrix + Cholesky decomp.... done (  0.1 sec)
Calculating Nuclear repulsion               ... done (  0.0 sec) ENN=   3133.120974202934 Eh

SHARK setup successfully completed in  12.1 seconds

Maximum memory used throughout the entire GTOINT-calculation: 27.1 MB


           ************************************************************
           *        Program running with 6 parallel MPI-processes     *
           *              working on a common directory               *
           ************************************************************
-------------------------------------------------------------------------------
                                 ORCA SCF
-------------------------------------------------------------------------------

------------
SCF SETTINGS
------------
Hamiltonian:
 Density Functional     Method          .... DFT(GTOs)
  Functional kind                       .... Exchange
  Functional name                       .... Re-regularized SCAN exchange by Furness et al
  Functional family                     .... MGGA
  Functional refs                              
    [ 0] J. W. Furness, A. D. Kaplan, J. Ning, J. P. Perdew, and J. Sun, J. Phys. Chem. Lett. 11, 8208 (2020)
    [ 1] J. W. Furness, A. D. Kaplan, J. Ning, J. P. Perdew, and J. Sun, J. Phys. Chem. Lett. 11, 9248 (2020)
  Functional external parameters         .... 8
 Parameter  0 :         c1 parameter
 Parameter  1 :         c2 parameter
 Parameter  2 :          d parameter
 Parameter  3 :         k1 parameter
 Parameter  4 :       taur parameter
 Parameter  5 :     alphar parameter
 Parameter  6 :        eta parameter
 Parameter  7 :        dp2 parameter
  Functional kind                       .... Correlation
  Functional name                       .... Re-regularized SCAN correlation by Furness et al
  Functional family                     .... MGGA
  Functional refs                              
    [ 0] J. W. Furness, A. D. Kaplan, J. Ning, J. P. Perdew, and J. Sun, J. Phys. Chem. Lett. 11, 8208 (2020)
    [ 1] J. W. Furness, A. D. Kaplan, J. Ning, J. P. Perdew, and J. Sun, J. Phys. Chem. Lett. 11, 9248 (2020)
  Functional external parameters         .... 0
 Gradients option       PostSCFGGA      .... off
   Density functional embedding theory  .... OFF
   NL short-range parameter             .... 12.300000
 RI-approximation to the Coulomb term is turned on
   Number of AuxJ basis functions       .... 979


General Settings:
 Integral files         IntName         .... scan
 Hartree-Fock type      HFTyp           .... UHF
 Total Charge           Charge          ....    0
 Multiplicity           Mult            ....    5
 Number of Electrons    NEL             ....  214
 Basis Dimension        Dim             ....  445
 Nuclear Repulsion      ENuc            ....   3133.1209742029 Eh

Convergence Acceleration:
 DIIS                   CNVDIIS         .... off
 Trust-Rad. Augm. Hess. CNVTRAH         .... auto
   Auto Start mean grad. ratio tolernc. ....  1.125000
   Auto Start start iteration           ....   200
   Auto Start num. interpolation iter.  ....    10
   Max. Number of Micro iterations      ....    16
   Max. Number of Macro iterations      .... Maxiter - #DIIS iter
   Number of Davidson start vectors     ....     2
   Converg. threshold I  (grad. norm)   ....   5.000e-05
   Converg. threshold II (energy diff.) ....   1.000e-06
   Grad. Scal. Fac. for Micro threshold ....   0.100
   Minimum threshold for Micro iter.    ....   0.010
   NR start threshold (gradient norm)   ....   0.001
   Initial trust radius                 ....   0.400
   Minimum AH scaling param. (alpha)    ....   1.000
   Maximum AH scaling param. (alpha)    .... 1000.000
   Orbital update algorithm             .... Taylor
   White noise on init. David. guess    .... on
   Maximum white noise                  ....   0.010
   Quad. conv. algorithm                .... NR
 SOSCF                  CNVSOSCF        .... off
 Level Shifting         CNVShift        .... off
 Zerner damping         CNVZerner       .... off
 Static damping         CNVDamp         .... off
 Fernandez-Rico         CNVRico         .... off

SCF Procedure:
 Maximum # iterations   MaxIter         ....   400
 SCF integral mode      SCFMode         .... Direct
   Integral package                     .... SHARK and LIBINT hybrid scheme
 Reset frequency        DirectResetFreq ....    20
 Integral Threshold     Thresh          ....  1.000e-10 Eh
 Primitive CutOff       TCut            ....  1.000e-11 Eh

Convergence Tolerance:
 Convergence Check Mode ConvCheckMode   .... All-Criteria
 Convergence forced     ConvForced      .... 0
 Energy Change          TolE            ....  1.000e-06 Eh
 Max Density Change     TolMaxP         ....  1.000e-05
 RMS Density Change     TolRMSP         ....  1.000e-06


Diagonalization of the overlap matrix:
Smallest eigenvalue                        ... 3.083e-04
Time for diagonalization                   ...    0.058 sec
Threshold for overlap eigenvalues          ... 1.000e-08
Number of eigenvalues below threshold      ... 0
Time for construction of square roots      ...    0.111 sec
Total time needed                          ...    0.277 sec

Time for model grid setup =    0.266 sec

------------------------------
INITIAL GUESS: MODEL POTENTIAL
------------------------------
Loading Hartree-Fock densities                     ... done
  calling /media/Programs/ORCA501/orca scan_atom79.inp > scan_atom79.out in order to generate an atomic fitting density for atom 0 (Au with ECP) on-the-fly... 
    atom 0 (Au), assumed electronic state with S=2: 1s2 2s2 2p6 3s2 3p6 4s2 3d10 4p6 5s2 4d10 5p6 6s1 4f14 5d10           ... done
Calculating cut-offs                               ... done
Initializing the effective Hamiltonian             ... done
Setting up the integral package (SHARK)            ... done
Starting the Coulomb interaction                   ... done (   0.2 sec)
Reading the grid                                   ... done
Mapping shells                                     ... done
Starting the XC term evaluation                    ... done (   0.3 sec)
  promolecular density results
     # of electrons  =    814.012016573
     EX              =  -3705.414805595
     EC              =    -49.434381463
     EX+EC           =  -3754.849187058
Transforming the Hamiltonian                       ... done (   0.0 sec)
Diagonalizing the Hamiltonian                      ... done (   0.0 sec)
Back transforming the eigenvectors                 ... done (   0.0 sec)
Now organizing SCF variables                       ... done
                      ------------------
                      INITIAL GUESS DONE (   4.1 sec)
                      ------------------
-------------------
DFT GRID GENERATION
-------------------

General Integration Accuracy     IntAcc      ... 4.388
Radial Grid Type                 RadialGrid  ... OptM3 with GC (2021)
Angular Grid (max. ang.)         AngularGrid ... 4 (Lebedev-302)
Angular grid pruning method      GridPruning ... 4 (adaptive)
Weight generation scheme         WeightScheme... Becke
Basis function cutoff            BFCut       ... 1.0000e-10
Integration weight cutoff        WCut        ... 1.0000e-14
Angular grids for H and He will be reduced by one unit
Partially contracted basis set               ... off
Rotationally invariant grid construction     ... off

Total number of grid points                  ...   123453
Total number of batches                      ...     1933
Average number of points per batch           ...       63
Average number of grid points per atom       ...    11223
Time for grid setup =    1.610 sec

--------------
SCF ITERATIONS
--------------
ITER       Energy         Delta-E        Max-DP      RMS-DP      [F,P]   Gradient Norm
               ***  Starting incremental Fock matrix formation  ***
                             ****Resetting KDIIS****
                             ****Turning on KDIIS(Cayley)****
  0  -2401.5448330468   0.000000000000 0.25098755  0.00131842  0.3023656   0.208538480
  1  -2402.2023201333  -0.657487086451 0.19773853  0.00141237  0.2706564   0.167653676
  2  -2402.5489240857  -0.346603952405 0.18655700  0.00130796  0.2140181   0.127206737
  3  -2402.7541294936  -0.205205407882 0.47765203  0.00192962  0.1252409   0.073523768
  4  -2402.8330100040  -0.078880510397 0.10337669  0.00058558  0.0286501   0.017319672
  5  -2402.8565385749  -0.023528570975 0.05424996  0.00038510  0.0177202   0.006022045
  6  -2402.8662591599  -0.009720584919 0.03750318  0.00034276  0.0183164   0.004043791
  7  -2402.8705957279  -0.004336568067 0.02364560  0.00028323  0.0089301   0.004376393
  8  -2402.8698173727   0.000778355256 0.03523481  0.00020264  0.0131751   0.006905400
  9  -2402.8739073480  -0.004089975319 0.00892524  0.00009785  0.0045948   0.001256508
 10  -2402.8742784442  -0.000371096194 0.00689439  0.00006015  0.0024196   0.001215579
 11  -2402.8745522646  -0.000273820462 0.00736194  0.00005626  0.0018588   0.000568615
 12  -2402.8747034849  -0.000151220296 0.00305991  0.00003384  0.0013994   0.000693345
 13  -2402.8747584877  -0.000055002717 0.00300461  0.00003609  0.0011234   0.000580887
 14  -2402.8748298807  -0.000071393064 0.00267642  0.00002153  0.0006991   0.000407634
 15  -2402.8748205874   0.000009293265 0.00193730  0.00002134  0.0026535   0.000686338
 16  -2402.8748653773  -0.000044789812 0.00143960  0.00001356  0.0006753   0.000304428
 17  -2402.8748705632  -0.000005185918 0.00100857  0.00001315  0.0009217   0.000263107
 18  -2402.8748900848  -0.000019521576 0.00163012  0.00000979  0.0008275   0.000194101
 19  -2402.8748927720  -0.000002687262 0.00131414  0.00000866  0.0007299   0.000165095
               *** Restarting incremental Fock matrix formation ***
                             ****Resetting KDIIS****
 20  -2402.8749015051  -0.000008733070 0.00011859  0.00000115  0.0006574   0.000116400
 21  -2402.8749025755  -0.000001070456 0.00009165  0.00000140  0.0006068   0.000087091
 22  -2402.8749045012  -0.000001925690 0.00026396  0.00000295  0.0006035   0.000077358
 23  -2402.8749074653  -0.000002964103 0.00190027  0.00002483  0.0004829   0.000068326
 24  -2402.8749314269  -0.000023961558 0.00049460  0.00000563  0.0001206   0.000091210
 25  -2402.8749342350  -0.000002808064 0.00200419  0.00000515  0.0000760   0.000020955
                          ***Energy convergence achieved***
 26  -2402.8749341763   0.000000058615 0.00017504  0.00000157  0.0000492   0.000036653
 27  -2402.8749347706  -0.000000594289 0.00036816  0.00000201  0.0000578   0.000008535
 28  -2402.8749353290  -0.000000558365 0.00018645  0.00000153  0.0000417   0.000021983
                           ***RMSP convergence achieved***
 29  -2402.8749352279   0.000000101083 0.00014877  0.00000065  0.0000446   0.000010703
 30  -2402.8749352971  -0.000000069207 0.00018958  0.00000083  0.0000181   0.000010123
 31  -2402.8749352599   0.000000037242 0.00014355  0.00000075  0.0000163   0.000011025
 32  -2402.8749351918   0.000000068095 0.00022091  0.00000063  0.0000146   0.000003416

            ***Energy convergence in two consecutive cycles with***
                    ***'reasonable' density convergence***
                       *** signaling convergence ***

                    *** KDIIS BlockDiag ( 2.038 sec) ***

               *****************************************************
               *                     SUCCESS                       *
               *           SCF CONVERGED AFTER  33 CYCLES          *
               *****************************************************


----------------
TOTAL SCF ENERGY
----------------

Total Energy       :        -2402.87493498 Eh          -65385.55112 eV

Components:
Nuclear Repulsion  :         3133.12097420 Eh           85256.55607 eV
Electronic Energy  :        -5535.99590919 Eh         -150642.10719 eV
One Electron Energy:       -10084.77032086 Eh         -274420.55170 eV
Two Electron Energy:         4548.77441168 Eh          123778.44452 eV

Virial components:
Potential Energy   :        -3904.50898336 Eh         -106247.09094 eV
Kinetic Energy     :         1501.63404838 Eh           40861.53982 eV
Virial Ratio       :            2.60017345


DFT components:
N(Alpha)           :      109.000054566427 electrons
N(Beta)            :      105.000053488220 electrons
N(Total)           :      214.000108054647 electrons
E(X)               :     -169.050658155692 Eh       
E(C)               :       -8.842528453572 Eh       
E(XC)              :     -177.893186609264 Eh       
DFET-embed. en.    :        0.000000000000 Eh       

---------------
SCF CONVERGENCE
---------------

  Last Energy change         ...    2.0732e-07  Tolerance :   1.0000e-06
  Last MAX-Density change    ...    4.8352e-05  Tolerance :   1.0000e-05
  Last RMS-Density change    ...    5.3492e-07  Tolerance :   1.0000e-06

             **** THE GBW FILE WAS UPDATED (scan.gbw) ****
             **** DENSITY scan.scfp WAS UPDATED ****
             **** ENERGY FILE WAS UPDATED (scan.en.tmp) ****
----------------------
UHF SPIN CONTAMINATION
----------------------

Warning: in a DFT calculation there is little theoretical justification to 
         calculate <S**2> as in Hartree-Fock theory. We will do it anyways
         but you should keep in mind that the values have only limited relevance

Expectation value of <S**2>     :     6.266327
Ideal value S*(S+1) for S=2.0   :     6.000000
Deviation                       :     0.266327

             **** THE GBW FILE WAS UPDATED (scan.gbw) ****
             **** DENSITY scan.scfp WAS UPDATED ****
----------------
ORBITAL ENERGIES
----------------
                 SPIN UP ORBITALS
  NO   OCC          E(Eh)            E(eV) 
   0   1.0000    -215.287047     -5858.2584 
   1   1.0000     -24.589511      -669.1146 
   2   1.0000     -20.856138      -567.5244 
   3   1.0000     -20.855867      -567.5170 
   4   1.0000     -20.854173      -567.4709 
   5   1.0000      -4.119191      -112.0889 
   6   1.0000      -4.119023      -112.0843 
   7   1.0000      -4.116392      -112.0127 
   8   1.0000      -4.116113      -112.0051 
   9   1.0000      -4.115269      -111.9822 
  10   1.0000      -4.115131      -111.9784 
  11   1.0000      -4.113065      -111.9222 
  12   1.0000      -4.107932      -111.7825 
  13   1.0000      -4.103199      -111.6537 
  14   1.0000      -4.101532      -111.6084 
  15   1.0000      -2.911389       -79.2229 
  16   1.0000      -2.309469       -62.8438 
  17   1.0000      -2.307788       -62.7981 
  18   1.0000      -2.307515       -62.7907 
  19   1.0000      -2.307269       -62.7840 
  20   1.0000      -2.305534       -62.7368 
  21   1.0000      -2.304842       -62.7179 
  22   1.0000      -2.304736       -62.7151 
  23   1.0000      -2.304222       -62.7011 
  24   1.0000      -2.303672       -62.6861 
  25   1.0000      -2.302665       -62.6587 
  26   1.0000      -2.302183       -62.6456 
  27   1.0000      -2.301866       -62.6370 
  28   1.0000      -2.301751       -62.6338 
  29   1.0000      -2.301171       -62.6181 
  30   1.0000      -2.300819       -62.6085 
  31   1.0000      -2.299706       -62.5782 
  32   1.0000      -2.297859       -62.5279 
  33   1.0000      -2.296598       -62.4936 
  34   1.0000      -2.295687       -62.4688 
  35   1.0000      -2.295646       -62.4677 
  36   1.0000      -2.294653       -62.4407 
  37   1.0000      -2.294415       -62.4342 
  38   1.0000      -2.294240       -62.4295 
  39   1.0000      -2.293105       -62.3986 
  40   1.0000      -2.291488       -62.3546 
  41   1.0000      -2.290861       -62.3375 
  42   1.0000      -2.288835       -62.2824 
  43   1.0000      -2.285612       -62.1947 
  44   1.0000      -2.284863       -62.1743 
  45   1.0000      -2.281605       -62.0856 
  46   1.0000      -1.859868       -50.6096 
  47   1.0000      -1.858370       -50.5688 
  48   1.0000      -1.856821       -50.5267 
  49   1.0000      -0.414018       -11.2660 
  50   1.0000      -0.381593       -10.3837 
  51   1.0000      -0.378764       -10.3067 
  52   1.0000      -0.369099       -10.0437 
  53   1.0000      -0.367487        -9.9998 
  54   1.0000      -0.364258        -9.9120 
  55   1.0000      -0.356953        -9.7132 
  56   1.0000      -0.353969        -9.6320 
  57   1.0000      -0.351786        -9.5726 
  58   1.0000      -0.348317        -9.4782 
  59   1.0000      -0.344842        -9.3836 
  60   1.0000      -0.343966        -9.3598 
  61   1.0000      -0.341621        -9.2960 
  62   1.0000      -0.336025        -9.1437 
  63   1.0000      -0.335330        -9.1248 
  64   1.0000      -0.332765        -9.0550 
  65   1.0000      -0.331057        -9.0085 
  66   1.0000      -0.328339        -8.9346 
  67   1.0000      -0.321682        -8.7534 
  68   1.0000      -0.319731        -8.7003 
  69   1.0000      -0.315448        -8.5838 
  70   1.0000      -0.315198        -8.5770 
  71   1.0000      -0.313484        -8.5303 
  72   1.0000      -0.307941        -8.3795 
  73   1.0000      -0.306248        -8.3334 
  74   1.0000      -0.304222        -8.2783 
  75   1.0000      -0.299432        -8.1480 
  76   1.0000      -0.297313        -8.0903 
  77   1.0000      -0.295538        -8.0420 
  78   1.0000      -0.290491        -7.9047 
  79   1.0000      -0.288955        -7.8629 
  80   1.0000      -0.284984        -7.7548 
  81   1.0000      -0.283569        -7.7163 
  82   1.0000      -0.280483        -7.6323 
  83   1.0000      -0.279859        -7.6153 
  84   1.0000      -0.277334        -7.5466 
  85   1.0000      -0.276579        -7.5261 
  86   1.0000      -0.276311        -7.5188 
  87   1.0000      -0.275297        -7.4912 
  88   1.0000      -0.271409        -7.3854 
  89   1.0000      -0.268787        -7.3141 
  90   1.0000      -0.267413        -7.2767 
  91   1.0000      -0.265902        -7.2356 
  92   1.0000      -0.264113        -7.1869 
  93   1.0000      -0.259097        -7.0504 
  94   1.0000      -0.258596        -7.0368 
  95   1.0000      -0.256779        -6.9873 
  96   1.0000      -0.254782        -6.9330 
  97   1.0000      -0.254383        -6.9221 
  98   1.0000      -0.249942        -6.8013 
  99   1.0000      -0.249111        -6.7786 
 100   1.0000      -0.246984        -6.7208 
 101   1.0000      -0.242876        -6.6090 
 102   1.0000      -0.230550        -6.2736 
 103   1.0000      -0.228841        -6.2271 
 104   1.0000      -0.219575        -5.9749 
 105   1.0000      -0.208271        -5.6674 
 106   1.0000      -0.208178        -5.6648 
 107   1.0000      -0.206119        -5.6088 
 108   1.0000      -0.199453        -5.4274 
 109   0.0000      -0.162922        -4.4333 
 110   0.0000      -0.157937        -4.2977 
 111   0.0000      -0.135858        -3.6969 
 112   0.0000      -0.124836        -3.3970 
 113   0.0000      -0.116062        -3.1582 
 114   0.0000      -0.094056        -2.5594 
 115   0.0000      -0.063010        -1.7146 
 116   0.0000      -0.054292        -1.4774 
 117   0.0000      -0.050882        -1.3846 
 118   0.0000      -0.041102        -1.1184 
 119   0.0000      -0.033364        -0.9079 
 120   0.0000      -0.032960        -0.8969 
 121   0.0000      -0.012626        -0.3436 
 122   0.0000      -0.012330        -0.3355 
 123   0.0000      -0.002063        -0.0561 
 124   0.0000       0.024910         0.6778 
 125   0.0000       0.037614         1.0235 
 126   0.0000       0.041954         1.1416 
 127   0.0000       0.045739         1.2446 
 128   0.0000       0.049912         1.3582 
 129   0.0000       0.059257         1.6125 
 130   0.0000       0.061616         1.6767 
 131   0.0000       0.062332         1.6962 
 132   0.0000       0.068998         1.8775 
 133   0.0000       0.073998         2.0136 
 134   0.0000       0.078161         2.1269 
 135   0.0000       0.080552         2.1919 
 136   0.0000       0.085238         2.3194 
 137   0.0000       0.096007         2.6125 
 138   0.0000       0.106707         2.9036 
 139   0.0000       0.109015         2.9665 
 140   0.0000       0.110089         2.9957 
 141   0.0000       0.121601         3.3089 
 142   0.0000       0.125813         3.4236 
 143   0.0000       0.128959         3.5091 
 144   0.0000       0.142145         3.8680 
 145   0.0000       0.146462         3.9854 
 146   0.0000       0.147020         4.0006 
 147   0.0000       0.158870         4.3231 
 148   0.0000       0.161574         4.3966 
 149   0.0000       0.163358         4.4452 
 150   0.0000       0.169220         4.6047 
 151   0.0000       0.169462         4.6113 
 152   0.0000       0.174616         4.7515 
 153   0.0000       0.180423         4.9096 
 154   0.0000       0.222966         6.0672 
 155   0.0000       0.237650         6.4668 
 156   0.0000       0.239386         6.5140 
 157   0.0000       0.242425         6.5967 
 158   0.0000       0.244069         6.6415 
 159   0.0000       0.253432         6.8962 
 160   0.0000       0.260085         7.0773 
 161   0.0000       0.273770         7.4497 
 162   0.0000       0.276149         7.5144 
 163   0.0000       0.284583         7.7439 
 164   0.0000       0.285283         7.7630 
 165   0.0000       0.289896         7.8885 
 166   0.0000       0.292867         7.9693 
 167   0.0000       0.297505         8.0955 
 168   0.0000       0.304727         8.2920 
 169   0.0000       0.309148         8.4123 
 170   0.0000       0.316837         8.6216 
 171   0.0000       0.317816         8.6482 
 172   0.0000       0.319044         8.6816 
 173   0.0000       0.323991         8.8162 
 174   0.0000       0.330158         8.9841 
 175   0.0000       0.340322         9.2606 
 176   0.0000       0.350572         9.5395 
 177   0.0000       0.357935         9.7399 
 178   0.0000       0.359427         9.7805 
 179   0.0000       0.366034         9.9603 
 180   0.0000       0.370041        10.0693 
 181   0.0000       0.371094        10.0980 
 182   0.0000       0.376451        10.2438 
 183   0.0000       0.378056        10.2874 
 184   0.0000       0.379160        10.3175 
 185   0.0000       0.391818        10.6619 
 186   0.0000       0.393634        10.7113 
 187   0.0000       0.401584        10.9277 
 188   0.0000       0.406737        11.0679 
 189   0.0000       0.407516        11.0891 
 190   0.0000       0.414448        11.2777 
 191   0.0000       0.423278        11.5180 
 192   0.0000       0.428594        11.6626 
 193   0.0000       0.434642        11.8272 
 194   0.0000       0.441387        12.0108 
 195   0.0000       0.444754        12.1024 
 196   0.0000       0.445960        12.1352 
 197   0.0000       0.450686        12.2638 
 198   0.0000       0.457554        12.4507 
 199   0.0000       0.479476        13.0472 
 200   0.0000       0.480588        13.0775 
 201   0.0000       0.493010        13.4155 
 202   0.0000       0.497634        13.5413 
 203   0.0000       0.502745        13.6804 
 204   0.0000       0.509717        13.8701 
 205   0.0000       0.522758        14.2250 
 206   0.0000       0.525626        14.3030 
 207   0.0000       0.532755        14.4970 
 208   0.0000       0.534102        14.5336 
 209   0.0000       0.539938        14.6924 
 210   0.0000       0.540345        14.7035 
 211   0.0000       0.545844        14.8532 
 212   0.0000       0.552391        15.0313 
 213   0.0000       0.559582        15.2270 
 214   0.0000       0.573775        15.6132 
 215   0.0000       0.580481        15.7957 
 216   0.0000       0.584528        15.9058 
 217   0.0000       0.585340        15.9279 
 218   0.0000       0.599952        16.3255 
 219   0.0000       0.654114        17.7993 
 220   0.0000       0.658474        17.9180 
 221   0.0000       0.707348        19.2479 
 222   0.0000       0.716206        19.4890 
 223   0.0000       0.733021        19.9465 
 224   0.0000       0.736460        20.0401 
 225   0.0000       0.758291        20.6342 
 226   0.0000       0.772941        21.0328 
 227   0.0000       0.778184        21.1755 
 228   0.0000       0.785729        21.3808 
 229   0.0000       0.809523        22.0283 
 230   0.0000       0.825378        22.4597 
 231   0.0000       0.836624        22.7657 
 232   0.0000       0.842659        22.9299 
 233   0.0000       0.862203        23.4617 
 234   0.0000       0.864742        23.5308 
 235   0.0000       0.872640        23.7458 
 236   0.0000       0.874689        23.8015 
 237   0.0000       0.885126        24.0855 
 238   0.0000       0.904756        24.6197 
 239   0.0000       0.906727        24.6733 
 240   0.0000       0.910914        24.7872 
 241   0.0000       0.911208        24.7952 
 242   0.0000       0.930437        25.3185 
 243   0.0000       0.952667        25.9234 
 244   0.0000       0.959430        26.1074 
 245   0.0000       1.031979        28.0816 
 246   0.0000       1.037907        28.2429 
 247   0.0000       1.154109        31.4049 
 248   0.0000       1.194750        32.5108 
 249   0.0000       1.257350        34.2142 
 250   0.0000       1.261798        34.3353 
 251   0.0000       1.278470        34.7889 
 252   0.0000       1.291794        35.1515 
 253   0.0000       1.304276        35.4912 
 254   0.0000       1.326731        36.1022 
 255   0.0000       1.333552        36.2878 
 256   0.0000       1.356780        36.9199 
 257   0.0000       1.359273        36.9877 
 258   0.0000       1.363755        37.1097 
 259   0.0000       1.382746        37.6264 
 260   0.0000       1.401738        38.1432 
 261   0.0000       1.402936        38.1758 
 262   0.0000       1.413163        38.4541 
 263   0.0000       1.422090        38.6970 
 264   0.0000       1.424344        38.7584 
 265   0.0000       1.441278        39.2192 
 266   0.0000       1.447739        39.3950 
 267   0.0000       1.448728        39.4219 
 268   0.0000       1.452818        39.5332 
 269   0.0000       1.462736        39.8031 
 270   0.0000       1.475058        40.1384 
 271   0.0000       1.475477        40.1498 
 272   0.0000       1.478212        40.2242 
 273   0.0000       1.484683        40.4003 
 274   0.0000       1.491866        40.5957 
 275   0.0000       1.499431        40.8016 
 276   0.0000       1.499935        40.8153 
 277   0.0000       1.502954        40.8975 
 278   0.0000       1.503884        40.9228 
 279   0.0000       1.505493        40.9666 
 280   0.0000       1.513810        41.1929 
 281   0.0000       1.524200        41.4756 
 282   0.0000       1.524823        41.4926 
 283   0.0000       1.528117        41.5822 
 284   0.0000       1.529581        41.6220 
 285   0.0000       1.535256        41.7764 
 286   0.0000       1.538581        41.8669 
 287   0.0000       1.540368        41.9155 
 288   0.0000       1.542900        41.9844 
 289   0.0000       1.544657        42.0322 
 290   0.0000       1.546901        42.0933 
 291   0.0000       1.549533        42.1649 
 292   0.0000       1.552143        42.2360 
 293   0.0000       1.552955        42.2580 
 294   0.0000       1.554302        42.2947 
 295   0.0000       1.558024        42.3960 
 296   0.0000       1.560487        42.4630 
 297   0.0000       1.562735        42.5242 
 298   0.0000       1.565260        42.5929 
 299   0.0000       1.566731        42.6329 
 300   0.0000       1.567007        42.6404 
 301   0.0000       1.569342        42.7040 
 302   0.0000       1.570352        42.7314 
 303   0.0000       1.574984        42.8575 
 304   0.0000       1.576145        42.8891 
 305   0.0000       1.579249        42.9735 
 306   0.0000       1.580353        43.0036 
 307   0.0000       1.581916        43.0461 
 308   0.0000       1.583606        43.0921 
 309   0.0000       1.585343        43.1394 
 310   0.0000       1.585628        43.1471 
 311   0.0000       1.589619        43.2557 
 312   0.0000       1.591136        43.2970 
 313   0.0000       1.593544        43.3625 
 314   0.0000       1.594791        43.3965 
 315   0.0000       1.596432        43.4411 
 316   0.0000       1.603412        43.6311 
 317   0.0000       1.604661        43.6650 
 318   0.0000       1.605729        43.6941 
 319   0.0000       1.607814        43.7509 
 320   0.0000       1.609672        43.8014 
 321   0.0000       1.613040        43.8931 
 322   0.0000       1.615316        43.9550 
 323   0.0000       1.621564        44.1250 
 324   0.0000       1.622541        44.1516 
 325   0.0000       1.624687        44.2100 
 326   0.0000       1.627754        44.2934 
 327   0.0000       1.629003        44.3274 
 328   0.0000       1.632070        44.4109 
 329   0.0000       1.634017        44.4639 
 330   0.0000       1.636163        44.5223 
 331   0.0000       1.641508        44.6677 
 332   0.0000       1.643325        44.7171 
 333   0.0000       1.644513        44.7495 
 334   0.0000       1.647379        44.8275 
 335   0.0000       1.649671        44.8898 
 336   0.0000       1.656763        45.0828 
 337   0.0000       1.658017        45.1169 
 338   0.0000       1.659963        45.1699 
 339   0.0000       1.662066        45.2271 
 340   0.0000       1.665552        45.3220 
 341   0.0000       1.666106        45.3371 
 342   0.0000       1.668250        45.3954 
 343   0.0000       1.674634        45.5691 
 344   0.0000       1.676205        45.6119 
 345   0.0000       1.682236        45.7760 
 346   0.0000       1.689585        45.9759 
 347   0.0000       1.691785        46.0358 
 348   0.0000       1.694084        46.0984 
 349   0.0000       1.706688        46.4413 
 350   0.0000       1.714484        46.6535 
 351   0.0000       1.718046        46.7504 
 352   0.0000       1.720445        46.8157 
 353   0.0000       1.747542        47.5530 
 354   0.0000       1.760643        47.9095 
 355   0.0000       1.775658        48.3181 
 356   0.0000       1.797586        48.9148 
 357   0.0000       1.807460        49.1835 
 358   0.0000       1.826654        49.7058 
 359   0.0000       1.834909        49.9304 
 360   0.0000       1.851036        50.3693 
 361   0.0000       1.866365        50.7864 
 362   0.0000       1.883986        51.2659 
 363   0.0000       1.889013        51.4026 
 364   0.0000       1.896228        51.5990 
 365   0.0000       1.900734        51.7216 
 366   0.0000       1.921656        52.2909 
 367   0.0000       1.945729        52.9460 
 368   0.0000       2.003832        54.5270 
 369   0.0000       2.016437        54.8700 
 370   0.0000       2.032410        55.3047 
 371   0.0000       2.133011        58.0422 
 372   0.0000       2.160152        58.7807 
 373   0.0000       2.265999        61.6610 
 374   0.0000       2.273334        61.8606 
 375   0.0000       2.303332        62.6768 
 376   0.0000       2.338113        63.6233 
 377   0.0000       2.370544        64.5058 
 378   0.0000       2.410452        65.5917 
 379   0.0000       2.446489        66.5723 
 380   0.0000       2.452989        66.7492 
 381   0.0000       2.486416        67.6588 
 382   0.0000       2.534893        68.9779 
 383   0.0000       2.538707        69.0817 
 384   0.0000       2.572108        69.9906 
 385   0.0000       2.589662        70.4683 
 386   0.0000       2.686660        73.1077 
 387   0.0000       2.810611        76.4806 
 388   0.0000       2.918132        79.4064 
 389   0.0000       2.920439        79.4692 
 390   0.0000       2.934896        79.8626 
 391   0.0000       2.941745        80.0490 
 392   0.0000       2.966919        80.7340 
 393   0.0000       2.987086        81.2827 
 394   0.0000       2.994618        81.4877 
 395   0.0000      23.715252       645.3248 
 396   0.0000      23.738612       645.9605 
 397   0.0000      24.109412       656.0504 
 398   0.0000      24.374164       663.2547 
 399   0.0000      24.395662       663.8397 
 400   0.0000      24.696965       672.0386 
 401   0.0000      25.041611       681.4169 
 402   0.0000      25.121732       683.5971 
 403   0.0000      25.562669       695.5956 
 404   0.0000      25.729230       700.1280 
 405   0.0000      25.862249       703.7476 
 406   0.0000      25.984807       707.0825 
 407   0.0000      26.042084       708.6411 
 408   0.0000      26.113098       710.5735 
 409   0.0000      26.286294       715.2864 
 410   0.0000      26.529561       721.9061 
 411   0.0000      26.538562       722.1510 
 412   0.0000      26.728358       727.3156 
 413   0.0000      26.810462       729.5498 
 414   0.0000      26.960342       733.6282 
 415   0.0000      27.012575       735.0495 
 416   0.0000      27.219129       740.6701 
 417   0.0000      27.323509       743.5105 
 418   0.0000      27.381538       745.0895 
 419   0.0000      27.610191       751.3115 
 420   0.0000      27.772323       755.7233 
 421   0.0000      27.869493       758.3675 
 422   0.0000      27.952022       760.6132 
 423   0.0000      28.528619       776.3032 
 424   0.0000      28.996239       789.0278 
 425   0.0000      44.398525      1208.1453 
 426   0.0000      44.439265      1209.2539 
 427   0.0000      44.449041      1209.5199 
 428   0.0000      44.495153      1210.7747 
 429   0.0000      44.553802      1212.3706 
 430   0.0000      44.585311      1213.2280 
 431   0.0000      44.609587      1213.8886 
 432   0.0000      44.638890      1214.6860 
 433   0.0000      44.649625      1214.9781 
 434   0.0000      44.700046      1216.3501 
 435   0.0000     205.259652      5585.3991 
 436   0.0000     205.276966      5585.8702 
 437   0.0000     205.282918      5586.0322 
 438   0.0000     205.298033      5586.4435 
 439   0.0000     205.324688      5587.1688 
 440   0.0000     205.336127      5587.4801 
 441   0.0000     205.345857      5587.7449 
 442   0.0000     205.353187      5587.9443 
 443   0.0000     205.366098      5588.2956 
 444   0.0000     205.383282      5588.7632 

                 SPIN DOWN ORBITALS
  NO   OCC          E(Eh)            E(eV) 
   0   1.0000    -215.286425     -5858.2415 
   1   1.0000     -24.526506      -667.4002 
   2   1.0000     -20.809475      -566.2546 
   3   1.0000     -20.808687      -566.2332 
   4   1.0000     -20.802504      -566.0649 
   5   1.0000      -4.117940      -112.0549 
   6   1.0000      -4.117751      -112.0497 
   7   1.0000      -4.115055      -111.9763 
   8   1.0000      -4.114758      -111.9682 
   9   1.0000      -4.114236      -111.9541 
  10   1.0000      -4.114113      -111.9507 
  11   1.0000      -4.111742      -111.8862 
  12   1.0000      -4.107323      -111.7659 
  13   1.0000      -4.102315      -111.6297 
  14   1.0000      -4.100753      -111.5872 
  15   1.0000      -2.746820       -74.7448 
  16   1.0000      -2.307775       -62.7977 
  17   1.0000      -2.306244       -62.7561 
  18   1.0000      -2.305960       -62.7484 
  19   1.0000      -2.305591       -62.7383 
  20   1.0000      -2.304450       -62.7073 
  21   1.0000      -2.303766       -62.6887 
  22   1.0000      -2.303381       -62.6782 
  23   1.0000      -2.302675       -62.6590 
  24   1.0000      -2.302218       -62.6465 
  25   1.0000      -2.301212       -62.6192 
  26   1.0000      -2.300658       -62.6041 
  27   1.0000      -2.300417       -62.5975 
  28   1.0000      -2.300317       -62.5948 
  29   1.0000      -2.299550       -62.5739 
  30   1.0000      -2.299524       -62.5732 
  31   1.0000      -2.298431       -62.5435 
  32   1.0000      -2.296457       -62.4898 
  33   1.0000      -2.295320       -62.4588 
  34   1.0000      -2.294538       -62.4375 
  35   1.0000      -2.293963       -62.4219 
  36   1.0000      -2.293503       -62.4094 
  37   1.0000      -2.293457       -62.4081 
  38   1.0000      -2.293199       -62.4011 
  39   1.0000      -2.291978       -62.3679 
  40   1.0000      -2.291356       -62.3510 
  41   1.0000      -2.289842       -62.3098 
  42   1.0000      -2.287628       -62.2495 
  43   1.0000      -2.284503       -62.1645 
  44   1.0000      -2.284318       -62.1595 
  45   1.0000      -2.280425       -62.0535 
  46   1.0000      -1.700357       -46.2691 
  47   1.0000      -1.698209       -46.2106 
  48   1.0000      -1.682908       -45.7942 
  49   1.0000      -0.406286       -11.0556 
  50   1.0000      -0.376471       -10.2443 
  51   1.0000      -0.375264       -10.2115 
  52   1.0000      -0.364917        -9.9299 
  53   1.0000      -0.363422        -9.8892 
  54   1.0000      -0.360613        -9.8128 
  55   1.0000      -0.356380        -9.6976 
  56   1.0000      -0.350373        -9.5341 
  57   1.0000      -0.349306        -9.5051 
  58   1.0000      -0.346118        -9.4183 
  59   1.0000      -0.341962        -9.3053 
  60   1.0000      -0.336870        -9.1667 
  61   1.0000      -0.336605        -9.1595 
  62   1.0000      -0.334101        -9.0913 
  63   1.0000      -0.333938        -9.0869 
  64   1.0000      -0.330114        -8.9829 
  65   1.0000      -0.325472        -8.8565 
  66   1.0000      -0.324711        -8.8358 
  67   1.0000      -0.318814        -8.6754 
  68   1.0000      -0.316230        -8.6051 
  69   1.0000      -0.313864        -8.5407 
  70   1.0000      -0.312500        -8.5036 
  71   1.0000      -0.309726        -8.4281 
  72   1.0000      -0.304852        -8.2955 
  73   1.0000      -0.303251        -8.2519 
  74   1.0000      -0.300910        -8.1882 
  75   1.0000      -0.298137        -8.1127 
  76   1.0000      -0.294761        -8.0208 
  77   1.0000      -0.293774        -7.9940 
  78   1.0000      -0.289148        -7.8681 
  79   1.0000      -0.286833        -7.8051 
  80   1.0000      -0.283430        -7.7125 
  81   1.0000      -0.283008        -7.7010 
  82   1.0000      -0.278748        -7.5851 
  83   1.0000      -0.278656        -7.5826 
  84   1.0000      -0.276315        -7.5189 
  85   1.0000      -0.275901        -7.5076 
  86   1.0000      -0.275018        -7.4836 
  87   1.0000      -0.274023        -7.4566 
  88   1.0000      -0.269948        -7.3457 
  89   1.0000      -0.266327        -7.2471 
  90   1.0000      -0.266267        -7.2455 
  91   1.0000      -0.264281        -7.1914 
  92   1.0000      -0.262485        -7.1426 
  93   1.0000      -0.257891        -7.0176 
  94   1.0000      -0.256725        -6.9858 
  95   1.0000      -0.255816        -6.9611 
  96   1.0000      -0.253302        -6.8927 
  97   1.0000      -0.252634        -6.8745 
  98   1.0000      -0.247621        -6.7381 
  99   1.0000      -0.247087        -6.7236 
 100   1.0000      -0.246117        -6.6972 
 101   1.0000      -0.239868        -6.5271 
 102   1.0000      -0.221664        -6.0318 
 103   1.0000      -0.210620        -5.7313 
 104   1.0000      -0.197527        -5.3750 
 105   0.0000      -0.177006        -4.8166 
 106   0.0000      -0.140230        -3.8158 
 107   0.0000      -0.129498        -3.5238 
 108   0.0000      -0.113196        -3.0802 
 109   0.0000      -0.093684        -2.5493 
 110   0.0000      -0.090727        -2.4688 
 111   0.0000      -0.081284        -2.2119 
 112   0.0000      -0.079491        -2.1631 
 113   0.0000      -0.074808        -2.0356 
 114   0.0000      -0.073492        -1.9998 
 115   0.0000      -0.052468        -1.4277 
 116   0.0000      -0.048930        -1.3315 
 117   0.0000      -0.047098        -1.2816 
 118   0.0000      -0.033198        -0.9034 
 119   0.0000      -0.029841        -0.8120 
 120   0.0000      -0.026500        -0.7211 
 121   0.0000      -0.002966        -0.0807 
 122   0.0000      -0.000599        -0.0163 
 123   0.0000       0.001420         0.0386 
 124   0.0000       0.028790         0.7834 
 125   0.0000       0.039120         1.0645 
 126   0.0000       0.046114         1.2548 
 127   0.0000       0.048073         1.3081 
 128   0.0000       0.055371         1.5067 
 129   0.0000       0.061056         1.6614 
 130   0.0000       0.063648         1.7319 
 131   0.0000       0.065437         1.7806 
 132   0.0000       0.071866         1.9556 
 133   0.0000       0.075039         2.0419 
 134   0.0000       0.080849         2.2000 
 135   0.0000       0.082144         2.2353 
 136   0.0000       0.085654         2.3308 
 137   0.0000       0.098330         2.6757 
 138   0.0000       0.108783         2.9601 
 139   0.0000       0.110628         3.0103 
 140   0.0000       0.112901         3.0722 
 141   0.0000       0.124158         3.3785 
 142   0.0000       0.130223         3.5436 
 143   0.0000       0.135635         3.6908 
 144   0.0000       0.144604         3.9349 
 145   0.0000       0.147265         4.0073 
 146   0.0000       0.154757         4.2112 
 147   0.0000       0.163665         4.4536 
 148   0.0000       0.168412         4.5827 
 149   0.0000       0.172120         4.6836 
 150   0.0000       0.172793         4.7019 
 151   0.0000       0.179709         4.8901 
 152   0.0000       0.180996         4.9251 
 153   0.0000       0.182338         4.9617 
 154   0.0000       0.225745         6.1428 
 155   0.0000       0.241636         6.5752 
 156   0.0000       0.243491         6.6257 
 157   0.0000       0.245603         6.6832 
 158   0.0000       0.247217         6.7271 
 159   0.0000       0.254523         6.9259 
 160   0.0000       0.263036         7.1576 
 161   0.0000       0.274959         7.4820 
 162   0.0000       0.278347         7.5742 
 163   0.0000       0.286179         7.7873 
 164   0.0000       0.287098         7.8123 
 165   0.0000       0.291862         7.9420 
 166   0.0000       0.293318         7.9816 
 167   0.0000       0.299436         8.1481 
 168   0.0000       0.305757         8.3201 
 169   0.0000       0.311377         8.4730 
 170   0.0000       0.317779         8.6472 
 171   0.0000       0.319551         8.6954 
 172   0.0000       0.321863         8.7583 
 173   0.0000       0.325109         8.8467 
 174   0.0000       0.332577         9.0499 
 175   0.0000       0.342213         9.3121 
 176   0.0000       0.353028         9.6064 
 177   0.0000       0.358038         9.7427 
 178   0.0000       0.359960         9.7950 
 179   0.0000       0.367683        10.0052 
 180   0.0000       0.371084        10.0977 
 181   0.0000       0.372669        10.1408 
 182   0.0000       0.378168        10.2905 
 183   0.0000       0.381511        10.3814 
 184   0.0000       0.383410        10.4331 
 185   0.0000       0.392540        10.6816 
 186   0.0000       0.394916        10.7462 
 187   0.0000       0.406444        11.0599 
 188   0.0000       0.409126        11.1329 
 189   0.0000       0.412228        11.2173 
 190   0.0000       0.417936        11.3726 
 191   0.0000       0.429147        11.6777 
 192   0.0000       0.436586        11.8801 
 193   0.0000       0.437739        11.9115 
 194   0.0000       0.445275        12.1166 
 195   0.0000       0.446905        12.1609 
 196   0.0000       0.447374        12.1737 
 197   0.0000       0.454853        12.3772 
 198   0.0000       0.462424        12.5832 
 199   0.0000       0.484422        13.1818 
 200   0.0000       0.484781        13.1916 
 201   0.0000       0.495663        13.4877 
 202   0.0000       0.502100        13.6628 
 203   0.0000       0.508744        13.8436 
 204   0.0000       0.513623        13.9764 
 205   0.0000       0.528091        14.3701 
 206   0.0000       0.529924        14.4200 
 207   0.0000       0.536845        14.6083 
 208   0.0000       0.537294        14.6205 
 209   0.0000       0.545835        14.8529 
 210   0.0000       0.546694        14.8763 
 211   0.0000       0.560431        15.2501 
 212   0.0000       0.561634        15.2828 
 213   0.0000       0.565060        15.3761 
 214   0.0000       0.576920        15.6988 
 215   0.0000       0.582889        15.8612 
 216   0.0000       0.587425        15.9847 
 217   0.0000       0.604376        16.4459 
 218   0.0000       0.606808        16.5121 
 219   0.0000       0.657364        17.8878 
 220   0.0000       0.663355        18.0508 
 221   0.0000       0.709380        19.3032 
 222   0.0000       0.724615        19.7178 
 223   0.0000       0.738570        20.0975 
 224   0.0000       0.740874        20.1602 
 225   0.0000       0.762924        20.7602 
 226   0.0000       0.778923        21.1956 
 227   0.0000       0.782265        21.2865 
 228   0.0000       0.787013        21.4157 
 229   0.0000       0.811206        22.0740 
 230   0.0000       0.836725        22.7684 
 231   0.0000       0.845262        23.0007 
 232   0.0000       0.846727        23.0406 
 233   0.0000       0.865655        23.5557 
 234   0.0000       0.867919        23.6173 
 235   0.0000       0.873573        23.7711 
 236   0.0000       0.886062        24.1110 
 237   0.0000       0.887660        24.1545 
 238   0.0000       0.910641        24.7798 
 239   0.0000       0.912905        24.8414 
 240   0.0000       0.918599        24.9964 
 241   0.0000       0.925448        25.1827 
 242   0.0000       0.932480        25.3741 
 243   0.0000       0.956523        26.0283 
 244   0.0000       0.967283        26.3211 
 245   0.0000       1.037041        28.2193 
 246   0.0000       1.053632        28.6708 
 247   0.0000       1.165372        31.7114 
 248   0.0000       1.200412        32.6649 
 249   0.0000       1.258270        34.2393 
 250   0.0000       1.262924        34.3659 
 251   0.0000       1.281889        34.8820 
 252   0.0000       1.293626        35.2013 
 253   0.0000       1.307139        35.5691 
 254   0.0000       1.328373        36.1469 
 255   0.0000       1.336020        36.3549 
 256   0.0000       1.362545        37.0767 
 257   0.0000       1.364272        37.1237 
 258   0.0000       1.369982        37.2791 
 259   0.0000       1.392906        37.9029 
 260   0.0000       1.410653        38.3858 
 261   0.0000       1.412841        38.4454 
 262   0.0000       1.416366        38.5413 
 263   0.0000       1.427091        38.8331 
 264   0.0000       1.429417        38.8964 
 265   0.0000       1.443594        39.2822 
 266   0.0000       1.451233        39.4901 
 267   0.0000       1.455437        39.6045 
 268   0.0000       1.457261        39.6541 
 269   0.0000       1.467219        39.9251 
 270   0.0000       1.478339        40.2276 
 271   0.0000       1.479761        40.2663 
 272   0.0000       1.481256        40.3070 
 273   0.0000       1.488493        40.5040 
 274   0.0000       1.494265        40.6610 
 275   0.0000       1.501715        40.8638 
 276   0.0000       1.502345        40.8809 
 277   0.0000       1.505312        40.9616 
 278   0.0000       1.507212        41.0133 
 279   0.0000       1.508615        41.0515 
 280   0.0000       1.520325        41.3701 
 281   0.0000       1.526194        41.5298 
 282   0.0000       1.527354        41.5614 
 283   0.0000       1.533580        41.7308 
 284   0.0000       1.535022        41.7701 
 285   0.0000       1.537449        41.8361 
 286   0.0000       1.541753        41.9532 
 287   0.0000       1.543628        42.0043 
 288   0.0000       1.546054        42.0703 
 289   0.0000       1.546882        42.0928 
 290   0.0000       1.549261        42.1575 
 291   0.0000       1.552417        42.2434 
 292   0.0000       1.554570        42.3020 
 293   0.0000       1.556047        42.3422 
 294   0.0000       1.557428        42.3798 
 295   0.0000       1.561203        42.4825 
 296   0.0000       1.562139        42.5080 
 297   0.0000       1.565448        42.5980 
 298   0.0000       1.568441        42.6794 
 299   0.0000       1.568531        42.6819 
 300   0.0000       1.571446        42.7612 
 301   0.0000       1.571943        42.7747 
 302   0.0000       1.572632        42.7935 
 303   0.0000       1.577667        42.9305 
 304   0.0000       1.578140        42.9434 
 305   0.0000       1.581215        43.0271 
 306   0.0000       1.582234        43.0548 
 307   0.0000       1.586160        43.1616 
 308   0.0000       1.587400        43.1954 
 309   0.0000       1.587826        43.2070 
 310   0.0000       1.591375        43.3035 
 311   0.0000       1.591877        43.3172 
 312   0.0000       1.593648        43.3654 
 313   0.0000       1.595382        43.4125 
 314   0.0000       1.597309        43.4650 
 315   0.0000       1.599342        43.5203 
 316   0.0000       1.605592        43.6904 
 317   0.0000       1.606961        43.7276 
 318   0.0000       1.609440        43.7951 
 319   0.0000       1.610845        43.8333 
 320   0.0000       1.614374        43.9294 
 321   0.0000       1.616276        43.9811 
 322   0.0000       1.623388        44.1746 
 323   0.0000       1.623751        44.1845 
 324   0.0000       1.624853        44.2145 
 325   0.0000       1.626514        44.2597 
 326   0.0000       1.630299        44.3627 
 327   0.0000       1.631120        44.3850 
 328   0.0000       1.636377        44.5281 
 329   0.0000       1.637558        44.5602 
 330   0.0000       1.638231        44.5785 
 331   0.0000       1.644951        44.7614 
 332   0.0000       1.646766        44.8108 
 333   0.0000       1.647923        44.8423 
 334   0.0000       1.650463        44.9114 
 335   0.0000       1.651677        44.9444 
 336   0.0000       1.659141        45.1475 
 337   0.0000       1.661244        45.2048 
 338   0.0000       1.661856        45.2214 
 339   0.0000       1.664852        45.3029 
 340   0.0000       1.669033        45.4167 
 341   0.0000       1.671462        45.4828 
 342   0.0000       1.672356        45.5071 
 343   0.0000       1.678126        45.6641 
 344   0.0000       1.684490        45.8373 
 345   0.0000       1.688676        45.9512 
 346   0.0000       1.692711        46.0610 
 347   0.0000       1.699044        46.2333 
 348   0.0000       1.703276        46.3485 
 349   0.0000       1.717954        46.7479 
 350   0.0000       1.719893        46.8007 
 351   0.0000       1.728382        47.0317 
 352   0.0000       1.731148        47.1069 
 353   0.0000       1.751882        47.6711 
 354   0.0000       1.764780        48.0221 
 355   0.0000       1.805235        49.1229 
 356   0.0000       1.818710        49.4896 
 357   0.0000       1.826333        49.6970 
 358   0.0000       1.837821        50.0096 
 359   0.0000       1.850155        50.3453 
 360   0.0000       1.862641        50.6850 
 361   0.0000       1.874206        50.9997 
 362   0.0000       1.888901        51.3996 
 363   0.0000       1.902236        51.7625 
 364   0.0000       1.903906        51.8079 
 365   0.0000       1.914613        52.0993 
 366   0.0000       1.925027        52.3827 
 367   0.0000       1.948907        53.0324 
 368   0.0000       2.019749        54.9602 
 369   0.0000       2.024475        55.0888 
 370   0.0000       2.059980        56.0549 
 371   0.0000       2.178324        59.2752 
 372   0.0000       2.221644        60.4540 
 373   0.0000       2.312300        62.9209 
 374   0.0000       2.317401        63.0597 
 375   0.0000       2.333468        63.4969 
 376   0.0000       2.352445        64.0133 
 377   0.0000       2.443380        66.4878 
 378   0.0000       2.445365        66.5418 
 379   0.0000       2.471848        67.2624 
 380   0.0000       2.494697        67.8842 
 381   0.0000       2.507328        68.2279 
 382   0.0000       2.558297        69.6148 
 383   0.0000       2.560000        69.6611 
 384   0.0000       2.598957        70.7212 
 385   0.0000       2.600551        70.7646 
 386   0.0000       2.743094        74.6434 
 387   0.0000       2.912294        79.2476 
 388   0.0000       3.070142        83.5428 
 389   0.0000       3.085949        83.9729 
 390   0.0000       3.094714        84.2115 
 391   0.0000       3.106675        84.5369 
 392   0.0000       3.108749        84.5934 
 393   0.0000       3.116953        84.8166 
 394   0.0000       3.120945        84.9252 
 395   0.0000      23.716743       645.3654 
 396   0.0000      23.740240       646.0048 
 397   0.0000      24.111296       656.1017 
 398   0.0000      24.377458       663.3444 
 399   0.0000      24.397726       663.8959 
 400   0.0000      24.699285       672.1017 
 401   0.0000      25.044787       681.5033 
 402   0.0000      25.124064       683.6606 
 403   0.0000      25.564656       695.6496 
 404   0.0000      25.731898       700.2006 
 405   0.0000      25.863664       703.7861 
 406   0.0000      25.987517       707.1563 
 407   0.0000      26.044022       708.6939 
 408   0.0000      26.115647       710.6429 
 409   0.0000      26.288563       715.3482 
 410   0.0000      26.532187       721.9775 
 411   0.0000      26.541264       722.2245 
 412   0.0000      26.731280       727.3951 
 413   0.0000      26.812566       729.6070 
 414   0.0000      26.962467       733.6860 
 415   0.0000      27.015395       735.1263 
 416   0.0000      27.221870       740.7447 
 417   0.0000      27.326672       743.5965 
 418   0.0000      27.384163       745.1610 
 419   0.0000      27.613584       751.4038 
 420   0.0000      27.775330       755.8052 
 421   0.0000      27.873069       758.4648 
 422   0.0000      27.955387       760.7047 
 423   0.0000      28.531531       776.3824 
 424   0.0000      29.000600       789.1465 
 425   0.0000      44.400788      1208.2069 
 426   0.0000      44.441146      1209.3051 
 427   0.0000      44.453075      1209.6297 
 428   0.0000      44.497833      1210.8476 
 429   0.0000      44.555990      1212.4301 
 430   0.0000      44.587063      1213.2757 
 431   0.0000      44.612948      1213.9800 
 432   0.0000      44.640697      1214.7351 
 433   0.0000      44.652559      1215.0579 
 434   0.0000      44.703201      1216.4359 
 435   0.0000     205.259997      5585.4085 
 436   0.0000     205.277289      5585.8790 
 437   0.0000     205.283390      5586.0450 
 438   0.0000     205.298426      5586.4542 
 439   0.0000     205.325004      5587.1774 
 440   0.0000     205.336464      5587.4893 
 441   0.0000     205.346252      5587.7556 
 442   0.0000     205.353500      5587.9528 
 443   0.0000     205.366475      5588.3059 
 444   0.0000     205.383722      5588.7752 

                    ********************************
                    * MULLIKEN POPULATION ANALYSIS *
                    ********************************

--------------------------------------------
MULLIKEN ATOMIC CHARGES AND SPIN POPULATIONS
--------------------------------------------
   0 Au:    0.303447    0.026953
   1 Au:    0.059464   -0.109314
   2 Au:    0.290894    0.016077
   3 Au:    0.316345    0.094331
   4 Au:    0.188203   -0.014034
   5 Au:    0.248875    0.051818
   6 Au:    0.305973    0.026795
   7 Au:    0.202472   -0.016676
   8 Au:    0.226945    0.050283
   9 Au:    0.320412    0.095330
  10 Cr:   -2.463031    3.778437
Sum of atomic charges         :   -0.0000000
Sum of atomic spin populations:    4.0000000

-----------------------------------------------------
MULLIKEN REDUCED ORBITAL CHARGES AND SPIN POPULATIONS
-----------------------------------------------------
CHARGE
  0 Aus       :     2.845688  s :     2.845688
      pz      :     2.094995  p :     6.128844
      px      :     2.042655
[...]
      f+1     :     0.000118
      f-1     :     0.000004
      f+2     :     0.000062
      f-2     :     0.000035
      f+3     :    -0.000009
      f-3     :     0.000000
  8 Aus       :    -0.156915  s :    -0.156915
      pz      :     0.002591  p :    -0.018883
      px      :    -0.012943
      py      :    -0.008530
      dz2     :    -0.002685  d :    -0.018177
      dxz     :    -0.009625
      dyz     :    -0.007362
      dx2y2   :     0.001228
      dxy     :     0.000267
      f0      :     0.000005  f :    -0.000005
      f+1     :    -0.000005
      f-1     :    -0.000001
      f+2     :     0.000007
      f-2     :    -0.000000
      f+3     :    -0.000007
      f-3     :    -0.000005
  9 Aus       :    -0.243236  s :    -0.243236
      pz      :     0.004539  p :     0.010323
      px      :    -0.000134
      py      :     0.005919
      dz2     :    -0.005281  d :    -0.012567
      dxz     :    -0.003115
      dyz     :     0.001055
      dx2y2   :    -0.007266
      dxy     :     0.002039
      f0      :     0.000025  f :     0.000251
      f+1     :     0.000005
      f-1     :     0.000033
      f+2     :     0.000067
      f-2     :     0.000017
      f+3     :     0.000035
      f-3     :     0.000068
 10 Crs       :     0.047012  s :     0.047012
      pz      :     0.028769  p :     0.101809
      px      :     0.036631
      py      :     0.036409
      dz2     :     0.430574  d :     3.419270
      dxz     :     0.812317
      dyz     :     0.648591
      dx2y2   :     0.700363
      dxy     :     0.827425
      f0      :     0.000006  f :     0.000084
      f+1     :     0.000018
      f-1     :     0.000017
      f+2     :     0.000015
      f-2     :     0.000009
      f+3     :     0.000015
      f-3     :     0.000004


                     *******************************
                     * LOEWDIN POPULATION ANALYSIS *
                     *******************************

-------------------------------------------
LOEWDIN ATOMIC CHARGES AND SPIN POPULATIONS
-------------------------------------------
   0 Au:    0.082333   -0.109055
   1 Au:    0.107403   -0.121665
   2 Au:    0.120959   -0.101234
   3 Au:    0.065586   -0.168582
   4 Au:    0.063356   -0.070185
   5 Au:    0.100104   -0.198721
   6 Au:    0.083172   -0.108176
   7 Au:    0.064481   -0.070690
   8 Au:    0.091746   -0.178547
   9 Au:    0.068666   -0.170140
  10 Cr:   -0.847807    3.296996

----------------------------------------------------
LOEWDIN REDUCED ORBITAL CHARGES AND SPIN POPULATIONS
----------------------------------------------------
CHARGE
  0 Aus       :     2.652603  s :     2.652603
      pz      :     2.190772  p :     6.397075
      px      :     2.128088
      py      :     2.078214
      dz2     :     1.965812  d :     9.862640
      dxz     :     1.984071
      dyz     :     1.972832
      dx2y2   :     1.956221
      dxy     :     1.983703
      f0      :     0.000736  f :     0.005350
      f+1     :     0.001057
      f-1     :     0.001008
      f+2     :     0.000694
      f-2     :     0.000547
      f+3     :     0.000510
      f-3     :     0.000797
  1 Aus       :     2.727587  s :     2.727587
      pz      :     2.067960  p :     6.339398
      px      :     2.089626
      py      :     2.181812
      dz2     :     1.904252  d :     9.820845
      dxz     :     1.970843
      dyz     :     1.979699
      dx2y2   :     1.985120
      dxy     :     1.980931
      f0      :     0.000793  f :     0.004767
      f+1     :     0.000489
      f-1     :     0.000769
      f+2     :     0.000443
      f-2     :     0.000686
      f+3     :     0.001046
      f-3     :     0.000542
  2 Aus       :     2.627763  s :     2.627763
      pz      :     2.179064  p :     6.371439
      px      :     2.087566
      py      :     2.104809
      dz2     :     1.989186  d :     9.874754
      dxz     :     1.974584
      dyz     :     1.957022
      dx2y2   :     1.981235
      dxy     :     1.972728
      f0      :     0.000796  f :     0.005084
      f+1     :     0.000904
      f-1     :     0.000887
      f+2     :     0.000727
      f-2     :     0.000775
      f+3     :     0.000587
      f-3     :     0.000408
  3 Aus       :     2.599787  s :     2.599787
      pz      :     2.189621  p :     6.446158
      px      :     2.120391
      py      :     2.136146
      dz2     :     1.964970  d :     9.883224
      dxz     :     1.985310
      dyz     :     1.964838
      dx2y2   :     1.983940
      dxy     :     1.984166
      f0      :     0.000766  f :     0.005246
      f+1     :     0.001074
      f-1     :     0.000593
      f+2     :     0.000584
      f-2     :     0.000704
      f+3     :     0.000684
      f-3     :     0.000841
  4 Aus       :     2.595650  s :     2.595650
      pz      :     2.125400  p :     6.452909
      px      :     2.124877
      py      :     2.202632
      dz2     :     1.978368  d :     9.882501
      dxz     :     1.976203
      dyz     :     1.939879
      dx2y2   :     1.992389
      dxy     :     1.995662
      f0      :     0.000774  f :     0.005585
      f+1     :     0.000594
      f-1     :     0.001164
      f+2     :     0.000880
      f-2     :     0.000847
      f+3     :     0.000609
      f-3     :     0.000716
  5 Aus       :     2.674678  s :     2.674678
      pz      :     2.125697  p :     6.309609
      px      :     2.086934
      py      :     2.096978
      dz2     :     1.991114  d :     9.911029
      dxz     :     1.972459
      dyz     :     1.980881
      dx2y2   :     1.987619
      dxy     :     1.978956
      f0      :     0.000650  f :     0.004580
      f+1     :     0.000991
      f-1     :     0.000795
      f+2     :     0.000446
      f-2     :     0.000612
      f+3     :     0.000668
      f-3     :     0.000418
  6 Aus       :     2.655578  s :     2.655578
      pz      :     2.167846  p :     6.394027
      px      :     2.109851
      py      :     2.116330
      dz2     :     1.964522  d :     9.861915
      dxz     :     1.990445
      dyz     :     1.972482
      dx2y2   :     1.964267
      dxy     :     1.970199
      f0      :     0.000599  f :     0.005307
      f+1     :     0.000883
      f-1     :     0.001071
      f+2     :     0.000564
      f-2     :     0.000830
      f+3     :     0.000542
      f-3     :     0.000818
  7 Aus       :     2.595616  s :     2.595616
      pz      :     2.138407  p :     6.453580
      px      :     2.155336
      py      :     2.159837
      dz2     :     1.981264  d :     9.880738
      dxz     :     1.937486
      dyz     :     1.977749
      dx2y2   :     1.987660
      dxy     :     1.996579
      f0      :     0.000702  f :     0.005585
      f+1     :     0.000813
      f-1     :     0.000942
      f+2     :     0.000798
      f-2     :     0.001034
      f+3     :     0.000562
      f-3     :     0.000734
  8 Aus       :     2.595383  s :     2.595383
      pz      :     2.108795  p :     6.371560
      px      :     2.145030
      py      :     2.117734
      dz2     :     1.992678  d :     9.936979
      dxz     :     2.000470
      dyz     :     1.993830
      dx2y2   :     1.969069
      dxy     :     1.980932
      f0      :     0.000649  f :     0.004332
      f+1     :     0.000805
      f-1     :     0.000625
      f+2     :     0.000821
      f-2     :     0.000596
      f+3     :     0.000359
      f-3     :     0.000478
  9 Aus       :     2.605939  s :     2.605939
      pz      :     2.180439  p :     6.441689
      px      :     2.164290
      py      :     2.096960
      dz2     :     1.958753  d :     9.878550
      dxz     :     1.979361
      dyz     :     1.980145
      dx2y2   :     1.959559
      dxy     :     2.000732
      f0      :     0.000672  f :     0.005155
      f+1     :     0.000846
      f-1     :     0.000815
      f+2     :     0.000569
      f-2     :     0.000689
      f+3     :     0.000700
      f-3     :     0.000865
 10 Crs       :     6.296109  s :     6.296109
      pz      :     4.200704  p :    12.596013
      px      :     4.188787
      py      :     4.206522
      dz2     :     1.119533  d :     5.953789
      dxz     :     1.222053
      dyz     :     1.145423
      dx2y2   :     1.277153
      dxy     :     1.189626
      f0      :     0.000362  f :     0.001896
      f+1     :     0.000277
      f-1     :     0.000278
      f+2     :     0.000225
      f-2     :     0.000200
      f+3     :     0.000193
      f-3     :     0.000361

SPIN
  0 Aus       :    -0.087076  s :    -0.087076
      pz      :    -0.026294  p :    -0.043398
      px      :    -0.008271
      py      :    -0.008833
      dz2     :     0.000233  d :     0.020892
      dxz     :    -0.003451
      dyz     :     0.011771
      dx2y2   :     0.001113
      dxy     :     0.011226
      f0      :     0.000005  f :     0.000526
      f+1     :    -0.000053
      f-1     :     0.000117
      f+2     :     0.000095
      f-2     :     0.000004
      f+3     :     0.000176
      f-3     :     0.000183
  1 Aus       :    -0.096817  s :    -0.096817
      pz      :    -0.005554  p :    -0.026766
      px      :    -0.001766
      py      :    -0.019445
      dz2     :    -0.019383  d :     0.001319
      dxz     :     0.014192
      dyz     :     0.013382
      dx2y2   :    -0.002427
      dxy     :    -0.004445
      f0      :     0.000287  f :     0.000599
      f+1     :     0.000222
      f-1     :     0.000123
      f+2     :     0.000013
      f-2     :     0.000026
      f+3     :    -0.000066
      f-3     :    -0.000006
  2 Aus       :    -0.031120  s :    -0.031120
      pz      :    -0.046681  p :    -0.062142
      px      :    -0.004339
      py      :    -0.011122
      dz2     :     0.001681  d :    -0.008364
      dxz     :    -0.006874
      dyz     :    -0.007128
      dx2y2   :     0.005228
      dxy     :    -0.001271
      f0      :     0.000073  f :     0.000393
      f+1     :    -0.000039
      f-1     :    -0.000009
      f+2     :     0.000069
      f-2     :     0.000161
      f+3     :     0.000060
      f-3     :     0.000077
  3 Aus       :    -0.117854  s :    -0.117854
      pz      :    -0.013232  p :    -0.045394
      px      :    -0.019673
      py      :    -0.012489
      dz2     :    -0.001249  d :    -0.005699
      dxz     :    -0.001883
      dyz     :     0.001690
      dx2y2   :     0.005347
      dxy     :    -0.009604
      f0      :     0.000047  f :     0.000364
      f+1     :     0.000024
      f-1     :     0.000004
      f+2     :     0.000046
      f-2     :     0.000127
      f+3     :     0.000046
      f-3     :     0.000071
  4 Aus       :    -0.026778  s :    -0.026778
      pz      :    -0.010099  p :    -0.047725
      px      :    -0.004460
      py      :    -0.033166
      dz2     :     0.008070  d :     0.003974
      dxz     :     0.004140
      dyz     :     0.000923
      dx2y2   :    -0.004043
      dxy     :    -0.005116
      f0      :     0.000068  f :     0.000345
      f+1     :     0.000072
      f-1     :     0.000195
      f+2     :    -0.000032
      f-2     :     0.000077
      f+3     :    -0.000026
      f-3     :    -0.000009
  5 Aus       :    -0.126262  s :    -0.126262
      pz      :    -0.014197  p :    -0.050009
      px      :    -0.017325
      py      :    -0.018486
      dz2     :    -0.000638  d :    -0.022380
      dxz     :    -0.007365
      dyz     :    -0.003837
      dx2y2   :    -0.001672
      dxy     :    -0.008868
      f0      :    -0.000010  f :    -0.000071
      f+1     :    -0.000041
      f-1     :    -0.000013
      f+2     :     0.000002
      f-2     :     0.000010
      f+3     :    -0.000009
      f-3     :    -0.000011
  6 Aus       :    -0.086883  s :    -0.086883
      pz      :    -0.023230  p :    -0.043529
      px      :    -0.013059
      py      :    -0.007240
      dz2     :    -0.000739  d :     0.021718
      dxz     :     0.007198
      dyz     :     0.004006
      dx2y2   :     0.006883
      dxy     :     0.004371
      f0      :     0.000033  f :     0.000518
      f+1     :     0.000091
      f-1     :    -0.000040
      f+2     :     0.000017
      f-2     :     0.000053
      f+3     :     0.000177
      f-3     :     0.000187
  7 Aus       :    -0.028737  s :    -0.028737
      pz      :    -0.010777  p :    -0.045470
      px      :    -0.009190
      py      :    -0.025503
      dz2     :     0.005601  d :     0.003163
      dxz     :    -0.002567
      dyz     :     0.003167
      dx2y2   :    -0.001252
      dxy     :    -0.001786
      f0      :     0.000024  f :     0.000355
      f+1     :     0.000201
      f-1     :     0.000001
      f+2     :     0.000097
      f-2     :     0.000055
      f+3     :    -0.000026
      f-3     :     0.000003
  8 Aus       :    -0.084118  s :    -0.084118
      pz      :    -0.011223  p :    -0.067762
      px      :    -0.031886
      py      :    -0.024652
      dz2     :    -0.003922  d :    -0.026612
      dxz     :    -0.014477
      dyz     :    -0.010636
      dx2y2   :     0.001711
      dxy     :     0.000712
      f0      :    -0.000000  f :    -0.000056
      f+1     :    -0.000016
      f-1     :    -0.000008
      f+2     :     0.000006
      f-2     :    -0.000005
      f+3     :    -0.000020
      f-3     :    -0.000012
  9 Aus       :    -0.117341  s :    -0.117341
      pz      :    -0.011230  p :    -0.045285
      px      :    -0.017514
      py      :    -0.016541
      dz2     :    -0.005409  d :    -0.007895
      dxz     :    -0.003457
      dyz     :     0.004682
      dx2y2   :    -0.006463
      dxy     :     0.002752
      f0      :     0.000042  f :     0.000381
      f+1     :    -0.000001
      f-1     :     0.000047
      f+2     :     0.000116
      f-2     :     0.000016
      f+3     :     0.000061
      f-3     :     0.000101
 10 Crs       :     0.025099  s :     0.025099
      pz      :     0.011974  p :     0.049000
      px      :     0.019864
      py      :     0.017162
      dz2     :     0.400162  d :     3.222884
      dxz     :     0.789066
      dyz     :     0.638624
      dx2y2   :     0.607825
      dxy     :     0.787207
      f0      :    -0.000011  f :     0.000014
      f+1     :     0.000011
      f-1     :     0.000008
      f+2     :     0.000006
      f-2     :    -0.000001
      f+3     :     0.000007
      f-3     :    -0.000007


                      *****************************
                      * MAYER POPULATION ANALYSIS *
                      *****************************

  NA   - Mulliken gross atomic population
  ZA   - Total nuclear charge
  QA   - Mulliken gross atomic charge
  VA   - Mayer's total valence
  BVA  - Mayer's bonded valence
  FA   - Mayer's free valence

  ATOM       NA         ZA         QA         VA         BVA        FA
  0 Au    18.7788    19.0000     0.2212     1.6469     1.6080     0.0388
  1 Au    18.9502    19.0000     0.0498     1.5653     1.5298     0.0354
  2 Au    18.6965    19.0000     0.3035     1.6230     1.6157     0.0072
  3 Au    18.7791    19.0000     0.2209     1.6075     1.5474     0.0602
  4 Au    18.7821    19.0000     0.2179     1.7258     1.7211     0.0047
  5 Au    18.6641    19.0000     0.3359     1.3843     1.3310     0.0533
  6 Au    18.7784    19.0000     0.2216     1.6431     1.6053     0.0378
  7 Au    18.7673    19.0000     0.2327     1.7277     1.7229     0.0048
  8 Au    18.6889    19.0000     0.3111     1.4275     1.4014     0.0261
  9 Au    18.7757    19.0000     0.2243     1.6121     1.5537     0.0584
 10 Cr    26.3388    24.0000    -2.3388     8.6507     5.7151     2.9356

  Mayer bond orders larger than 0.100000
B(  0-Au,  4-Au) :   0.4129 B(  0-Au,  5-Au) :   0.2223 B(  0-Au, 10-Cr) :   0.6962 
B(  1-Au,  2-Au) :   0.3871 B(  1-Au,  5-Au) :   0.3089 B(  1-Au, 10-Cr) :   0.6320 
B(  2-Au,  3-Au) :   0.2033 B(  2-Au,  9-Au) :   0.2021 B(  2-Au, 10-Cr) :   0.5834 
B(  3-Au,  4-Au) :   0.2423 B(  3-Au,  8-Au) :   0.2054 B(  3-Au, 10-Cr) :   0.5883 
B(  4-Au,  8-Au) :   0.2279 B(  4-Au, 10-Cr) :   0.5866 B(  5-Au,  6-Au) :   0.2212 
B(  5-Au, 10-Cr) :   0.3493 B(  6-Au,  7-Au) :   0.4110 B(  6-Au, 10-Cr) :   0.6968 
B(  7-Au,  8-Au) :   0.2299 B(  7-Au,  9-Au) :   0.2326 B(  7-Au, 10-Cr) :   0.6003 
B(  8-Au,  9-Au) :   0.1991 B(  8-Au, 10-Cr) :   0.3727 B(  9-Au, 10-Cr) :   0.6095 


-------
TIMINGS
-------

Total SCF time: 0 days 0 hours 2 min 53 sec 

Total time                  ....     173.516 sec
Sum of individual times     ....     168.699 sec  ( 97.2%)

Fock matrix formation       ....     142.092 sec  ( 81.9%)
  Split-RI-J                ....      29.642 sec  ( 20.9% of F)
  XC integration            ....     105.501 sec  ( 74.2% of F)
    Basis function eval.    ....       5.785 sec  (  5.5% of XC)
    Density eval.           ....      34.698 sec  ( 32.9% of XC)
    XC-Functional eval.     ....       4.382 sec  (  4.2% of XC)
    XC-Potential eval.      ....      39.379 sec  ( 37.3% of XC)
Diagonalization             ....      23.584 sec  ( 13.6%)
Density matrix formation    ....       0.729 sec  (  0.4%)
Population analysis         ....       0.510 sec  (  0.3%)
Initial guess               ....       0.179 sec  (  0.1%)
Orbital Transformation      ....       0.000 sec  (  0.0%)
Orbital Orthonormalization  ....       0.117 sec  (  0.1%)
DIIS solution               ....       0.000 sec  (  0.0%)
Grid generation             ....       1.606 sec  (  0.9%)

Maximum memory used throughout the entire SCF-calculation: 64.2 MB

-------------------------   --------------------
FINAL SINGLE POINT ENERGY     -2402.856398500907
-------------------------   --------------------


                            ***************************************
                            *     ORCA property calculations      *
                            ***************************************

                                    ---------------------
                                    Active property flags
                                    ---------------------
   (+) Dipole Moment


------------------------------------------------------------------------------
                       ORCA ELECTRIC PROPERTIES CALCULATION
------------------------------------------------------------------------------

Dipole Moment Calculation                       ... on
Quadrupole Moment Calculation                   ... off
Polarizability Calculation                      ... off
GBWName                                         ... scan_job2.gbw
Electron density                                ... scan_job2.scfp
The origin for moment calculation is the CENTER OF MASS  = (16.020332, 12.429680 18.113602)

-------------
DIPOLE MOMENT
-------------
                                X             Y             Z
Electronic contribution:     -0.93635       0.04410      14.26176
Nuclear contribution   :      0.97020      -0.08621     -14.32350
                        -----------------------------------------
Total Dipole Moment    :      0.03385      -0.04211      -0.06175
                        -----------------------------------------
Magnitude (a.u.)       :      0.08205
Magnitude (Debye)      :      0.20856



--------------------
Rotational spectrum 
--------------------
 
Rotational constants in cm-1:     0.002268     0.001506     0.001228 
Rotational constants in MHz :    67.984950    45.156662    36.814876 

 Dipole components along the rotational axes: 
x,y,z [a.u.] :    -0.012273    -0.081126    -0.000543 
x,y,z [Debye]:    -0.031197    -0.206205    -0.001381 

 

Timings for individual modules:

Sum of individual times         ...      181.808 sec (=   3.030 min)
GTO integral calculation        ...        8.025 sec (=   0.134 min)   4.4 %
SCF iterations                  ...      173.783 sec (=   2.896 min)  95.6 %



                             ****ORCA TERMINATED NORMALLY****
TOTAL RUN TIME: 0 days 0 hours 5 minutes 51 seconds 221 msec
