
                                 *****************
                                 * O   R   C   A *
                                 *****************

                                            #,                                       
                                            ###                                      
                                            ####                                     
                                            #####                                    
                                            ######                                   
                                           ########,                                 
                                     ,,################,,,,,                         
                               ,,#################################,,                 
                          ,,##########################################,,             
                       ,#########################################, ''#####,          
                    ,#############################################,,   '####,        
                  ,##################################################,,,,####,       
                ,###########''''           ''''###############################       
              ,#####''   ,,,,##########,,,,          '''####'''          '####       
            ,##' ,,,,###########################,,,                        '##       
           ' ,,###''''                  '''############,,,                           
         ,,##''                                '''############,,,,        ,,,,,,###''
      ,#''                                            '''#######################'''  
     '                                                          ''''####''''         
             ,#######,   #######,   ,#######,      ##                                
            ,#'     '#,  ##    ##  ,#'     '#,    #''#        ######   ,####,        
            ##       ##  ##   ,#'  ##            #'  '#       #        #'  '#        
            ##       ##  #######   ##           ,######,      #####,   #    #        
            '#,     ,#'  ##    ##  '#,     ,#' ,#      #,         ##   #,  ,#        
             '#######'   ##     ##  '#######'  #'      '#     #####' # '####'        



                  #######################################################
                  #                        -***-                        #
                  #          Department of theory and spectroscopy      #
                  #    Directorship and core code : Frank Neese         #
                  #        Max Planck Institute fuer Kohlenforschung    #
                  #                Kaiser Wilhelm Platz 1               #
                  #                 D-45470 Muelheim/Ruhr               #
                  #                      Germany                        #
                  #                                                     #
                  #                  All rights reserved                #
                  #                        -***-                        #
                  #######################################################


                         Program Version 5.0.3 -  RELEASE  -


 With contributions from (in alphabetic order):
   Daniel Aravena         : Magnetic Suceptibility
   Michael Atanasov       : Ab Initio Ligand Field Theory (pilot matlab implementation)
   Alexander A. Auer      : GIAO ZORA, VPT2 properties, NMR spectrum
   Ute Becker             : Parallelization
   Giovanni Bistoni       : ED, misc. LED, open-shell LED, HFLD
   Martin Brehm           : Molecular dynamics
   Dmytro Bykov           : SCF Hessian
   Vijay G. Chilkuri      : MRCI spin determinant printing, contributions to CSF-ICE
   Dipayan Datta          : RHF DLPNO-CCSD density
   Achintya Kumar Dutta   : EOM-CC, STEOM-CC
   Dmitry Ganyushin       : Spin-Orbit,Spin-Spin,Magnetic field MRCI
   Miquel Garcia          : C-PCM and meta-GGA Hessian, CC/C-PCM, Gaussian charge scheme
   Yang Guo               : DLPNO-NEVPT2, F12-NEVPT2, CIM, IAO-localization
   Andreas Hansen         : Spin unrestricted coupled pair/coupled cluster methods
   Benjamin Helmich-Paris : MC-RPA, TRAH-SCF, COSX integrals
   Lee Huntington         : MR-EOM, pCC
   Robert Izsak           : Overlap fitted RIJCOSX, COSX-SCS-MP3, EOM
   Marcus Kettner         : VPT2
   Christian Kollmar      : KDIIS, OOCD, Brueckner-CCSD(T), CCSD density, CASPT2, CASPT2-K
   Simone Kossmann        : Meta GGA functionals, TD-DFT gradient, OOMP2, MP2 Hessian
   Martin Krupicka        : Initial AUTO-CI
   Lucas Lang             : DCDCAS
   Marvin Lechner         : AUTO-CI (C++ implementation), FIC-MRCC
   Dagmar Lenk            : GEPOL surface, SMD
   Dimitrios Liakos       : Extrapolation schemes; Compound Job, initial MDCI parallelization
   Dimitrios Manganas     : Further ROCIS development; embedding schemes
   Dimitrios Pantazis     : SARC Basis sets
   Anastasios Papadopoulos: AUTO-CI, single reference methods and gradients
   Taras Petrenko         : DFT Hessian,TD-DFT gradient, ASA, ECA, R-Raman, ABS, FL, XAS/XES, NRVS
   Peter Pinski           : DLPNO-MP2, DLPNO-MP2 Gradient
   Christoph Reimann      : Effective Core Potentials
   Marius Retegan         : Local ZFS, SOC
   Christoph Riplinger    : Optimizer, TS searches, QM/MM, DLPNO-CCSD(T), (RO)-DLPNO pert. Triples
   Tobias Risthaus        : Range-separated hybrids, TD-DFT gradient, RPA, STAB
   Michael Roemelt        : Original ROCIS implementation
   Masaaki Saitow         : Open-shell DLPNO-CCSD energy and density
   Barbara Sandhoefer     : DKH picture change effects
   Avijit Sen             : IP-ROCIS
   Kantharuban Sivalingam : CASSCF convergence, NEVPT2, FIC-MRCI
   Bernardo de Souza      : ESD, SOC TD-DFT
   Georgi Stoychev        : AutoAux, RI-MP2 NMR, DLPNO-MP2 response
   Willem Van den Heuvel  : Paramagnetic NMR
   Boris Wezisla          : Elementary symmetry handling
   Frank Wennmohs         : Technical directorship


 We gratefully acknowledge several colleagues who have allowed us to
 interface, adapt or use parts of their codes:
   Stefan Grimme, W. Hujo, H. Kruse, P. Pracht,  : VdW corrections, initial TS optimization,
                  C. Bannwarth, S. Ehlert          DFT functionals, gCP, sTDA/sTD-DF
   Ed Valeev, F. Pavosevic, A. Kumar             : LibInt (2-el integral package), F12 methods
   Garnet Chan, S. Sharma, J. Yang, R. Olivares  : DMRG
   Ulf Ekstrom                                   : XCFun DFT Library
   Mihaly Kallay                                 : mrcc  (arbitrary order and MRCC methods)
   Jiri Pittner, Ondrej Demel                    : Mk-CCSD
   Frank Weinhold                                : gennbo (NPA and NBO analysis)
   Christopher J. Cramer and Donald G. Truhlar   : smd solvation model
   Lars Goerigk                                  : TD-DFT with DH, B97 family of functionals
   V. Asgeirsson, H. Jonsson                     : NEB implementation
   FAccTs GmbH                                   : IRC, NEB, NEB-TS, DLPNO-Multilevel, CI-OPT
                                                   MM, QMMM, 2- and 3-layer-ONIOM, Crystal-QMMM,
                                                   LR-CPCM, SF, NACMEs, symmetry and pop. for TD-DFT,
                                                   nearIR, NL-DFT gradient (VV10), updates on ESD,
                                                   ML-optimized integration grids
   S Lehtola, MJT Oliveira, MAL Marques          : LibXC Library
   Liviu Ungur et al                             : ANISO software


 Your calculation uses the libint2 library for the computation of 2-el integrals
 For citations please refer to: http://libint.valeyev.net

 Your ORCA version has been built with support for libXC version: 5.1.0
 For citations please refer to: https://tddft.org/programs/libxc/

 This ORCA versions uses:
   CBLAS   interface :  Fast vector & matrix operations
   LAPACKE interface :  Fast linear algebra routines
   SCALAPACK package :  Parallel linear algebra routines
   Shared memory     :  Shared parallel matrices
   BLAS/LAPACK       :  OpenBLAS 0.3.15  USE64BITINT DYNAMIC_ARCH NO_AFFINITY Sandybridge SINGLE_THREADED
        Core in use  :  Sandybridge
   Copyright (c) 2011-2014, The OpenBLAS Project




***************************************
The coordinates will be read from file: 4.xyz
***************************************


================================================================================

cite the ECPs for Au [Def2-ECP] as follows:
Ce-Yb(ecp-28): M. Dolg, H. Stoll, H.Preuss, J. Chem. Phys., 1989, 90, 1730-1734.
Y-Cd(ecp-28), Hf-Hg(ecp-46): D. Andrae,U. Haeussermann, M. Dolg, H. Stoll, H. Preuss, Theor. Chim. Acta, 1990, 77, 123-141.
In-Sb(ecp-28), Tl-Bi(ecp-46): B. Metz, H. Stoll, M. Dolg, J. Chem. Phys., 2000, 113, 2563-2569.
Te-Xe(ecp-28), Po-Rn(ecp-46): K. A. Peterson, D. Figgen, E. Goll, H. Stoll, M. Dolg, J. Chem. Phys., 2003, 119, 11113-11123.
Rb(ecp-28), Cs(ecp-46): T. Leininger, A. Nicklass, W. Kuechle, H. Stoll, M. Dolg, A. Bergner, Chem. Phys. Lett., 1996, 255, 274-280.
Sr(ecp-28), Ba(ecp-46): M. Kaupp, P. V. Schleyer, H. Stoll and H. Preuss, J. Chem. Phys., 1991, 94, 1360-1366.
La(ecp-46): M. Dolg, H. Stoll, A. Savin, H. Preuss, Theor. Chim. Acta, 1989, 75, 173-194.
Lu(ecp-28): X. Cao, M. Dolg, J. Chem. Phys., 2001, 115, 7348-7355.

ECP parameters for Au [Def2-ECP] have been obtained from:
TURBOMOLE (7.0.2)

----- Orbital basis set information -----
Your calculation utilizes the basis: def2-TZVP
   F. Weigend and R. Ahlrichs, Phys. Chem. Chem. Phys. 7, 3297 (2005).

----- AuxJ basis set information -----
Your calculation utilizes the auxiliary basis: def2/J
   F. Weigend, Phys. Chem. Chem. Phys. 8, 1057 (2006).

================================================================================
                                        WARNINGS
                       Please study these warnings very carefully!
================================================================================


WARNING: your system is open-shell and RHF/RKS was chosen
  ===> : WILL SWITCH to UHF/UKS


WARNING: Geometry Optimization
  ===> : Switching off AutoStart
         For restart on a previous wavefunction, please use MOREAD

INFO   : the flag for use of the SHARK integral package has been found!

================================================================================
                                       INPUT FILE
================================================================================
NAME = pbe.inp
|  1> %pal nprocs 16 end 
|  2> 
|  3> !PBE def2-TZVP OPT UNO
|  4> !SLOWCONV KDIIS 
|  5> 
|  6> %geom maxiter 300 end
|  7> 
|  8> *xyzfile 0 3 4.xyz                           ****END OF INPUT****
================================================================================

                       *****************************
                       * Geometry Optimization Run *
                       *****************************

Geometry optimization settings:
Update method            Update   .... BFGS
Choice of coordinates    CoordSys .... Z-matrix Internals
Initial Hessian          InHess   .... Almoef's Model

Convergence Tolerances:
Energy Change            TolE     ....  5.0000e-06 Eh
Max. Gradient            TolMAXG  ....  3.0000e-04 Eh/bohr
RMS Gradient             TolRMSG  ....  1.0000e-04 Eh/bohr
Max. Displacement        TolMAXD  ....  4.0000e-03 bohr
RMS Displacement         TolRMSD  ....  2.0000e-03 bohr
Strict Convergence                ....  False
------------------------------------------------------------------------------
                        ORCA OPTIMIZATION COORDINATE SETUP
------------------------------------------------------------------------------

The optimization will be done in new redundant internal coordinates
Making redundant internal coordinates   ...  (new redundants) done
Evaluating the initial hessian          ...  (Almloef) done
Evaluating the coordinates              ...  done
Calculating the B-matrix                .... done
Calculating the G-matrix                .... done
Diagonalizing the G-matrix              .... done
The first mode is                       ....  517
The number of degrees of freedom        ....   33

    -----------------------------------------------------------------
                    Redundant Internal Coordinates


    -----------------------------------------------------------------
         Definition                    Initial Value    Approx d2E/dq
    -----------------------------------------------------------------
      1. B(Au  2,Au  1)                  2.8197         0.006337   
      2. B(Au  3,Au  0)                  2.8965         0.004780   
      3. B(Au  4,Au  0)                  2.8321         0.006055   
      4. B(Au  5,Au  1)                  2.8228         0.006266   
      5. B(Au  6,Au  1)                  2.8226         0.006271   
      6. B(Au  7,Au  1)                  2.8203         0.006323   
      7. B(Au  8,Au  3)                  2.8985         0.004744   
      8. B(Au  8,Au  0)                  2.7979         0.006866   
      9. B(Au  9,Au  5)                  2.8395         0.005894   
     10. B(Au  9,Au  8)                  2.8187         0.006362   
     11. B(Au  9,Au  6)                  2.8397         0.005890   
     12. B(Au  9,Au  3)                  2.8497         0.005677   
     13. B(Au 10,Au  0)                  2.8322         0.006052   
     14. B(Au 11,Au  0)                  2.8959         0.004790   
     15. B(Au 11,Au  9)                  2.8499         0.005672   
     16. B(Au 11,Au  8)                  2.8981         0.004752   
     17. B(Fe 12,Au  0)                  3.1584         0.013278   
     18. B(Fe 12,Au 10)                  2.5839         0.109576   
     19. B(Fe 12,Au  1)                  3.2534         0.009364   
     20. B(Fe 12,Au  7)                  2.5781         0.111927   
     21. B(Fe 12,Au  4)                  2.5840         0.109505   
     22. B(Fe 12,Au  9)                  3.0641         0.018773   
     23. B(Fe 12,Au  6)                  2.5827         0.110065   
     24. B(Fe 12,Au 11)                  2.6578         0.083504   
     25. B(Fe 12,Au  5)                  2.5825         0.110134   
     26. B(Fe 12,Au  3)                  2.6577         0.083542   
     27. B(Fe 12,Au  2)                  2.5781         0.111942   
     28. A(Au  8,Au  0,Au 10)          120.9155         0.136922   
     29. A(Au  4,Au  0,Fe 12)           50.7500         0.151403   
     30. A(Au  4,Au  0,Au 10)           65.2857         0.135578   
     31. A(Au 11,Au  0,Fe 12)           51.8590         0.148180   
     32. A(Au  3,Au  0,Au  8)           61.1673         0.134430   
     33. A(Au  8,Au  0,Au 11)           61.1634         0.134451   
     34. A(Au 10,Au  0,Fe 12)           50.7454         0.151398   
     35. A(Au 10,Au  0,Au 11)           60.3508         0.133172   
     36. A(Au  3,Au  0,Fe 12)           51.8522         0.148153   
     37. A(Au  3,Au  0,Au 10)          101.8778         0.133151   
     38. A(Au  4,Au  0,Au 11)          101.8900         0.133176   
     39. A(Au  8,Au  0,Fe 12)           86.3133         0.153205   
     40. A(Au  3,Au  0,Au 11)           81.0061         0.130874   
     41. A(Au  3,Au  0,Au  4)           60.3439         0.133155   
     42. A(Au  4,Au  0,Au  8)          120.9143         0.136927   
     43. A(Au  2,Au  1,Fe 12)           49.6086         0.147259   
     44. A(Au  2,Au  1,Au  5)           63.2120         0.136432   
     45. A(Au  2,Au  1,Au  6)           99.2229         0.136440   
     46. A(Au  2,Au  1,Au  7)           64.7040         0.136529   
     47. A(Au  5,Au  1,Au  7)           99.2152         0.136409   
     48. A(Au  5,Au  1,Au  6)           69.6072         0.136319   
     49. A(Au  6,Au  1,Au  7)           63.2178         0.136416   
     50. A(Au  6,Au  1,Fe 12)           49.6893         0.147121   
     51. A(Au  5,Au  1,Fe 12)           49.6845         0.147111   
     52. A(Au  7,Au  1,Fe 12)           49.6060         0.147230   
     53. A(Au  1,Au  2,Fe 12)           73.9795         0.191152   
     54. A(Au  0,Au  3,Au  8)           57.7387         0.130784   
     55. A(Au  8,Au  3,Fe 12)           94.4759         0.178543   
     56. A(Au  0,Au  3,Fe 12)           69.1586         0.178695   
     57. A(Au  0,Au  3,Au  9)           96.1354         0.132517   
     58. A(Au  9,Au  3,Fe 12)           67.5054         0.182256   
     59. A(Au  8,Au  3,Au  9)           58.7207         0.132443   
     60. A(Au  0,Au  4,Fe 12)           71.1753         0.189601   
     61. A(Au  1,Au  5,Fe 12)           73.8616         0.190518   
     62. A(Au  1,Au  5,Au  9)          110.3978         0.135660   
     63. A(Au  9,Au  5,Fe 12)           68.6341         0.189119   
     64. A(Au  9,Au  6,Fe 12)           68.6287         0.189089   
     65. A(Au  1,Au  6,Fe 12)           73.8624         0.190520   
     66. A(Au  1,Au  6,Au  9)          110.3978         0.135660   
     67. A(Au  1,Au  7,Fe 12)           73.9688         0.191099   
     68. A(Au  3,Au  8,Au 11)           80.9355         0.130729   
     69. A(Au  9,Au  8,Au 11)           59.7855         0.133594   
     70. A(Au  0,Au  8,Au 11)           61.0868         0.134370   
     71. A(Au  3,Au  8,Au  9)           59.7739         0.133577   
     72. A(Au  0,Au  8,Au  3)           61.0940         0.134353   
     73. A(Au  0,Au  8,Au  9)           99.1250         0.137467   
     74. A(Au  5,Au  9,Fe 12)           51.7109         0.156082   
     75. A(Au  6,Au  9,Fe 12)           51.7131         0.156071   
     76. A(Au  3,Au  9,Fe 12)           53.2618         0.155516   
     77. A(Au  8,Au  9,Fe 12)           87.7892         0.157253   
     78. A(Au 11,Au  9,Fe 12)           53.2623         0.155501   
     79. A(Au  6,Au  9,Au 11)           60.0981         0.134612   
     80. A(Au  5,Au  9,Au 11)          104.4990         0.134619   
     81. A(Au  3,Au  9,Au 11)           82.6099         0.134234   
     82. A(Au  8,Au  9,Au 11)           61.4914         0.135415   
     83. A(Au  5,Au  9,Au  6)           69.1344         0.135010   
     84. A(Au  3,Au  9,Au  6)          104.4982         0.134622   
     85. A(Au  6,Au  9,Au  8)          121.2047         0.135813   
     86. A(Au  3,Au  9,Au  5)           60.0804         0.134629   
     87. A(Au  5,Au  9,Au  8)          121.2003         0.135820   
     88. A(Au  3,Au  9,Au  8)           61.5054         0.135426   
     89. A(Au  0,Au 10,Fe 12)           71.1759         0.189607   
     90. A(Au  0,Au 11,Au  8)           57.7497         0.130819   
     91. A(Au  8,Au 11,Fe 12)           94.4839         0.178568   
     92. A(Au  8,Au 11,Au  9)           58.7231         0.132450   
     93. A(Au  0,Au 11,Au  9)           96.1420         0.132527   
     94. A(Au  9,Au 11,Fe 12)           67.4999         0.182226   
     95. A(Au  0,Au 11,Fe 12)           69.1656         0.178727   
     96. A(Au  2,Fe 12,Au 10)          105.1010         0.307383   
     97. A(Au  1,Fe 12,Au  9)           94.7307         0.172545   
     98. A(Au  1,Fe 12,Au 10)          120.8379         0.213548   
     99. A(Au  1,Fe 12,Au  7)           56.4252         0.214148   
    100. A(Au  1,Fe 12,Au  6)           56.4484         0.213673   
    101. A(Au  6,Fe 12,Au  7)           69.9313         0.307596   
    102. A(Au  2,Fe 12,Au  6)          112.7642         0.307603   
    103. A(Au  1,Fe 12,Au  4)          120.8399         0.213529   
    104. A(Au  1,Fe 12,Au  3)          121.8491         0.206130   
    105. A(Au  1,Fe 12,Au  2)           56.4118         0.214151   
    106. A(Au 10,Fe 12,Au 11)           66.6340         0.293366   
    107. A(Au  5,Fe 12,Au  7)          112.7828         0.307627   
    108. A(Au  7,Fe 12,Au 11)           98.9805         0.294350   
    109. A(Au  0,Fe 12,Au 11)           58.9754         0.215750   
    110. A(Au  0,Fe 12,Au 10)           58.0786         0.223790   
    111. A(Au  6,Fe 12,Au 11)           65.8474         0.293572   
    112. A(Au  4,Fe 12,Au  7)          105.0983         0.307344   
    113. A(Au  4,Fe 12,Au  5)          104.9809         0.306547   
    114. A(Au  3,Fe 12,Au  4)           66.6317         0.293357   
    115. A(Au  0,Fe 12,Au  7)          122.4997         0.224439   
    116. A(Au  0,Fe 12,Au  6)          124.5421         0.223926   
    117. A(Au  5,Fe 12,Au 11)          118.2770         0.293601   
    118. A(Au  0,Fe 12,Au  9)           86.7726         0.179415   
    119. A(Au  0,Fe 12,Au  5)          124.5343         0.223945   
    120. A(Au  9,Fe 12,Au 11)           59.2378         0.226086   
    121. A(Au  9,Fe 12,Au 10)          125.3312         0.234781   
    122. A(Au  0,Fe 12,Au  4)           58.0747         0.223770   
    123. A(Au  4,Fe 12,Au 11)          116.1119         0.293336   
    124. A(Au  3,Fe 12,Au  7)          169.9259         0.294371   
    125. A(Au  7,Fe 12,Au  9)          129.5308         0.235484   
    126. A(Au  6,Fe 12,Au  9)           59.6581         0.234928   
    127. A(Au  0,Fe 12,Au  3)           58.9891         0.215763   
    128. A(Au  5,Fe 12,Au  9)           59.6550         0.234949   
    129. A(Au  4,Fe 12,Au  9)          125.3222         0.234760   
    130. A(Au  0,Fe 12,Au  2)          122.5111         0.224444   
    131. A(Au  3,Fe 12,Au 11)           90.1047         0.281195   
    132. A(Au  3,Fe 12,Au  9)           59.2328         0.226100   
    133. A(Au  2,Fe 12,Au  9)          129.5193         0.235488   
    134. A(Au  2,Fe 12,Au 11)          169.9335         0.294356   
    135. A(Au  2,Fe 12,Au  7)           71.6541         0.308435   
    136. A(Au  3,Fe 12,Au  5)           65.8257         0.293622   
    137. A(Au  1,Fe 12,Au  5)           56.4540         0.213691   
    138. A(Au  7,Fe 12,Au 10)           64.4214         0.307376   
    139. A(Au  6,Fe 12,Au 10)          104.9903         0.306548   
    140. A(Au  5,Fe 12,Au  6)           77.1930         0.306799   
    141. A(Au  1,Fe 12,Au 11)          121.8653         0.206118   
    142. A(Au  4,Fe 12,Au 10)           72.4869         0.306297   
    143. A(Au  3,Fe 12,Au 10)          116.1278         0.293387   
    144. A(Au  3,Fe 12,Au  6)          118.2720         0.293593   
    145. A(Au  2,Fe 12,Au  5)           69.9224         0.307634   
    146. A(Au  2,Fe 12,Au  4)           64.4367         0.307351   
    147. A(Au  2,Fe 12,Au  3)           98.9739         0.294378   
    148. D(Au  2,Au  1,Au  0,Au 11)   -169.9028         0.001500   
    149. D(Au  7,Au  1,Au  0,Au 10)      0.4936         0.001500   
    150. D(Au  2,Au  1,Au  0,Au  8)    134.9135         0.001500   
    151. D(Au  6,Au  1,Au  0,Au 11)      7.1867         0.001500   
    152. D(Au  6,Au  1,Au  0,Au 10)     87.4131         0.001500   
    153. D(Au  7,Au  1,Au  0,Au  3)    169.8984         0.001500   
    154. D(Au  6,Au  1,Au  0,Au  4)    176.5981         0.001500   
    155. D(Au  7,Au  1,Au  0,Au 11)    -79.7328         0.001500   
    156. D(Au  5,Au  1,Au  0,Au 11)    103.1831         0.001500   
    157. D(Au  7,Au  1,Au  0,Au  8)   -134.9165         0.001500   
    158. D(Au  2,Au  1,Au  0,Au  3)     79.7284         0.001500   
    159. D(Au  2,Au  1,Au  0,Au  4)     -0.4914         0.001500   
    160. D(Au  2,Au  1,Au  0,Au 10)    -89.6764         0.001500   
    161. D(Au  7,Au  1,Au  0,Au  4)     89.6786         0.001500   
    162. D(Au  5,Au  1,Au  0,Au 10)   -176.5905         0.001500   
    163. D(Au  5,Au  1,Au  0,Au  4)    -87.4054         0.001500   
    164. D(Au  6,Au  1,Au  0,Au  3)   -103.1821         0.001500   
    165. D(Au  5,Au  1,Au  0,Au  8)     47.9994         0.001500   
    166. D(Au  5,Au  1,Au  0,Au  3)     -7.1857         0.001500   
    167. D(Au  6,Au  1,Au  0,Au  8)    -47.9970         0.001500   
    168. D(Fe 12,Au  2,Au  1,Au  5)     58.5295         0.001501   
    169. D(Fe 12,Au  2,Au  1,Au  6)     -2.9523         0.001501   
    170. D(Fe 12,Au  2,Au  1,Au  7)    -57.3851         0.001501   
    171. D(Fe 12,Au  3,Au  0,Au  4)     61.4063         0.001501   
    172. D(Au  8,Au  3,Au  0,Au 11)     61.9470         0.001501   
    173. D(Au  9,Au  3,Au  0,Au 10)     72.1821         0.001501   
    174. D(Fe 12,Au  3,Au  0,Au 11)    -47.8721         0.001501   
    175. D(Fe 12,Au  3,Au  0,Au 10)      9.0968         0.001501   
    176. D(Au  8,Au  3,Au  0,Au 10)    118.9159         0.001501   
    177. D(Fe 12,Au  3,Au  0,Au  8)   -109.8191         0.001501   
    178. D(Au  8,Au  3,Au  0,Au  4)    171.2253         0.001501   
    179. D(Au  9,Au  3,Au  0,Au  8)    -46.7338         0.001501   
    180. D(Au  8,Au  3,Au  0,Fe 12)    109.8191         0.001501   
    181. D(Au  9,Au  3,Au  0,Au 11)     15.2132         0.001501   
    182. D(Au  9,Au  3,Au  0,Fe 12)     63.0853         0.001501   
    183. D(Au  9,Au  3,Au  0,Au  4)    124.4916         0.001501   
    184. D(Fe 12,Au  4,Au  0,Au  8)    -54.1230         0.001501   
    185. D(Fe 12,Au  4,Au  0,Au 10)     58.4351         0.001501   
    186. D(Fe 12,Au  4,Au  0,Au 11)      9.2346         0.001501   
    187. D(Fe 12,Au  4,Au  0,Au  3)    -63.0843         0.001501   
    188. D(Fe 12,Au  5,Au  1,Au  7)     -2.9542         0.001501   
    189. D(Au  9,Au  5,Au  1,Au  7)    -62.1409         0.001501   
    190. D(Fe 12,Au  5,Au  1,Au  6)     53.8620         0.001501   
    191. D(Au  9,Au  5,Au  1,Fe 12)    -59.1867         0.001501   
    192. D(Au  9,Au  5,Au  1,Au  6)     -5.3247         0.001501   
    193. D(Au  9,Au  5,Au  1,Au  2)   -117.6112         0.001501   
    194. D(Fe 12,Au  5,Au  1,Au  2)    -58.4245         0.001501   
    195. D(Fe 12,Au  6,Au  1,Au  2)      2.9488         0.001501   
    196. D(Au  9,Au  6,Au  1,Fe 12)     59.1808         0.001501   
    197. D(Au  9,Au  6,Au  4,Au  0)     57.6914         0.001500   
    198. D(Au  9,Au  6,Au  1,Au  5)      5.3243         0.001501   
    199. D(Au  9,Au  6,Au  1,Au  7)    117.5975         0.001501   
    200. D(Fe 12,Au  6,Au  1,Au  5)    -53.8564         0.001501   
    201. D(Au  9,Au  6,Au  1,Au  2)     62.1296         0.001501   
    202. D(Fe 12,Au  6,Au  1,Au  7)     58.4167         0.001501   
    203. D(Au  1,Au  6,Au  4,Au  0)    177.2608         0.001500   
    204. D(Fe 12,Au  7,Au  1,Au  6)    -58.5320         0.001501   
    205. D(Fe 12,Au  7,Au  1,Au  2)     57.3886         0.001501   
    206. D(Fe 12,Au  7,Au  1,Au  5)      2.9576         0.001501   
    207. D(Au  9,Au  8,Au  0,Au  4)     38.9577         0.001502   
    208. D(Au  9,Au  8,Au  0,Au  3)     47.8466         0.001502   
    209. D(Au  9,Au  8,Au  0,Au 10)    -38.9541         0.001502   
    210. D(Au  3,Au  8,Au  0,Au 10)    -86.8007         0.001502   
    211. D(Au 11,Au  8,Au  0,Au 10)      8.9030         0.001502   
    212. D(Au 11,Au  8,Au  3,Au  9)     60.2091         0.001501   
    213. D(Au 11,Au  8,Au  3,Fe 12)     -0.0161         0.001501   
    214. D(Au  3,Au  8,Au  0,Fe 12)    -47.8486         0.001502   
    215. D(Au  9,Au  8,Au  3,Au  0)   -122.0979         0.001501   
    216. D(Au  0,Au  8,Au  3,Fe 12)     61.8727         0.001501   
    217. D(Au 11,Au  8,Au  0,Fe 12)     47.8551         0.001502   
    218. D(Au 11,Au  8,Au  0,Au  4)     86.8148         0.001502   
    219. D(Au  9,Au  8,Au  3,Fe 12)    -60.2253         0.001501   
    220. D(Au 11,Au  8,Au  3,Au  0)    -61.8888         0.001501   
    221. D(Au  3,Au  8,Au  0,Au  4)     -8.8889         0.001502   
    222. D(Au  0,Au  8,Au  3,Au  9)    122.0979         0.001501   
    223. D(Au  9,Au  8,Au  0,Fe 12)     -0.0019         0.001502   
    224. D(Au  3,Au  8,Au  0,Au 11)    -95.7037         0.001502   
    225. D(Au 11,Au  8,Au  0,Au  3)     95.7037         0.001502   
    226. D(Au  9,Au  8,Au  0,Au 11)    -47.8571         0.001502   
    227. D(Au 11,Au  9,Au  8,Au  3)     97.3709         0.001502   
    228. D(Au  6,Au  9,Au  8,Au  0)     41.5561         0.001502   
    229. D(Fe 12,Au  9,Au  3,Au  8)   -110.5121         0.001501   
    230. D(Au  5,Au  9,Au  8,Au  0)    -41.5524         0.001502   
    231. D(Au  3,Au  9,Au  8,Au 11)    -97.3709         0.001502   
    232. D(Au  3,Au  9,Au  8,Au  0)    -48.6861         0.001502   
    233. D(Au 11,Au  9,Au  6,Fe 12)    -64.8410         0.001501   
    234. D(Fe 12,Au  9,Au  5,Au  1)     62.3601         0.001501   
    235. D(Au  3,Au  9,Au  6,Fe 12)      7.5835         0.001501   
    236. D(Au  3,Au  9,Au  6,Au  1)    -54.7743         0.001501   
    237. D(Au 11,Au  9,Au  5,Au  1)     54.7957         0.001501   
    238. D(Au  5,Au  9,Au  6,Au  1)     -5.3095         0.001501   
    239. D(Fe 12,Au  9,Au  6,Au  1)    -62.3578         0.001501   
    240. D(Au 11,Au  9,Au  6,Au  1)   -127.1988         0.001501   
    241. D(Au  5,Au  9,Au  8,Au 11)    -90.2371         0.001502   
    242. D(Au  5,Au  9,Au  8,Au  3)      7.1338         0.001502   
    243. D(Au  3,Au  9,Au  5,Au  1)    127.2118         0.001501   
    244. D(Fe 12,Au  9,Au  8,Au  0)      0.0020         0.001502   
    245. D(Fe 12,Au  9,Au  8,Au  3)     48.6881         0.001502   
    246. D(Au 11,Au  9,Au  8,Au  0)     48.6848         0.001502   
    247. D(Au  5,Au  9,Au  6,Fe 12)     57.0483         0.001501   
    248. D(Au  8,Au  9,Au  6,Fe 12)    -57.6143         0.001501   
    249. D(Au  8,Au  9,Au  6,Au  1)   -119.9721         0.001501   
    250. D(Fe 12,Au  9,Au  8,Au 11)    -48.6828         0.001502   
    251. D(Au  6,Au  9,Au  5,Au  1)      5.3091         0.001501   
    252. D(Au 11,Au  9,Au  3,Fe 12)     49.0162         0.001501   
    253. D(Au  6,Au  9,Au  8,Au 11)     -7.1287         0.001502   
    254. D(Au  8,Au  9,Au  5,Au  1)    119.9776         0.001501   
    255. D(Au 11,Au  9,Au  3,Au  0)    -15.4011         0.001501   
    256. D(Au  5,Au  9,Au  3,Au  8)   -172.9602         0.001501   
    257. D(Fe 12,Au  9,Au  3,Au  0)    -64.4173         0.001501   
    258. D(Au  6,Au  9,Au  3,Au  8)   -117.9390         0.001501   
    259. D(Au  5,Au  9,Au  3,Fe 12)    -62.4481         0.001501   
    260. D(Au  8,Au  9,Au  3,Fe 12)    110.5121         0.001501   
    261. D(Au  6,Au  9,Au  8,Au  3)     90.2423         0.001502   
    262. D(Au  5,Au  9,Au  3,Au  0)   -126.8654         0.001501   
    263. D(Au  6,Au  9,Au  3,Au  0)    -71.8442         0.001501   
    264. D(Au  6,Au  9,Au  3,Fe 12)     -7.4269         0.001501   
    265. D(Au 11,Au  9,Au  3,Au  8)    -61.4960         0.001501   
    266. D(Au  8,Au  9,Au  5,Fe 12)     57.6175         0.001501   
    267. D(Au  8,Au  9,Au  3,Au  0)     46.0948         0.001501   
    268. D(Au  3,Au  9,Au  5,Fe 12)     64.8516         0.001501   
    269. D(Au  6,Au  9,Au  5,Fe 12)    -57.0510         0.001501   
    270. D(Au 11,Au  9,Au  5,Fe 12)     -7.5644         0.001501   
    271. D(Fe 12,Au 10,Au  0,Au  8)     54.1152         0.001501   
    272. D(Fe 12,Au 10,Au  0,Au  3)     -9.2400         0.001501   
    273. D(Fe 12,Au 10,Au  0,Au  4)    -58.4411         0.001501   
    274. D(Fe 12,Au 10,Au  0,Au 11)     63.0898         0.001501   
    275. D(Au  0,Au 10,Au  5,Au  1)   -177.2549         0.001500   
    276. D(Au  0,Au 10,Au  5,Au  9)    -57.6907         0.001500   
    277. D(Au  8,Au 11,Au  9,Au  6)    172.9669         0.001501   
    278. D(Au  8,Au 11,Au  9,Au  5)    117.9336         0.001501   
    279. D(Fe 12,Au 11,Au  9,Au  8)   -110.5257         0.001501   
    280. D(Au  0,Au 11,Au  9,Au  5)     71.8279         0.001501   
    281. D(Fe 12,Au 11,Au  9,Au  6)     62.4412         0.001501   
    282. D(Au  0,Au 11,Au  9,Au  3)     15.4043         0.001501   
    283. D(Fe 12,Au 11,Au  9,Au  5)      7.4079         0.001501   
    284. D(Au  0,Au 11,Au  9,Au  6)    126.8612         0.001501   
    285. D(Au  9,Au 11,Au  8,Au  3)    -60.1974         0.001501   
    286. D(Au  9,Au 11,Au  8,Au  0)   -122.0935         0.001501   
    287. D(Au  0,Au 11,Au  8,Au  9)    122.0935         0.001501   
    288. D(Au  8,Au 11,Au  9,Fe 12)    110.5257         0.001501   
    289. D(Fe 12,Au 11,Au  8,Au  3)      0.0161         0.001501   
    290. D(Fe 12,Au 11,Au  8,Au  9)     60.2135         0.001501   
    291. D(Fe 12,Au 11,Au  8,Au  0)    -61.8800         0.001501   
    292. D(Au  9,Au 11,Au  0,Fe 12)    -63.0782         0.001501   
    293. D(Au  0,Au 11,Au  8,Au  3)     61.8962         0.001501   
    294. D(Au  9,Au 11,Au  0,Au 10)   -124.4731         0.001501   
    295. D(Au  9,Au 11,Au  0,Au  4)    -72.1695         0.001501   
    296. D(Au  8,Au 11,Au  9,Au  3)     61.5100         0.001501   
    297. D(Au  0,Au 11,Au  9,Fe 12)     64.4201         0.001501   
    298. D(Au  9,Au 11,Au  0,Au  3)    -15.2120         0.001501   
    299. D(Au  9,Au 11,Au  0,Au  8)     46.7390         0.001501   
    300. D(Au  0,Au 11,Au  9,Au  8)    -46.1056         0.001501   
    301. D(Au  8,Au 11,Au  0,Fe 12)   -109.8172         0.001501   
    302. D(Au  8,Au 11,Au  0,Au 10)   -171.2121         0.001501   
    303. D(Au  8,Au 11,Au  0,Au  4)   -118.9085         0.001501   
    304. D(Fe 12,Au 11,Au  9,Au  3)    -49.0157         0.001501   
    305. D(Au  8,Au 11,Au  0,Au  3)    -61.9510         0.001501   
    306. D(Fe 12,Au 11,Au  0,Au 10)    -61.3949         0.001501   
    307. D(Fe 12,Au 11,Au  0,Au  4)     -9.0913         0.001501   
    308. D(Fe 12,Au 11,Au  0,Au  3)     47.8662         0.001501   
    309. D(Fe 12,Au 11,Au  0,Au  8)    109.8172         0.001501   
    310. D(Au  6,Fe 12,Au  3,Au  0)    115.3337         0.001536   
    311. D(Au  5,Fe 12,Au  3,Au  9)     67.8372         0.001536   
    312. D(Au  5,Fe 12,Au  3,Au  8)    121.2459         0.001536   
    313. D(Au  4,Fe 12,Au  3,Au  9)   -171.9895         0.001536   
    314. D(Au  4,Fe 12,Au  3,Au  8)   -118.5808         0.001536   
    315. D(Au  4,Fe 12,Au  3,Au  0)    -65.6443         0.001536   
    316. D(Au  2,Fe 12,Au  3,Au  8)   -175.6159         0.001536   
    317. D(Au  2,Fe 12,Au  3,Au  0)   -122.6794         0.001536   
    318. D(Au  9,Fe 12,Au  2,Au  1)    -65.1983         0.001558   
    319. D(Au  0,Fe 12,Au  2,Au  1)    178.7487         0.001558   
    320. D(Au 11,Fe 12,Au  2,Au  1)     83.3830         0.001558   
    321. D(Au 10,Fe 12,Au  2,Au  1)    117.2686         0.001558   
    322. D(Au  7,Fe 12,Au  2,Au  1)     61.3671         0.001558   
    323. D(Au  5,Fe 12,Au  2,Au  1)    -62.3832         0.001558   
    324. D(Au  4,Fe 12,Au  2,Au  1)    178.9365         0.001558   
    325. D(Au  3,Fe 12,Au  2,Au  1)   -122.4406         0.001558   
    326. D(Au  9,Fe 12,Au  1,Au  6)    -48.4630         0.001501   
    327. D(Au  9,Fe 12,Au  1,Au  5)     48.4625         0.001501   
    328. D(Au  9,Fe 12,Au  1,Au  2)    135.3598         0.001501   
    329. D(Au 11,Fe 12,Au  1,Au  6)      7.9738         0.001501   
    330. D(Au 11,Fe 12,Au  1,Au  5)    104.8993         0.001501   
    331. D(Au 11,Fe 12,Au  1,Au  2)   -168.2034         0.001501   
    332. D(Au 10,Fe 12,Au  1,Au  7)      1.1208         0.001501   
    333. D(Au 10,Fe 12,Au  1,Au  6)     88.0252         0.001501   
    334. D(Au 10,Fe 12,Au  1,Au  5)   -175.0493         0.001501   
    335. D(Au 10,Fe 12,Au  1,Au  2)    -88.1520         0.001501   
    336. D(Au  7,Fe 12,Au  1,Au  5)   -176.1700         0.001501   
    337. D(Au  7,Fe 12,Au  1,Au  2)    -89.2728         0.001501   
    338. D(Au  6,Fe 12,Au  1,Au  7)    -86.9045         0.001501   
    339. D(Au  6,Fe 12,Au  1,Au  2)   -176.1772         0.001501   
    340. D(Au  5,Fe 12,Au  1,Au  7)    176.1700         0.001501   
    341. D(Au  5,Fe 12,Au  1,Au  6)    -96.9255         0.001501   
    342. D(Au  4,Fe 12,Au  1,Au  7)     88.1554         0.001501   
    343. D(Au  4,Fe 12,Au  1,Au  6)    175.0598         0.001501   
    344. D(Au  4,Fe 12,Au  1,Au  5)    -88.0147         0.001501   
    345. D(Au  4,Fe 12,Au  1,Au  2)     -1.1174         0.001501   
    346. D(Au  3,Fe 12,Au  1,Au  7)    168.1968         0.001501   
    347. D(Au  3,Fe 12,Au  1,Au  6)   -104.8988         0.001501   
    348. D(Au  3,Fe 12,Au  1,Au  5)     -7.9733         0.001501   
    349. D(Au  3,Fe 12,Au  1,Au  2)     78.9240         0.001501   
    350. D(Au  2,Fe 12,Au  1,Au  7)     89.2728         0.001501   
    351. D(Au  2,Fe 12,Au  1,Au  6)    176.1772         0.001501   
    352. D(Au  2,Fe 12,Au  1,Au  5)    -86.8972         0.001501   
    353. D(Au  9,Fe 12,Au  0,Au 11)     55.6746         0.001501   
    354. D(Au  9,Fe 12,Au  0,Au 10)    135.8524         0.001501   
    355. D(Au  9,Fe 12,Au  0,Au  4)   -135.8428         0.001501   
    356. D(Au  1,Fe 12,Au 11,Au  0)    178.5392         0.001536   
    357. D(Au  9,Fe 12,Au 11,Au  8)    -53.4048         0.001536   
    358. D(Au  9,Fe 12,Au  0,Au  3)    -55.6732         0.001501   
    359. D(Au  9,Fe 12,Au  0,Au  8)      0.0018         0.001501   
    360. D(Au 10,Fe 12,Au 11,Au  9)    172.0027         0.001536   
    361. D(Au  5,Fe 12,Au  1,Au  2)     86.8972         0.001501   
    362. D(Au 11,Fe 12,Au  0,Au 10)     80.1779         0.001501   
    363. D(Au 11,Fe 12,Au  0,Au  4)    168.4827         0.001501   
    364. D(Au  7,Fe 12,Au 11,Au  9)   -130.9832         0.001536   
    365. D(Au  6,Fe 12,Au  1,Au  5)     96.9255         0.001501   
    366. D(Au  7,Fe 12,Au 11,Au  8)    175.6120         0.001536   
    367. D(Au 11,Fe 12,Au  0,Au  3)   -111.3478         0.001501   
    368. D(Au 11,Fe 12,Au  0,Au  8)    -55.6728         0.001501   
    369. D(Au  7,Fe 12,Au  1,Au  6)     86.9045         0.001501   
    370. D(Au  6,Fe 12,Au 11,Au  0)   -174.1819         0.001536   
    371. D(Au 10,Fe 12,Au  0,Au 11)    -80.1779         0.001501   
    372. D(Au  5,Fe 12,Au 11,Au  9)     -8.9657         0.001536   
    373. D(Au  5,Fe 12,Au 11,Au  8)    -62.3705         0.001536   
    374. D(Au 10,Fe 12,Au  0,Au  4)     88.3048         0.001501   
    375. D(Au  5,Fe 12,Au 11,Au  0)   -115.3179         0.001536   
    376. D(Au  4,Fe 12,Au 11,Au  9)    117.2306         0.001536   
    377. D(Au 11,Fe 12,Au  1,Au  7)    -78.9306         0.001501   
    378. D(Au 10,Fe 12,Au  0,Au  3)    168.4744         0.001501   
    379. D(Au 10,Fe 12,Au  0,Au  8)   -135.8507         0.001501   
    380. D(Au  3,Fe 12,Au 11,Au  8)     -0.0174         0.001536   
    381. D(Au  9,Fe 12,Au  1,Au  7)   -135.3674         0.001501   
    382. D(Au  7,Fe 12,Au  0,Au 11)    -80.3762         0.001501   
    383. D(Au  7,Fe 12,Au  0,Au 10)     -0.1984         0.001501   
    384. D(Au  2,Fe 12,Au 11,Au  8)    154.4979         0.001536   
    385. D(Au  6,Fe 12,Au  2,Au  1)      3.4545         0.001558   
    386. D(Au  2,Fe 12,Au 11,Au  0)    101.5505         0.001536   
    387. D(Au  7,Fe 12,Au  0,Au  4)     88.1064         0.001501   
    388. D(Au  7,Fe 12,Au  0,Au  3)    168.2760         0.001501   
    389. D(Au  7,Fe 12,Au 10,Au  0)    179.8145         0.001556   
    390. D(Au  7,Fe 12,Au  0,Au  8)   -136.0490         0.001501   
    391. D(Au  6,Fe 12,Au  0,Au 11)      6.4475         0.001501   
    392. D(Au  3,Fe 12,Au 10,Au  0)     10.9959         0.001556   
    393. D(Au  2,Fe 12,Au  3,Au  9)    130.9753         0.001536   
    394. D(Au  2,Fe 12,Au 10,Au  0)    119.1942         0.001556   
    395. D(Au  6,Fe 12,Au  0,Au 10)     86.6253         0.001501   
    396. D(Au  6,Fe 12,Au  0,Au  4)    174.9301         0.001501   
    397. D(Au  5,Fe 12,Au  3,Au  0)    174.1824         0.001536   
    398. D(Au  1,Fe 12,Au  9,Au  3)   -124.5379         0.001502   
    399. D(Au  6,Fe 12,Au  0,Au  3)   -104.9003         0.001501   
    400. D(Au  6,Fe 12,Au  0,Au  8)    -49.2253         0.001501   
    401. D(Au  6,Fe 12,Au  3,Au  8)     62.3972         0.001536   
    402. D(Au  0,Fe 12,Au  9,Au  6)   -133.7136         0.001502   
    403. D(Au  0,Fe 12,Au  9,Au  5)    133.7052         0.001502   
    404. D(Au  5,Fe 12,Au  0,Au 11)    104.9025         0.001501   
    405. D(Au  5,Fe 12,Au  0,Au 10)   -174.9196         0.001501   
    406. D(Au 11,Fe 12,Au  9,Au  5)   -170.8491         0.001502   
    407. D(Au  5,Fe 12,Au  0,Au  4)    -86.6148         0.001501   
    408. D(Au 11,Fe 12,Au  9,Au  8)     55.4439         0.001502   
    409. D(Au  5,Fe 12,Au  0,Au  3)     -6.4452         0.001501   
    410. D(Au 10,Fe 12,Au  9,Au 11)     -9.0066         0.001502   
    411. D(Au 10,Fe 12,Au  9,Au  6)    -87.2746         0.001502   
    412. D(Au  5,Fe 12,Au  0,Au  8)     49.2297         0.001501   
    413. D(Au  4,Fe 12,Au  0,Au 11)   -168.4827         0.001501   
    414. D(Au  7,Fe 12,Au  9,Au 11)     75.1863         0.001502   
    415. D(Au  4,Fe 12,Au  0,Au 10)    -88.3048         0.001501   
    416. D(Au  4,Fe 12,Au  0,Au  3)     80.1696         0.001501   
    417. D(Au  7,Fe 12,Au  9,Au  3)   -173.9074         0.001502   
    418. D(Au  7,Fe 12,Au  9,Au  8)    130.6302         0.001502   
    419. D(Au  4,Fe 12,Au  0,Au  8)    135.8445         0.001501   
    420. D(Au  3,Fe 12,Au  0,Au 11)    111.3478         0.001501   
    421. D(Au  6,Fe 12,Au  9,Au  8)    133.7119         0.001502   
    422. D(Au  3,Fe 12,Au  0,Au 10)   -168.4744         0.001501   
    423. D(Au  3,Fe 12,Au  0,Au  4)    -80.1696         0.001501   
    424. D(Au  5,Fe 12,Au  9,Au  3)    -78.2446         0.001502   
    425. D(Au  5,Fe 12,Au  9,Au  8)   -133.7070         0.001502   
    426. D(Au  3,Fe 12,Au  0,Au  8)     55.6750         0.001501   
    427. D(Au  2,Fe 12,Au  0,Au 11)   -168.2831         0.001501   
    428. D(Au  4,Fe 12,Au  9,Au  3)      9.0203         0.001502   
    429. D(Au  2,Fe 12,Au  0,Au 10)    -88.1052         0.001501   
    430. D(Au  2,Fe 12,Au  0,Au  4)      0.1996         0.001501   
    431. D(Au  3,Fe 12,Au  9,Au  6)    170.8258         0.001502   
    432. D(Au  3,Fe 12,Au  9,Au  5)     78.2446         0.001502   
    433. D(Au  2,Fe 12,Au  0,Au  3)     80.3691         0.001501   
    434. D(Au  2,Fe 12,Au  0,Au  8)    136.0441         0.001501   
    435. D(Au  2,Fe 12,Au  9,Au  6)     95.6452         0.001502   
    436. D(Au  2,Fe 12,Au  9,Au  5)      3.0640         0.001502   
    437. D(Au  2,Fe 12,Au  9,Au  3)    -75.1806         0.001502   
    438. D(Au  2,Fe 12,Au  9,Au  8)   -130.6430         0.001502   
    439. D(Au  9,Fe 12,Au  7,Au  1)     65.2019         0.001558   
    440. D(Au  0,Fe 12,Au  7,Au  1)   -178.7465         0.001558   
    441. D(Au 10,Fe 12,Au  7,Au  1)   -178.9331         0.001558   
    442. D(Au  6,Fe 12,Au  7,Au  1)     62.3707         0.001558   
    443. D(Au  5,Fe 12,Au  7,Au  1)     -3.4617         0.001558   
    444. D(Au  3,Fe 12,Au  7,Au  1)    -83.3749         0.001558   
    445. D(Au  2,Fe 12,Au  7,Au  1)    -61.3509         0.001558   
    446. D(Au  1,Fe 12,Au  6,Au  9)   -120.1887         0.001559   
    447. D(Au  0,Fe 12,Au  6,Au  1)   -178.6351         0.001559   
    448. D(Au  0,Fe 12,Au  6,Au  9)     61.1761         0.001559   
    449. D(Au 11,Fe 12,Au  6,Au  1)   -172.5814         0.001559   
    450. D(Au 11,Fe 12,Au  6,Au  9)     67.2298         0.001559   
    451. D(Au 10,Fe 12,Au  6,Au  1)   -117.3344         0.001559   
    452. D(Au 10,Fe 12,Au  6,Au  9)    122.4769         0.001559   
    453. D(Au  7,Fe 12,Au  6,Au  1)    -62.3413         0.001559   
    454. D(Au  7,Fe 12,Au  6,Au  9)    177.4700         0.001559   
    455. D(Au  5,Fe 12,Au  6,Au  1)     58.0455         0.001559   
    456. D(Au  5,Fe 12,Au  6,Au  9)    -62.1432         0.001559   
    457. D(Au  9,Fe 12,Au  6,Au  1)    120.1887         0.001559   
    458. D(Au  3,Fe 12,Au  6,Au  1)    111.2399         0.001559   
    459. D(Au  3,Fe 12,Au  6,Au  9)     -8.9488         0.001559   
    460. D(Au  2,Fe 12,Au  6,Au  1)     -3.4530         0.001559   
    461. D(Au  4,Fe 12,Au  7,Au  1)   -117.2720         0.001558   
    462. D(Au  2,Fe 12,Au  6,Au  9)   -123.6418         0.001559   
    463. D(Au  1,Fe 12,Au  5,Au  9)    120.1863         0.001559   
    464. D(Au  9,Fe 12,Au  5,Au  1)   -120.1863         0.001559   
    465. D(Au 11,Fe 12,Au  7,Au  1)    122.4527         0.001558   
    466. D(Au  0,Fe 12,Au  5,Au  1)    178.6328         0.001559   
    467. D(Au  0,Fe 12,Au  5,Au  9)    -61.1809         0.001559   
    468. D(Au 11,Fe 12,Au  5,Au  1)   -111.2593         0.001559   
    469. D(Au 11,Fe 12,Au  5,Au  9)      8.9270         0.001559   
    470. D(Au  7,Fe 12,Au  5,Au  1)      3.4605         0.001559   
    471. D(Au  7,Fe 12,Au  5,Au  9)    123.6468         0.001559   
    472. D(Au  2,Fe 12,Au  9,Au 11)    173.9131         0.001502   
    473. D(Au  3,Fe 12,Au  9,Au  8)    -55.4623         0.001502   
    474. D(Au  6,Fe 12,Au  5,Au  1)    -58.0396         0.001559   
    475. D(Au  6,Fe 12,Au  5,Au  9)     62.1467         0.001559   
    476. D(Au  3,Fe 12,Au  9,Au 11)   -110.9062         0.001502   
    477. D(Au  4,Fe 12,Au  9,Au  8)    -46.4420         0.001502   
    478. D(Au  4,Fe 12,Au  5,Au  1)    117.3422         0.001559   
    479. D(Au  4,Fe 12,Au  9,Au  5)     87.2650         0.001502   
    480. D(Au  4,Fe 12,Au  9,Au  6)    179.8462         0.001502   
    481. D(Au  4,Fe 12,Au  9,Au 11)   -101.8859         0.001502   
    482. D(Au  4,Fe 12,Au  5,Au  9)   -122.4715         0.001559   
    483. D(Au  3,Fe 12,Au  5,Au  1)    172.5793         0.001559   
    484. D(Au  5,Fe 12,Au  9,Au  6)     92.5812         0.001502   
    485. D(Au  5,Fe 12,Au  9,Au 11)    170.8491         0.001502   
    486. D(Au  3,Fe 12,Au  5,Au  9)    -67.2344         0.001559   
    487. D(Au  6,Fe 12,Au  9,Au  3)   -170.8258         0.001502   
    488. D(Au  6,Fe 12,Au  9,Au  5)    -92.5812         0.001502   
    489. D(Au  6,Fe 12,Au  9,Au 11)     78.2680         0.001502   
    490. D(Au  2,Fe 12,Au  5,Au  1)     62.3298         0.001559   
    491. D(Au  2,Fe 12,Au  5,Au  9)   -177.4839         0.001559   
    492. D(Au  7,Fe 12,Au  9,Au  5)    -95.6628         0.001502   
    493. D(Au  7,Fe 12,Au  9,Au  6)     -3.0816         0.001502   
    494. D(Au  1,Fe 12,Au  4,Au  0)   -178.7816         0.001556   
    495. D(Au 10,Fe 12,Au  9,Au  8)     46.4373         0.001502   
    496. D(Au 10,Fe 12,Au  9,Au  3)    101.8996         0.001502   
    497. D(Au 10,Fe 12,Au  9,Au  5)   -179.8558         0.001502   
    498. D(Au  9,Fe 12,Au  4,Au  0)     58.4791         0.001556   
    499. D(Au 11,Fe 12,Au  4,Au  0)    -10.9849         0.001556   
    500. D(Au 10,Fe 12,Au  4,Au  0)    -62.8279         0.001556   
    501. D(Au 11,Fe 12,Au  9,Au  3)    110.9062         0.001502   
    502. D(Au  7,Fe 12,Au  4,Au  0)   -119.1824         0.001556   
    503. D(Au 11,Fe 12,Au  9,Au  6)    -78.2680         0.001502   
    504. D(Au  0,Fe 12,Au  9,Au  8)     -0.0018         0.001502   
    505. D(Au  0,Fe 12,Au  9,Au  3)     55.4606         0.001502   
    506. D(Au  5,Fe 12,Au  4,Au  0)    121.6485         0.001556   
    507. D(Au  3,Fe 12,Au  4,Au  0)     66.9180         0.001556   
    508. D(Au  0,Fe 12,Au  9,Au 11)    -55.4456         0.001502   
    509. D(Au  1,Fe 12,Au  9,Au  8)    179.9998         0.001502   
    510. D(Au  2,Fe 12,Au  4,Au  0)   -179.8134         0.001556   
    511. D(Au  1,Fe 12,Au  9,Au  5)    -46.2933         0.001502   
    512. D(Au  1,Fe 12,Au  9,Au  6)     46.2879         0.001502   
    513. D(Au  1,Fe 12,Au  9,Au 11)    124.5559         0.001502   
    514. D(Au  1,Fe 12,Au  3,Au  9)     75.1173         0.001536   
    515. D(Au  1,Fe 12,Au  3,Au  8)    128.5260         0.001536   
    516. D(Au  4,Fe 12,Au 10,Au  0)     62.8232         0.001556   
    517. D(Au  6,Fe 12,Au 10,Au  0)   -121.6522         0.001556   
    518. D(Au  1,Fe 12,Au  3,Au  0)   -178.5374         0.001536   
    519. D(Au 11,Fe 12,Au 10,Au  0)    -66.8997         0.001556   
    520. D(Au  9,Fe 12,Au 10,Au  0)    -58.4732         0.001556   
    521. D(Au  1,Fe 12,Au 10,Au  0)    178.7793         0.001556   
    522. D(Au  9,Fe 12,Au  3,Au  8)     53.4087         0.001536   
    523. D(Au  9,Fe 12,Au  3,Au  0)    106.3453         0.001536   
    524. D(Au  2,Fe 12,Au 11,Au  9)   -152.0973         0.001536   
    525. D(Au  3,Fe 12,Au 11,Au  0)    -52.9648         0.001536   
    526. D(Au  0,Fe 12,Au  3,Au  9)   -106.3453         0.001536   
    527. D(Au  3,Fe 12,Au 11,Au  9)     53.3874         0.001536   
    528. D(Au  4,Fe 12,Au 11,Au  0)     10.8784         0.001536   
    529. D(Au  4,Fe 12,Au 11,Au  8)     63.8258         0.001536   
    530. D(Au  0,Fe 12,Au  3,Au  8)    -52.9365         0.001536   
    531. D(Au 11,Fe 12,Au  3,Au  9)    -53.3914         0.001536   
    532. D(Au 11,Fe 12,Au  3,Au  8)      0.0174         0.001536   
    533. D(Au 11,Fe 12,Au  3,Au  0)     52.9539         0.001536   
    534. D(Au 10,Fe 12,Au  3,Au  9)   -117.2334         0.001536   
    535. D(Au  6,Fe 12,Au 11,Au  8)   -121.2345         0.001536   
    536. D(Au  6,Fe 12,Au 11,Au  9)    -67.8297         0.001536   
    537. D(Au  7,Fe 12,Au 11,Au  0)    122.6646         0.001536   
    538. D(Au 10,Fe 12,Au  3,Au  8)    -63.8247         0.001536   
    539. D(Au 10,Fe 12,Au  3,Au  0)    -10.8882         0.001536   
    540. D(Au 10,Fe 12,Au 11,Au  0)     65.6506         0.001536   
    541. D(Au 10,Fe 12,Au 11,Au  8)    118.5980         0.001536   
    542. D(Au  7,Fe 12,Au  3,Au  9)    152.0968         0.001536   
    543. D(Au  0,Fe 12,Au 11,Au  8)     52.9474         0.001536   
    544. D(Au  0,Fe 12,Au 11,Au  9)    106.3522         0.001536   
    545. D(Au  9,Fe 12,Au 11,Au  0)   -106.3522         0.001536   
    546. D(Au  7,Fe 12,Au  3,Au  8)   -154.4944         0.001536   
    547. D(Au  7,Fe 12,Au  3,Au  0)   -101.5579         0.001536   
    548. D(Au  1,Fe 12,Au 11,Au  8)   -128.5134         0.001536   
    549. D(Au  1,Fe 12,Au 11,Au  9)    -75.1086         0.001536   
    550. D(Au  6,Fe 12,Au  3,Au  9)      8.9884         0.001536   
    -----------------------------------------------------------------

Number of atoms                         .... 13
Number of degrees of freedom            .... 550

         *************************************************************
         *                GEOMETRY OPTIMIZATION CYCLE   1            *
         *************************************************************
---------------------------------
CARTESIAN COORDINATES (ANGSTROEM)
---------------------------------
  Au     6.514058    6.378365    6.873381
  Au    11.610789    8.732926    9.969109
  Au    10.517752    9.380067    7.451700
  Au     9.303454    5.724161    6.448149
  Au     8.327341    8.410484    6.096566
  Au    11.451021    6.644583    8.076655
  Au     9.728870    6.798449   10.795653
  Au     8.903935    9.524315    9.998009
  Au     7.428994    3.835210    7.596911
  Au     9.743977    4.581498    9.021235
  Au     6.694190    8.556530    8.674688
  Au     7.291844    5.903576    9.622193
  Fe     9.036679    7.499134    8.408181

----------------------------
CARTESIAN COORDINATES (A.U.)
----------------------------
  NO LB      ZA    FRAG     MASS         X           Y           Z
   0 Au   19.0000*   0   196.966   12.309786   12.053363   12.988808
   1 Au   19.0000*   0   196.966   21.941212   16.502838   18.838887
   2 Au   19.0000*   0   196.966   19.875671   17.725758   14.081673
   3 Au   19.0000*   0   196.966   17.580980   10.817097   12.185236
   4 Au   19.0000*   0   196.966   15.736394   15.893512   11.520841
   5 Au   19.0000*   0   196.966   21.639294   12.556441   15.262666
   6 Au   19.0000*   0   196.966   18.384899   12.847207   20.400827
   7 Au   19.0000*   0   196.966   16.825999   17.998347   18.893500
   8 Au   19.0000*   0   196.966   14.038764    7.247497   14.356081
   9 Au   19.0000*   0   196.966   18.413447    8.657776   17.047664
  10 Au   19.0000*   0   196.966   12.650186   16.169498   16.392785
  11 Au   19.0000*   0   196.966   13.779589   11.156143   18.183310
  12 Fe   26.0000    0    55.850   17.076849   14.171310   15.889160
* core charge reduced due to ECP

--------------------------------
INTERNAL COORDINATES (ANGSTROEM)
--------------------------------
 Au     0   0   0     0.000000000000     0.00000000     0.00000000
 Au     1   0   0     6.411252087737     0.00000000     0.00000000
 Au     2   1   0     2.819728855668    49.08324260     0.00000000
 Au     1   2   3     2.896468832312    52.28447690    79.72839376
 Au     3   2   1     2.752159126734   131.85597000     0.52159344
 Au     2   1   3     2.822779931781    50.17721081   273.08590975
 Au     2   1   3     2.822586130044    50.18310251   177.08948354
 Au     2   1   3     2.820317566034    49.08157514    90.16998335
 Au     1   2   3     2.797899144389    87.07606879   134.91352246
 Au     9   1   2     2.818650111926    99.12497899     0.00000000
 Au     8   2   1     2.751501177028   131.84908579   359.47601675
 Au     7   2   1     2.849016749178   131.68060348   352.25866313
 Fe     3   2   1     2.578050018226    73.97952210   359.31212423

---------------------------
INTERNAL COORDINATES (A.U.)
---------------------------
 Au     0   0   0     0.000000000000     0.00000000     0.00000000
 Au     1   0   0    12.115510621354     0.00000000     0.00000000
 Au     2   1   0     5.328515309127    49.08324260     0.00000000
 Au     1   2   3     5.473532848508    52.28447690    79.72839376
 Au     3   2   1     5.200827026499   131.85597000     0.52159344
 Au     2   1   3     5.334281007395    50.17721081   273.08590975
 Au     2   1   3     5.333914775188    50.18310251   177.08948354
 Au     2   1   3     5.329627810491    49.08157514    90.16998335
 Au     1   2   3     5.287263133228    87.07606879   134.91352246
 Au     9   1   2     5.326476778887    99.12497899     0.00000000
 Au     8   2   1     5.199583681745   131.84908579   359.47601675
 Au     7   2   1     5.383861406900   131.68060348   352.25866313
 Fe     3   2   1     4.871808493998    73.97952210   359.31212423

---------------------
BASIS SET INFORMATION
---------------------
There are 2 groups of distinct atoms

 Group   1 Type Au  : 8s7p6d1f contracted to 6s4p3d1f pattern {311111/4111/411/1}
 Group   2 Type Fe  : 17s11p7d1f contracted to 6s4p4d1f pattern {842111/6311/4111/1}

Atom   0Au   basis set group =>   1
Atom   1Au   basis set group =>   1
Atom   2Au   basis set group =>   1
Atom   3Au   basis set group =>   1
Atom   4Au   basis set group =>   1
Atom   5Au   basis set group =>   1
Atom   6Au   basis set group =>   1
Atom   7Au   basis set group =>   1
Atom   8Au   basis set group =>   1
Atom   9Au   basis set group =>   1
Atom  10Au   basis set group =>   1
Atom  11Au   basis set group =>   1
Atom  12Fe   basis set group =>   2
---------------------------------
AUXILIARY/J BASIS SET INFORMATION
---------------------------------
There are 2 groups of distinct atoms

 Group   1 Type Au  : 11s5p5d3f3g contracted to 8s5p5d2f3g pattern {41111111/11111/11111/21/111}
 Group   2 Type Fe  : 19s5p5d3f3g contracted to 8s5p5d2f3g pattern {121111111/11111/11111/21/111}

Atom   0Au   basis set group =>   1
Atom   1Au   basis set group =>   1
Atom   2Au   basis set group =>   1
Atom   3Au   basis set group =>   1
Atom   4Au   basis set group =>   1
Atom   5Au   basis set group =>   1
Atom   6Au   basis set group =>   1
Atom   7Au   basis set group =>   1
Atom   8Au   basis set group =>   1
Atom   9Au   basis set group =>   1
Atom  10Au   basis set group =>   1
Atom  11Au   basis set group =>   1
Atom  12Fe   basis set group =>   2
-------------------------
ECP PARAMETER INFORMATION
-------------------------

 Group 1, Type Au ECP Def2-ECP (replacing 60 core electrons, lmax=3)

Atom   0Au   ECP group =>   1
Atom   1Au   ECP group =>   1
Atom   2Au   ECP group =>   1
Atom   3Au   ECP group =>   1
Atom   4Au   ECP group =>   1
Atom   5Au   ECP group =>   1
Atom   6Au   ECP group =>   1
Atom   7Au   ECP group =>   1
Atom   8Au   ECP group =>   1
Atom   9Au   ECP group =>   1
Atom  10Au   ECP group =>   1
Atom  11Au   ECP group =>   1



           ************************************************************
           *        Program running with 16 parallel MPI-processes    *
           *              working on a common directory               *
           ************************************************************
------------------------------------------------------------------------------
                           ORCA GTO INTEGRAL CALCULATION
                           -- RI-GTO INTEGRALS CHOSEN --
------------------------------------------------------------------------------
------------------------------------------------------------------------------
                   ___                                                        
                  /   \      - P O W E R E D   B Y -                         
                 /     \                                                     
                 |  |  |   _    _      __       _____    __    __             
                 |  |  |  | |  | |    /  \     |  _  \  |  |  /  |          
                  \  \/   | |  | |   /    \    | | | |  |  | /  /          
                 / \  \   | |__| |  /  /\  \   | |_| |  |  |/  /          
                |  |  |   |  __  | /  /__\  \  |    /   |      \           
                |  |  |   | |  | | |   __   |  |    \   |  |\   \          
                \     /   | |  | | |  |  |  |  | |\  \  |  | \   \       
                 \___/    |_|  |_| |__|  |__|  |_| \__\ |__|  \__/        
                                                                              
                      - O R C A' S   B I G   F R I E N D -                    
                                      &                                       
                       - I N T E G R A L  F E E D E R -                       
                                                                              
 v1 FN, 2020, v2 2021                                                         
------------------------------------------------------------------------------


Reading SHARK input file pbe.SHARKINP.tmp ... ok
----------------------
SHARK INTEGRAL PACKAGE
----------------------

Number of atoms                             ...     13
Number of basis functions                   ...    525
Number of shells                            ...    183
Maximum angular momentum                    ...      3
Integral batch strategy                     ... SHARK/LIBINT Hybrid
RI-J (if used) integral strategy            ... SPLIT-RIJ (Revised 2003 algorithm where possible)
Printlevel                                  ...      1
Contraction scheme used                     ... SEGMENTED contraction
Coulomb Range Separation                    ... NOT USED
Exchange Range Separation                   ... NOT USED
Finite Nucleus Model                        ... NOT USED
Auxiliary Coulomb fitting basis             ... AVAILABLE
   # of basis functions in Aux-J            ...   1157
   # of shells in Aux-J                     ...    299
   Maximum angular momentum in Aux-J        ...      4
Auxiliary J/K fitting basis                 ... NOT available
Auxiliary Correlation fitting basis         ... NOT available
Auxiliary 'external' fitting basis          ... NOT available
Integral threshold                          ...     2.500000e-11
Primitive cut-off                           ...     2.500000e-12
Primitive pair pre-selection threshold      ...     2.500000e-12

Calculating pre-screening integrals         ... done (  0.1 sec) Dimension = 183
Organizing shell pair data                  ... done (  0.5 sec)
Shell pair information
Total number of shell pairs                 ...     16836
Shell pairs after pre-screening             ...     13882
Total number of primitive shell pairs       ...     45389
Primitive shell pairs kept                  ...     27501
          la=0 lb=0:   2165 shell pairs
          la=1 lb=0:   3165 shell pairs
          la=1 lb=1:   1211 shell pairs
          la=2 lb=0:   2738 shell pairs
          la=2 lb=1:   1928 shell pairs
          la=2 lb=2:    787 shell pairs
          la=3 lb=0:    753 shell pairs
          la=3 lb=1:    568 shell pairs
          la=3 lb=2:    480 shell pairs
          la=3 lb=3:     87 shell pairs

Calculating one electron integrals          ... done (  0.0 sec)
Calculating ECP integrals                   ... done (  8.3 sec)
Calculating RI/J V-Matrix + Cholesky decomp.... done (  0.1 sec)
Calculating Nuclear repulsion               ... done (  0.0 sec) ENN=   4460.895705011328 Eh

SHARK setup successfully completed in   9.4 seconds

Maximum memory used throughout the entire GTOINT-calculation: 31.0 MB


           ************************************************************
           *        Program running with 16 parallel MPI-processes    *
           *              working on a common directory               *
           ************************************************************
-------------------------------------------------------------------------------
                                 ORCA SCF
-------------------------------------------------------------------------------

------------
SCF SETTINGS
------------
Hamiltonian:
 Density Functional     Method          .... DFT(GTOs)
 Exchange Functional    Exchange        .... PBE
   PBE kappa parameter   XKappa         ....  0.804000
   PBE mue parameter    XMuePBE         ....  0.219520
 Correlation Functional Correlation     .... PBE
   PBE beta parameter  CBetaPBE         ....  0.066725
 LDA part of GGA corr.  LDAOpt          .... PW91-LDA
 Gradients option       PostSCFGGA      .... off
   Density functional embedding theory  .... OFF
   NL short-range parameter             ....  6.400000
 RI-approximation to the Coulomb term is turned on
   Number of AuxJ basis functions       .... 1157


General Settings:
 Integral files         IntName         .... pbe
 Hartree-Fock type      HFTyp           .... UHF
 Total Charge           Charge          ....    0
 Multiplicity           Mult            ....    3
 Number of Electrons    NEL             ....  254
 Basis Dimension        Dim             ....  525
 Nuclear Repulsion      ENuc            ....   4460.8957050113 Eh

Convergence Acceleration:
 DIIS                   CNVDIIS         .... off
 Trust-Rad. Augm. Hess. CNVTRAH         .... auto
   Auto Start mean grad. ratio tolernc. ....  1.125000
   Auto Start start iteration           ....    20
   Auto Start num. interpolation iter.  ....    10
   Max. Number of Micro iterations      ....    16
   Max. Number of Macro iterations      .... Maxiter - #DIIS iter
   Number of Davidson start vectors     ....     2
   Converg. threshold I  (grad. norm)   ....   1.000e-05
   Converg. threshold II (energy diff.) ....   1.000e-08
   Grad. Scal. Fac. for Micro threshold ....   0.100
   Minimum threshold for Micro iter.    ....   0.010
   NR start threshold (gradient norm)   ....   0.001
   Initial trust radius                 ....   0.400
   Minimum AH scaling param. (alpha)    ....   1.000
   Maximum AH scaling param. (alpha)    .... 1000.000
   Orbital update algorithm             .... Taylor
   White noise on init. David. guess    .... on
   Maximum white noise                  ....   0.010
   Quad. conv. algorithm                .... NR
 SOSCF                  CNVSOSCF        .... off
 Level Shifting         CNVShift        .... off
 Zerner damping         CNVZerner       .... off
 Static damping         CNVDamp         .... off
 Fernandez-Rico         CNVRico         .... off

SCF Procedure:
 Maximum # iterations   MaxIter         ....   125
 SCF integral mode      SCFMode         .... Direct
   Integral package                     .... SHARK and LIBINT hybrid scheme
 Reset frequency        DirectResetFreq ....    20
 Integral Threshold     Thresh          ....  2.500e-11 Eh
 Primitive CutOff       TCut            ....  2.500e-12 Eh

Convergence Tolerance:
 Convergence Check Mode ConvCheckMode   .... Total+1el-Energy
 Convergence forced     ConvForced      .... 0
 Energy Change          TolE            ....  1.000e-08 Eh
 1-El. energy change                    ....  1.000e-05 Eh


Diagonalization of the overlap matrix:
Smallest eigenvalue                        ... 3.973e-04
Time for diagonalization                   ...    0.076 sec
Threshold for overlap eigenvalues          ... 1.000e-08
Number of eigenvalues below threshold      ... 0
Time for construction of square roots      ...    0.042 sec
Total time needed                          ...    0.119 sec

Time for model grid setup =    0.392 sec

------------------------------
INITIAL GUESS: MODEL POTENTIAL
------------------------------
Loading Hartree-Fock densities                     ... done
  calling /home/ehlert/src/miniconda3/envs/orca500/Programs/ORCA501/orca pbe_atom79.inp > pbe_atom79.out in order to generate an atomic fitting density for atom 0 (Au with ECP) on-the-fly... 
    atom 0 (Au), assumed electronic state with S=2: 1s2 2s2 2p6 3s2 3p6 4s2 3d10 4p6 5s2 4d10 5p6 6s1 4f14 5d10           ... done
Calculating cut-offs                               ... done
Initializing the effective Hamiltonian             ... done
Setting up the integral package (SHARK)            ... done
Starting the Coulomb interaction                   ... done (   0.2 sec)
Reading the grid                                   ... done
Mapping shells                                     ... done
Starting the XC term evaluation                    ... done (   0.2 sec)
  promolecular density results
     # of electrons  =    974.012730307
     EX              =  -4443.965569122
     EC              =    -59.274939344
     EX+EC           =  -4503.240508466
Transforming the Hamiltonian                       ... done (   0.0 sec)
Diagonalizing the Hamiltonian                      ... done (   0.1 sec)
Back transforming the eigenvectors                 ... done (   0.0 sec)
Now organizing SCF variables                       ... done
                      ------------------
                      INITIAL GUESS DONE (   1.7 sec)
                      ------------------
-------------------
DFT GRID GENERATION
-------------------

General Integration Accuracy     IntAcc      ... 4.388
Radial Grid Type                 RadialGrid  ... OptM3 with GC (2021)
Angular Grid (max. ang.)         AngularGrid ... 4 (Lebedev-302)
Angular grid pruning method      GridPruning ... 4 (adaptive)
Weight generation scheme         WeightScheme... Becke
Basis function cutoff            BFCut       ... 1.0000e-11
Integration weight cutoff        WCut        ... 1.0000e-14
Angular grids for H and He will be reduced by one unit
Partially contracted basis set               ... off
Rotationally invariant grid construction     ... off

Total number of grid points                  ...   144524
Total number of batches                      ...     2265
Average number of points per batch           ...       63
Average number of grid points per atom       ...    11117
Time for grid setup =    1.379 sec

--------------
SCF ITERATIONS
--------------
ITER       Energy         Delta-E        Max-DP      RMS-DP      [F,P]   Gradient Norm
               ***  Starting incremental Fock matrix formation  ***
                             ****Resetting KDIIS****
                             ****Turning on KDIIS(Cayley)****
  0  -2890.1412456445   0.000000000000 0.81770301  0.00272310  0.3480362   0.258139221
  1  -2892.2059799661  -2.064734321573 0.98216437  0.00288373  0.3111186   0.170765484
  2  -2892.9185898447  -0.712609878602 0.26511247  0.00153118  0.2453847   0.124271808
  3  -2893.1540509806  -0.235461135965 0.17468508  0.00152701  0.1423602   0.074157552
  4  -2893.2133271287  -0.059276148065 0.03149355  0.00040321  0.0418727   0.026498918
  5  -2893.2678318758  -0.054504747159 0.59339433  0.00160217  0.0230777   0.015228576
  6  -2893.3081020583  -0.040270182446 0.06996723  0.00101296  0.0369660   0.018733481
  7  -2893.3432482417  -0.035146183382 0.03596141  0.00036868  0.0112047   0.009410842
  8  -2893.3453630955  -0.002114853791 0.04124338  0.00024266  0.0101243   0.009978391
  9  -2893.3559917610  -0.010628665542 0.01893835  0.00013920  0.0096193   0.003145657
 10  -2893.3584271412  -0.002435380200 0.01308666  0.00013921  0.0094404   0.003619667
 11  -2893.3618423139  -0.003415172657 0.03026213  0.00009798  0.0079204   0.002217512
 12  -2893.3626173381  -0.000775024261 0.01888792  0.00010961  0.0071386   0.003321798
 13  -2893.3649911595  -0.002373821421 0.01193655  0.00017644  0.0089324   0.002560435
 14  -2893.3685615162  -0.003570356615 0.02173954  0.00008519  0.0063211   0.001968938
 15  -2893.3680352408   0.000526275402 0.03592018  0.00021652  0.0055534   0.002220161
 16  -2893.3720252180  -0.003989977204 0.00719464  0.00005207  0.0049291   0.001951164
 17  -2893.3721363241  -0.000111106131 0.02554729  0.00014955  0.0046029   0.001669779
 18  -2893.3744562605  -0.002319936439 0.01292616  0.00005425  0.0055536   0.002467842
 19  -2893.3738654999   0.000590760594 0.00931639  0.00010819  0.0077495   0.002286754
               *** Restarting incremental Fock matrix formation ***
                             ****Resetting KDIIS****

 WARNING: the maximum gradient error descreased on average only by a factor   1.0
          during the last 20 iterations

                      *** Initiating the TRAH-SCF procedure ***

                    *** KDIIS BlockDiag ( 0.180 sec) ***

TRAH GRID
---------

General Integration Accuracy     IntAcc      ... 3.467
Radial Grid Type                 RadialGrid  ... OptM3 with GC (2021)
Angular Grid (max. ang.)         AngularGrid ... 1 (Lebedev-50)
Angular grid pruning method      GridPruning ... 4 (adaptive)
Weight generation scheme         WeightScheme... Becke
Basis function cutoff            BFCut       ... 1.0000e-11
Integration weight cutoff        WCut        ... 1.0000e-14
Angular grids for H and He will be reduced by one unit
Partially contracted basis set               ... off
Rotationally invariant grid construction     ... off

Total number of grid points                  ...    62364
Total number of batches                      ...      982
Average number of points per batch           ...       63
Average number of grid points per atom       ...     4797

 --------------------------------------------------------------------------------------------
   Iter.        energy            ||Error||_2        Shift      TRadius  Mac/Mic        Rej.
 --------------------------------------------------------------------------------------------
    0      -2893.375770142207     2.117796e-02                     0.400 (TRAH MAcro)   No
WARNING : small    HOMO - LUMO gap : (op = alpha) 0.013022
WARNING : small    HOMO - LUMO gap : (op =  beta) 0.016736
    0     dE    -8.858749e-05     4.955951e-02    -8.8586e-05      0.004 (TRAH MIcro)
    0     dE    -2.853219e-03     7.764984e-02    -2.7328e-03      0.210 (TRAH MIcro)
    0     dE    -6.087585e-03     6.766126e-02    -5.3408e-03      0.400 (TRAH MIcro)
    0     dE    -7.238749e-03     2.240627e-02    -1.3511e-02      0.400 (TRAH MIcro)
    0     dE    -7.732356e-03     1.415177e-02    -1.5867e-02      0.400 (TRAH MIcro)
    0     dE    -7.844443e-03     7.093207e-03    -1.6406e-02      0.400 (TRAH MIcro)
    0     dE    -7.871225e-03     3.442043e-03    -1.6526e-02      0.400 (TRAH MIcro)
    0     dE    -7.878000e-03     1.698582e-03    -1.6564e-02      0.400 (TRAH MIcro)
    1      -2893.382375743628     2.289126e-02                     0.480 (TRAH MAcro)   No
WARNING : small    HOMO - LUMO gap : (op = alpha) 0.011258
WARNING : small    HOMO - LUMO gap : (op =  beta) 0.016360
    1     dE    -1.033293e-04     1.619249e-02    -1.0333e-04      0.005 (TRAH MIcro)
    1     dE    -2.201807e-04     8.500497e-03    -2.2005e-04      0.024 (TRAH MIcro)
    1     dE    -4.366704e-04     9.996927e-03    -4.3258e-04      0.097 (TRAH MIcro)
    1     dE    -4.801517e-04     5.194996e-03    -4.7392e-04      0.115 (TRAH MIcro)
    1     dE    -4.986362e-04     4.230144e-03    -4.9108e-04      0.124 (TRAH MIcro)
    1     dE    -5.163256e-04     2.406337e-03    -5.0696e-04      0.136 (TRAH MIcro)
    1     dE    -5.210736e-04     1.732069e-03    -5.1086e-04      0.141 (TRAH MIcro)
    2      -2893.382871501342     3.699892e-03                     0.576 (TRAH MAcro)   No
WARNING : small    HOMO - LUMO gap : (op = alpha) 0.011531
WARNING : small    HOMO - LUMO gap : (op =  beta) 0.018452
    2     dE    -1.475835e-06     1.043137e-02    -1.4758e-06      0.000 (TRAH MIcro)
    2     dE    -4.410319e-06     3.288480e-03    -4.4103e-06      0.003 (TRAH MIcro)
    2     dE    -9.531047e-06     1.895098e-03    -9.5304e-06      0.008 (TRAH MIcro)
    2     dE    -1.367761e-05     1.252961e-03    -1.3674e-05      0.015 (TRAH MIcro)
    2     dE    -1.421017e-05     7.165998e-04    -1.4206e-05      0.016 (TRAH MIcro)
    2     dE    -1.448002e-05     3.606531e-04    -1.4476e-05      0.017 (TRAH MIcro)
    3      -2893.382886134144     3.581861e-04                           (NR   MAcro)
WARNING : small    HOMO - LUMO gap : (op = alpha) 0.011475
WARNING : small    HOMO - LUMO gap : (op =  beta) 0.017971
    3     dE    -2.727537e-08     3.308836e-04                           (NR   MIcro)
    3     dE    -6.573106e-08     2.024767e-04                           (NR   MIcro)
    3     dE    -1.028769e-07     1.927031e-04                           (NR   MIcro)
    3     dE    -1.280018e-07     1.202441e-04                           (NR   MIcro)
    3     dE    -1.367639e-07     6.872714e-05                           (NR   MIcro)
    3     dE    -1.396043e-07     4.168478e-05                           (NR   MIcro)
    3     dE    -1.406794e-07     2.268701e-05                           (NR   MIcro)
    3     dE    -1.409710e-07     1.234970e-05                           (NR   MIcro)
    3     dE    -1.410823e-07     5.477087e-06                           (NR   MIcro)
    3     dE    -1.411086e-07     4.138017e-06                           (NR   MIcro)
    3     dE    -1.411207e-07     1.867559e-06                           (NR   MIcro)
    3     dE    -1.411222e-07     6.710019e-07                           (NR   MIcro)
    4      -2893.382886275018     1.800880e-06                           (NR   MAcro)
WARNING : small    HOMO - LUMO gap : (op = alpha) 0.011474
WARNING : small    HOMO - LUMO gap : (op =  beta) 0.017945
    4     dE    -1.121811e-12     1.610470e-06                           (NR   MIcro)
    4     dE    -8.154219e-12     1.948034e-06                           (NR   MIcro)
    4     dE    -1.028310e-11     1.247289e-06                           (NR   MIcro)
    4     dE    -1.093528e-11     8.007022e-07                           (NR   MIcro)
    5      -2893.382886275030     8.000871e-07                           (NR   MAcro)
WARNING : small    HOMO - LUMO gap : (op = alpha) 0.011474
WARNING : small    HOMO - LUMO gap : (op =  beta) 0.017945

               *****************************************************
               *                     SUCCESS                       *
               *           SCF CONVERGED AFTER  63 CYCLES          *
               *****************************************************


----------------
TOTAL SCF ENERGY
----------------

Total Energy       :        -2893.38288628 Eh          -78732.95104 eV

Components:
Nuclear Repulsion  :         4460.89570501 Eh          121387.14334 eV
Electronic Energy  :        -7354.27859129 Eh         -200120.09438 eV
One Electron Energy:       -13522.52956356 Eh         -367966.73649 eV
Two Electron Energy:         6168.25097227 Eh          167846.64211 eV

Virial components:
Potential Energy   :        -4704.52988267 Eh         -128016.76635 eV
Kinetic Energy     :         1811.14699639 Eh           49283.81531 eV
Virial Ratio       :            2.59754172


DFT components:
N(Alpha)           :      127.999979536691 electrons
N(Beta)            :      125.999977746484 electrons
N(Total)           :      253.999957283175 electrons
E(X)               :     -198.893443407923 Eh       
E(C)               :      -11.091267899361 Eh       
E(XC)              :     -209.984711307284 Eh       
DFET-embed. en.    :        0.000000000000 Eh       

---------------
SCF CONVERGENCE
---------------

  Last Energy change         ...   -1.1369e-11  Tolerance :   1.0000e-08
  Last Orbital Gradient      ...    8.0009e-07  Tolerance :   1.0000e-05
  Last Orbital Rotation      ...    2.1380e-05

             **** THE GBW FILE WAS UPDATED (pbe.gbw) ****
             **** DENSITY pbe.scfp WAS UPDATED ****
             **** ENERGY FILE WAS UPDATED (pbe.en.tmp) ****
----------------------
UHF SPIN CONTAMINATION
----------------------

Warning: in a DFT calculation there is little theoretical justification to 
         calculate <S**2> as in Hartree-Fock theory. We will do it anyways
         but you should keep in mind that the values have only limited relevance

Expectation value of <S**2>     :     3.120090
Ideal value S*(S+1) for S=1.0   :     2.000000
Deviation                       :     1.120090

             **** THE GBW FILE WAS UPDATED (pbe.gbw) ****
             **** DENSITY pbe.scfp WAS UPDATED ****
----------------
ORBITAL ENERGIES
----------------
                 SPIN UP ORBITALS
  NO   OCC          E(Eh)            E(eV) 
   0   1.0000    -254.756403     -6932.2742 
   1   1.0000     -29.595971      -805.3473 
   2   1.0000     -25.540640      -694.9961 
   3   1.0000     -25.527835      -694.6477 
   4   1.0000     -25.526484      -694.6109 
   5   1.0000      -4.029321      -109.6434 
   6   1.0000      -4.029312      -109.6432 
   7   1.0000      -4.026240      -109.5596 
   8   1.0000      -4.026203      -109.5586 
   9   1.0000      -4.025021      -109.5264 
  10   1.0000      -4.022434      -109.4560 
  11   1.0000      -4.022404      -109.4552 
  12   1.0000      -4.019396      -109.3733 
  13   1.0000      -4.019355      -109.3722 
  14   1.0000      -4.017174      -109.3129 
  15   1.0000      -4.012557      -109.1872 
  16   1.0000      -4.010106      -109.1205 
  17   1.0000      -3.369777       -91.6963 
  18   1.0000      -2.245588       -61.1056 
  19   1.0000      -2.245541       -61.1043 
  20   1.0000      -2.243308       -61.0435 
  21   1.0000      -2.242980       -61.0346 
  22   1.0000      -2.241959       -61.0068 
  23   1.0000      -2.241870       -61.0044 
  24   1.0000      -2.241015       -60.9811 
  25   1.0000      -2.240769       -60.9744 
  26   1.0000      -2.240191       -60.9587 
  27   1.0000      -2.239752       -60.9467 
  28   1.0000      -2.239603       -60.9427 
  29   1.0000      -2.239362       -60.9361 
  30   1.0000      -2.238449       -60.9113 
  31   1.0000      -2.237502       -60.8855 
  32   1.0000      -2.237364       -60.8818 
  33   1.0000      -2.237048       -60.8732 
  34   1.0000      -2.236812       -60.8667 
  35   1.0000      -2.236081       -60.8468 
  36   1.0000      -2.235403       -60.8284 
  37   1.0000      -2.234965       -60.8165 
  38   1.0000      -2.234662       -60.8082 
  39   1.0000      -2.232818       -60.7581 
  40   1.0000      -2.232292       -60.7438 
  41   1.0000      -2.231703       -60.7277 
  42   1.0000      -2.231229       -60.7148 
  43   1.0000      -2.230888       -60.7055 
  44   1.0000      -2.228954       -60.6529 
  45   1.0000      -2.228474       -60.6399 
  46   1.0000      -2.227716       -60.6192 
  47   1.0000      -2.227108       -60.6027 
  48   1.0000      -2.225794       -60.5669 
  49   1.0000      -2.225350       -60.5549 
  50   1.0000      -2.224156       -60.5224 
  51   1.0000      -2.223573       -60.5065 
  52   1.0000      -2.222916       -60.4886 
  53   1.0000      -2.222119       -60.4669 
[...]
 140( 0) :    -0.046025 a.u.    -1.252 eV
 141( 0) :    -0.026054 a.u.    -0.709 eV
 142( 0) :    -0.021904 a.u.    -0.596 eV
 143( 0) :    -0.020526 a.u.    -0.559 eV
 144( 0) :     0.008494 a.u.     0.231 eV
 145( 0) :     0.010913 a.u.     0.297 eV
 146( 0) :     0.020476 a.u.     0.557 eV
 147( 0) :     0.025302 a.u.     0.689 eV
 148( 0) :     0.035375 a.u.     0.963 eV
 149( 0) :     0.041770 a.u.     1.137 eV
 150( 0) :     0.044880 a.u.     1.221 eV
 151( 0) :     0.047469 a.u.     1.292 eV
 152( 0) :     0.048930 a.u.     1.331 eV
 153( 0) :     0.055140 a.u.     1.500 eV
 154( 0) :     0.056369 a.u.     1.534 eV
 155( 0) :     0.060133 a.u.     1.636 eV
 156( 0) :     0.061915 a.u.     1.685 eV
 157( 0) :     0.065253 a.u.     1.776 eV
 158( 0) :     0.070809 a.u.     1.927 eV
 159( 0) :     0.074733 a.u.     2.034 eV
 160( 0) :     0.087625 a.u.     2.384 eV
 161( 0) :     0.093511 a.u.     2.545 eV
 162( 0) :     0.094259 a.u.     2.565 eV
 163( 0) :     0.102786 a.u.     2.797 eV
 164( 0) :     0.111379 a.u.     3.031 eV
 165( 0) :     0.123581 a.u.     3.363 eV
 166( 0) :     0.129362 a.u.     3.520 eV
 167( 0) :     0.132490 a.u.     3.605 eV
 168( 0) :     0.136070 a.u.     3.703 eV
 169( 0) :     0.141373 a.u.     3.847 eV
 170( 0) :     0.141996 a.u.     3.864 eV
 171( 0) :     0.149981 a.u.     4.081 eV
 172( 0) :     0.157078 a.u.     4.274 eV
 173( 0) :     0.162544 a.u.     4.423 eV
 174( 0) :     0.167258 a.u.     4.551 eV
 175( 0) :     0.169731 a.u.     4.619 eV
 176( 0) :     0.170486 a.u.     4.639 eV
 177( 0) :     0.173284 a.u.     4.715 eV
 178( 0) :     0.179320 a.u.     4.880 eV
 179( 0) :     0.195464 a.u.     5.319 eV
 180( 0) :     0.205653 a.u.     5.596 eV
 181( 0) :     0.206867 a.u.     5.629 eV
 182( 0) :     0.212147 a.u.     5.773 eV
 183( 0) :     0.218961 a.u.     5.958 eV
 184( 0) :     0.226939 a.u.     6.175 eV
 185( 0) :     0.236680 a.u.     6.440 eV
 186( 0) :     0.240787 a.u.     6.552 eV
 187( 0) :     0.243217 a.u.     6.618 eV
 188( 0) :     0.243906 a.u.     6.637 eV
 189( 0) :     0.251067 a.u.     6.832 eV
 190( 0) :     0.255485 a.u.     6.952 eV
 191( 0) :     0.256984 a.u.     6.993 eV
 192( 0) :     0.261405 a.u.     7.113 eV
 193( 0) :     0.268405 a.u.     7.304 eV
 194( 0) :     0.272209 a.u.     7.407 eV
 195( 0) :     0.281804 a.u.     7.668 eV
 196( 0) :     0.284647 a.u.     7.746 eV
 197( 0) :     0.289723 a.u.     7.884 eV
 198( 0) :     0.291243 a.u.     7.925 eV
 199( 0) :     0.298373 a.u.     8.119 eV
 200( 0) :     0.305147 a.u.     8.303 eV
 201( 0) :     0.306801 a.u.     8.348 eV
 202( 0) :     0.309998 a.u.     8.435 eV
 203( 0) :     0.322358 a.u.     8.772 eV
 204( 0) :     0.322707 a.u.     8.781 eV
 205( 0) :     0.327813 a.u.     8.920 eV
 206( 0) :     0.329418 a.u.     8.964 eV
 207( 0) :     0.336241 a.u.     9.150 eV
 208( 0) :     0.340106 a.u.     9.255 eV
 209( 0) :     0.346540 a.u.     9.430 eV
 210( 0) :     0.350181 a.u.     9.529 eV
 211( 0) :     0.352396 a.u.     9.589 eV
 212( 0) :     0.356841 a.u.     9.710 eV
 213( 0) :     0.371611 a.u.    10.112 eV
 214( 0) :     0.372911 a.u.    10.147 eV
 215( 0) :     0.376547 a.u.    10.246 eV
 216( 0) :     0.381701 a.u.    10.387 eV
 217( 0) :     0.383710 a.u.    10.441 eV
 218( 0) :     0.386991 a.u.    10.531 eV
 219( 0) :     0.394331 a.u.    10.730 eV
 220( 0) :     0.398912 a.u.    10.855 eV
 221( 0) :     0.412602 a.u.    11.227 eV
 222( 0) :     0.419799 a.u.    11.423 eV
 223( 0) :     0.427654 a.u.    11.637 eV
 224( 0) :     0.433362 a.u.    11.792 eV
 225( 0) :     0.439713 a.u.    11.965 eV
 226( 0) :     0.441783 a.u.    12.022 eV
 227( 0) :     0.451052 a.u.    12.274 eV
 228( 0) :     0.451405 a.u.    12.283 eV
 229( 0) :     0.460225 a.u.    12.523 eV
 230( 0) :     0.464545 a.u.    12.641 eV
 231( 0) :     0.473370 a.u.    12.881 eV
 232( 0) :     0.473523 a.u.    12.885 eV
 233( 0) :     0.478361 a.u.    13.017 eV
 234( 0) :     0.484937 a.u.    13.196 eV
 235( 0) :     0.485341 a.u.    13.207 eV
 236( 0) :     0.492993 a.u.    13.415 eV
 237( 0) :     0.495547 a.u.    13.485 eV
 238( 0) :     0.496307 a.u.    13.505 eV
 239( 0) :     0.507517 a.u.    13.810 eV
 240( 0) :     0.508343 a.u.    13.833 eV
 241( 0) :     0.512185 a.u.    13.937 eV
 242( 0) :     0.516106 a.u.    14.044 eV
 243( 0) :     0.517093 a.u.    14.071 eV
 244( 0) :     0.523125 a.u.    14.235 eV
 245( 0) :     0.530566 a.u.    14.437 eV
 246( 0) :     0.531011 a.u.    14.450 eV
 247( 0) :     0.536414 a.u.    14.597 eV
 248( 0) :     0.541511 a.u.    14.735 eV
 249( 0) :     0.552146 a.u.    15.025 eV
 250( 0) :     0.563047 a.u.    15.321 eV
 251( 0) :     0.624507 a.u.    16.994 eV
 252( 0) :     0.649923 a.u.    17.685 eV
 253( 0) :     0.661961 a.u.    18.013 eV
 254( 0) :     0.677197 a.u.    18.427 eV
 255( 0) :     0.678028 a.u.    18.450 eV
 256( 0) :     0.699172 a.u.    19.025 eV
 257( 0) :     0.700663 a.u.    19.066 eV
 258( 0) :     0.707553 a.u.    19.253 eV
 259( 0) :     0.719974 a.u.    19.591 eV
 260( 0) :     0.730047 a.u.    19.866 eV
 261( 0) :     0.732412 a.u.    19.930 eV
 262( 0) :     0.737119 a.u.    20.058 eV
 263( 0) :     0.742373 a.u.    20.201 eV
 264( 0) :     0.746435 a.u.    20.312 eV
 265( 0) :     0.751494 a.u.    20.449 eV
 266( 0) :     0.762337 a.u.    20.744 eV
 267( 0) :     0.773520 a.u.    21.049 eV
 268( 0) :     0.778646 a.u.    21.188 eV
 269( 0) :     0.781274 a.u.    21.260 eV
 270( 0) :     0.796798 a.u.    21.682 eV
 271( 0) :     0.800022 a.u.    21.770 eV
 272( 0) :     0.801907 a.u.    21.821 eV
 273( 0) :     0.811831 a.u.    22.091 eV
 274( 0) :     0.833297 a.u.    22.675 eV
 275( 0) :     0.843083 a.u.    22.941 eV
 276( 0) :     0.845335 a.u.    23.003 eV
 277( 0) :     0.846715 a.u.    23.040 eV
 278( 0) :     0.863119 a.u.    23.487 eV
 279( 0) :     0.870660 a.u.    23.692 eV
 280( 0) :     0.880977 a.u.    23.973 eV
 281( 0) :     0.895651 a.u.    24.372 eV
 282( 0) :     0.900050 a.u.    24.492 eV
 283( 0) :     0.945717 a.u.    25.734 eV
 284( 0) :     0.965932 a.u.    26.284 eV
 285( 0) :     0.999157 a.u.    27.188 eV
 286( 0) :     1.001310 a.u.    27.247 eV
 287( 0) :     1.022470 a.u.    27.823 eV
 288( 0) :     1.076326 a.u.    29.288 eV
 289( 0) :     1.146751 a.u.    31.205 eV
 290( 0) :     1.178105 a.u.    32.058 eV
 291( 0) :     1.205415 a.u.    32.801 eV
 292( 0) :     1.218312 a.u.    33.152 eV
 293( 0) :     1.233296 a.u.    33.560 eV
 294( 0) :     1.244109 a.u.    33.854 eV
 295( 0) :     1.258186 a.u.    34.237 eV
 296( 0) :     1.266558 a.u.    34.465 eV
 297( 0) :     1.267094 a.u.    34.479 eV
 298( 0) :     1.276823 a.u.    34.744 eV
 299( 0) :     1.282028 a.u.    34.886 eV
 300( 0) :     1.295477 a.u.    35.252 eV
 301( 0) :     1.298687 a.u.    35.339 eV
 302( 0) :     1.318146 a.u.    35.869 eV
 303( 0) :     1.328928 a.u.    36.162 eV
 304( 0) :     1.339803 a.u.    36.458 eV
 305( 0) :     1.343586 a.u.    36.561 eV
 306( 0) :     1.354733 a.u.    36.864 eV
 307( 0) :     1.365177 a.u.    37.148 eV
 308( 0) :     1.373326 a.u.    37.370 eV
 309( 0) :     1.376916 a.u.    37.468 eV
 310( 0) :     1.388890 a.u.    37.794 eV
 311( 0) :     1.397892 a.u.    38.039 eV
 312( 0) :     1.399563 a.u.    38.084 eV
 313( 0) :     1.400659 a.u.    38.114 eV
 314( 0) :     1.401686 a.u.    38.142 eV
 315( 0) :     1.409468 a.u.    38.354 eV
 316( 0) :     1.415187 a.u.    38.509 eV
 317( 0) :     1.417552 a.u.    38.574 eV
 318( 0) :     1.424333 a.u.    38.758 eV
 319( 0) :     1.428424 a.u.    38.869 eV
 320( 0) :     1.433106 a.u.    38.997 eV
 321( 0) :     1.439146 a.u.    39.161 eV
 322( 0) :     1.444054 a.u.    39.295 eV
 323( 0) :     1.444757 a.u.    39.314 eV
 324( 0) :     1.446213 a.u.    39.353 eV
 325( 0) :     1.450089 a.u.    39.459 eV
 326( 0) :     1.456227 a.u.    39.626 eV
 327( 0) :     1.456983 a.u.    39.647 eV
 328( 0) :     1.463393 a.u.    39.821 eV
 329( 0) :     1.465602 a.u.    39.881 eV
 330( 0) :     1.468262 a.u.    39.953 eV
 331( 0) :     1.469458 a.u.    39.986 eV
 332( 0) :     1.472611 a.u.    40.072 eV
 333( 0) :     1.477026 a.u.    40.192 eV
 334( 0) :     1.477655 a.u.    40.209 eV
 335( 0) :     1.481417 a.u.    40.311 eV
 336( 0) :     1.483287 a.u.    40.362 eV
 337( 0) :     1.483507 a.u.    40.368 eV
 338( 0) :     1.484521 a.u.    40.396 eV
 339( 0) :     1.489903 a.u.    40.542 eV
 340( 0) :     1.491162 a.u.    40.577 eV
 341( 0) :     1.491637 a.u.    40.589 eV
 342( 0) :     1.493379 a.u.    40.637 eV
 343( 0) :     1.495556 a.u.    40.696 eV
 344( 0) :     1.497619 a.u.    40.752 eV
 345( 0) :     1.498216 a.u.    40.769 eV
 346( 0) :     1.500717 a.u.    40.837 eV
 347( 0) :     1.501175 a.u.    40.849 eV
 348( 0) :     1.504421 a.u.    40.937 eV
 349( 0) :     1.505913 a.u.    40.978 eV
 350( 0) :     1.507405 a.u.    41.019 eV
 351( 0) :     1.508288 a.u.    41.043 eV
 352( 0) :     1.509299 a.u.    41.070 eV
 353( 0) :     1.509932 a.u.    41.087 eV
 354( 0) :     1.511491 a.u.    41.130 eV
 355( 0) :     1.514872 a.u.    41.222 eV
 356( 0) :     1.516035 a.u.    41.253 eV
 357( 0) :     1.516254 a.u.    41.259 eV
 358( 0) :     1.517584 a.u.    41.296 eV
 359( 0) :     1.521054 a.u.    41.390 eV
 360( 0) :     1.523119 a.u.    41.446 eV
 361( 0) :     1.525214 a.u.    41.503 eV
 362( 0) :     1.527014 a.u.    41.552 eV
 363( 0) :     1.528272 a.u.    41.586 eV
 364( 0) :     1.530280 a.u.    41.641 eV
 365( 0) :     1.531214 a.u.    41.666 eV
 366( 0) :     1.533836 a.u.    41.738 eV
 367( 0) :     1.537292 a.u.    41.832 eV
 368( 0) :     1.539093 a.u.    41.881 eV
 369( 0) :     1.544081 a.u.    42.017 eV
 370( 0) :     1.544979 a.u.    42.041 eV
 371( 0) :     1.547900 a.u.    42.120 eV
 372( 0) :     1.548413 a.u.    42.134 eV
 373( 0) :     1.552560 a.u.    42.247 eV
 374( 0) :     1.556718 a.u.    42.360 eV
 375( 0) :     1.559238 a.u.    42.429 eV
 376( 0) :     1.559516 a.u.    42.437 eV
 377( 0) :     1.563333 a.u.    42.540 eV
 378( 0) :     1.566106 a.u.    42.616 eV
 379( 0) :     1.566848 a.u.    42.636 eV
 380( 0) :     1.568311 a.u.    42.676 eV
 381( 0) :     1.569696 a.u.    42.714 eV
 382( 0) :     1.573765 a.u.    42.824 eV
 383( 0) :     1.575871 a.u.    42.882 eV
 384( 0) :     1.578244 a.u.    42.946 eV
 385( 0) :     1.580668 a.u.    43.012 eV
 386( 0) :     1.582461 a.u.    43.061 eV
 387( 0) :     1.585406 a.u.    43.141 eV
 388( 0) :     1.586404 a.u.    43.168 eV
 389( 0) :     1.587457 a.u.    43.197 eV
 390( 0) :     1.593513 a.u.    43.362 eV
 391( 0) :     1.598183 a.u.    43.489 eV
 392( 0) :     1.600728 a.u.    43.558 eV
 393( 0) :     1.605119 a.u.    43.678 eV
 394( 0) :     1.606441 a.u.    43.713 eV
 395( 0) :     1.610331 a.u.    43.819 eV
 396( 0) :     1.610618 a.u.    43.827 eV
 397( 0) :     1.613505 a.u.    43.906 eV
 398( 0) :     1.615312 a.u.    43.955 eV
 399( 0) :     1.619078 a.u.    44.057 eV
 400( 0) :     1.620275 a.u.    44.090 eV
 401( 0) :     1.623868 a.u.    44.188 eV
 402( 0) :     1.629270 a.u.    44.335 eV
 403( 0) :     1.637307 a.u.    44.553 eV
 404( 0) :     1.638644 a.u.    44.590 eV
 405( 0) :     1.642376 a.u.    44.691 eV
 406( 0) :     1.649187 a.u.    44.877 eV
 407( 0) :     1.656422 a.u.    45.074 eV
 408( 0) :     1.662300 a.u.    45.233 eV
 409( 0) :     1.666960 a.u.    45.360 eV
 410( 0) :     1.690996 a.u.    46.014 eV
 411( 0) :     1.702765 a.u.    46.335 eV
 412( 0) :     1.713462 a.u.    46.626 eV
 413( 0) :     1.721185 a.u.    46.836 eV
 414( 0) :     1.732529 a.u.    47.145 eV
 415( 0) :     1.733402 a.u.    47.168 eV
 416( 0) :     1.754046 a.u.    47.730 eV
 417( 0) :     1.765168 a.u.    48.033 eV
 418( 0) :     1.768203 a.u.    48.115 eV
 419( 0) :     1.770983 a.u.    48.191 eV
 420( 0) :     1.776675 a.u.    48.346 eV
 421( 0) :     1.783813 a.u.    48.540 eV
 422( 0) :     1.785139 a.u.    48.576 eV
 423( 0) :     1.798233 a.u.    48.932 eV
 424( 0) :     1.819648 a.u.    49.515 eV
 425( 0) :     1.824864 a.u.    49.657 eV
 426( 0) :     1.832612 a.u.    49.868 eV
 427( 0) :     1.846735 a.u.    50.252 eV
 428( 0) :     1.851561 a.u.    50.384 eV
 429( 0) :     1.870864 a.u.    50.909 eV
 430( 0) :     1.876062 a.u.    51.050 eV
 431( 0) :     1.883549 a.u.    51.254 eV
 432( 0) :     1.926453 a.u.    52.421 eV
 433( 0) :     1.940590 a.u.    52.806 eV
 434( 0) :     1.976722 a.u.    53.789 eV
 435( 0) :     1.999410 a.u.    54.407 eV
 436( 0) :     2.091394 a.u.    56.910 eV
 437( 0) :     2.166297 a.u.    58.948 eV
 438( 0) :     2.243625 a.u.    61.052 eV
 439( 0) :     2.276799 a.u.    61.955 eV
 440( 0) :     2.298034 a.u.    62.533 eV
 441( 0) :     2.321548 a.u.    63.173 eV
 442( 0) :     2.375792 a.u.    64.649 eV
 443( 0) :     2.387291 a.u.    64.961 eV
 444( 0) :     2.397533 a.u.    65.240 eV
 445( 0) :     2.437027 a.u.    66.315 eV
 446( 0) :     2.460395 a.u.    66.951 eV
 447( 0) :     2.464645 a.u.    67.066 eV
 448( 0) :     2.501699 a.u.    68.075 eV
 449( 0) :     2.511210 a.u.    68.333 eV
 450( 0) :     2.521043 a.u.    68.601 eV
 451( 0) :     2.527220 a.u.    68.769 eV
 452( 0) :     3.425374 a.u.    93.209 eV
 453( 0) :     3.502516 a.u.    95.308 eV
 454( 0) :     3.572552 a.u.    97.214 eV
 455( 0) :     3.719973 a.u.   101.226 eV
 456( 0) :     3.785655 a.u.   103.013 eV
 457( 0) :     3.803113 a.u.   103.488 eV
 458( 0) :     3.903641 a.u.   106.223 eV
 459( 0) :     3.909477 a.u.   106.382 eV
 460( 0) :     3.915984 a.u.   106.559 eV
 461( 0) :     3.924604 a.u.   106.794 eV
 462( 0) :     3.925581 a.u.   106.820 eV
 463( 0) :     3.935327 a.u.   107.086 eV
 464( 0) :     3.940670 a.u.   107.231 eV
 465( 0) :    23.611073 a.u.   642.490 eV
 466( 0) :    23.646956 a.u.   643.466 eV
 467( 0) :    23.890585 a.u.   650.096 eV
 468( 0) :    24.128252 a.u.   656.563 eV
 469( 0) :    24.501423 a.u.   666.718 eV
 470( 0) :    24.523974 a.u.   667.331 eV
 471( 0) :    24.753132 a.u.   673.567 eV
 472( 0) :    25.147860 a.u.   684.308 eV
 473( 0) :    25.259638 a.u.   687.350 eV
 474( 0) :    25.288028 a.u.   688.122 eV
 475( 0) :    25.377250 a.u.   690.550 eV
 476( 0) :    25.540222 a.u.   694.985 eV
 477( 0) :    25.784097 a.u.   701.621 eV
 478( 0) :    25.894656 a.u.   704.629 eV
 479( 0) :    25.946329 a.u.   706.036 eV
 480( 0) :    26.037552 a.u.   708.518 eV
 481( 0) :    26.100311 a.u.   710.226 eV
 482( 0) :    26.184490 a.u.   712.516 eV
 483( 0) :    26.203801 a.u.   713.042 eV
 484( 0) :    26.351145 a.u.   717.051 eV
 485( 0) :    26.400145 a.u.   718.384 eV
 486( 0) :    26.536264 a.u.   722.088 eV
 487( 0) :    26.664884 a.u.   725.588 eV
 488( 0) :    26.694064 a.u.   726.382 eV
 489( 0) :    26.716315 a.u.   726.988 eV
 490( 0) :    26.798876 a.u.   729.234 eV
 491( 0) :    26.909932 a.u.   732.256 eV
 492( 0) :    27.004539 a.u.   734.831 eV
 493( 0) :    27.208402 a.u.   740.378 eV
 494( 0) :    27.510383 a.u.   748.596 eV
 495( 0) :    27.600456 a.u.   751.047 eV
 496( 0) :    27.960672 a.u.   760.849 eV
 497( 0) :    28.854811 a.u.   785.179 eV
 498( 0) :    30.246134 a.u.   823.039 eV
 499( 0) :    30.451421 a.u.   828.625 eV
 500( 0) :    30.928726 a.u.   841.613 eV
 501( 0) :    43.888658 a.u.  1194.271 eV
 502( 0) :    43.986293 a.u.  1196.928 eV
 503( 0) :    44.013395 a.u.  1197.665 eV
 504( 0) :    44.020919 a.u.  1197.870 eV
 505( 0) :    44.072501 a.u.  1199.274 eV
 506( 0) :    44.107740 a.u.  1200.233 eV
 507( 0) :    44.124394 a.u.  1200.686 eV
 508( 0) :    44.131641 a.u.  1200.883 eV
 509( 0) :    44.149748 a.u.  1201.376 eV
 510( 0) :    44.161994 a.u.  1201.709 eV
 511( 0) :    44.230263 a.u.  1203.567 eV
 512( 0) :    44.233957 a.u.  1203.667 eV
 513( 0) :   205.085044 a.u.  5580.648 eV
 514( 0) :   205.129690 a.u.  5581.863 eV
 515( 0) :   205.138269 a.u.  5582.096 eV
 516( 0) :   205.140951 a.u.  5582.169 eV
 517( 0) :   205.166703 a.u.  5582.870 eV
 518( 0) :   205.178461 a.u.  5583.190 eV
 519( 0) :   205.185074 a.u.  5583.370 eV
 520( 0) :   205.192375 a.u.  5583.568 eV
 521( 0) :   205.193660 a.u.  5583.603 eV
 522( 0) :   205.199556 a.u.  5583.764 eV
 523( 0) :   205.226504 a.u.  5584.497 eV
 524( 0) :   205.231920 a.u.  5584.644 eV
-------
TIMINGS
-------

Total SCF time: 0 days 0 hours 0 min 32 sec 

Total time                  ....      32.585 sec
Sum of individual times     ....      30.502 sec  ( 93.6%)

Fock matrix formation       ....      22.500 sec  ( 69.1%)
  Split-RI-J                ....       7.185 sec  ( 31.9% of F)
  XC integration            ....      14.725 sec  ( 65.4% of F)
    Basis function eval.    ....       2.002 sec  ( 13.6% of XC)
    Density eval.           ....       7.287 sec  ( 49.5% of XC)
    XC-Functional eval.     ....       0.216 sec  (  1.5% of XC)
    XC-Potential eval.      ....       3.127 sec  ( 21.2% of XC)
Diagonalization             ....       3.731 sec  ( 11.5%)
Density matrix formation    ....       0.142 sec  (  0.4%)
Population analysis         ....       2.231 sec  (  6.8%)
Initial guess               ....       0.302 sec  (  0.9%)
Orbital Transformation      ....       0.183 sec  (  0.6%)
Orbital Orthonormalization  ....       0.266 sec  (  0.8%)
DIIS solution               ....       0.000 sec  (  0.0%)
Grid generation             ....       1.396 sec  (  4.3%)

Maximum memory used throughout the entire SCF-calculation: 83.1 MB

-------------------------   --------------------
FINAL SINGLE POINT ENERGY     -2893.386518129847
-------------------------   --------------------

                                *** OPTIMIZATION RUN DONE ***

                            ***************************************
                            *     ORCA property calculations      *
                            ***************************************

                                    ---------------------
                                    Active property flags
                                    ---------------------
   (+) Dipole Moment


------------------------------------------------------------------------------
                       ORCA ELECTRIC PROPERTIES CALCULATION
------------------------------------------------------------------------------

Dipole Moment Calculation                       ... on
Quadrupole Moment Calculation                   ... off
Polarizability Calculation                      ... off
GBWName                                         ... pbe.gbw
Electron density                                ... pbe.scfp
The origin for moment calculation is the CENTER OF MASS  = (16.936653, 13.339124 15.847120)

-------------
DIPOLE MOMENT
-------------
                                X             Y             Z
Electronic contribution:     -2.14921     -11.23511      -0.79658
Nuclear contribution   :      2.20336      11.16792       0.83097
                        -----------------------------------------
Total Dipole Moment    :      0.05415      -0.06719       0.03439
                        -----------------------------------------
Magnitude (a.u.)       :      0.09290
Magnitude (Debye)      :      0.23613



--------------------
Rotational spectrum 
--------------------
 
Rotational constants in cm-1:     0.001699     0.001260     0.001140 
Rotational constants in MHz :    50.940282    37.778322    34.186589 

 Dipole components along the rotational axes: 
x,y,z [a.u.] :     0.001533     0.092830     0.003198 
x,y,z [Debye]:     0.003898     0.235954     0.008129 

 

Timings for individual modules:

Sum of individual times         ...     2136.995 sec (=  35.617 min)
GTO integral calculation        ...      183.248 sec (=   3.054 min)   8.6 %
SCF iterations                  ...     1008.831 sec (=  16.814 min)  47.2 %
SCF Gradient evaluation         ...      938.574 sec (=  15.643 min)  43.9 %
Geometry relaxation             ...        6.341 sec (=   0.106 min)   0.3 %
                             ****ORCA TERMINATED NORMALLY****
TOTAL RUN TIME: 0 days 0 hours 35 minutes 42 seconds 424 msec
