
                                 *****************
                                 * O   R   C   A *
                                 *****************

                                            #,                                       
                                            ###                                      
                                            ####                                     
                                            #####                                    
                                            ######                                   
                                           ########,                                 
                                     ,,################,,,,,                         
                               ,,#################################,,                 
                          ,,##########################################,,             
                       ,#########################################, ''#####,          
                    ,#############################################,,   '####,        
                  ,##################################################,,,,####,       
                ,###########''''           ''''###############################       
              ,#####''   ,,,,##########,,,,          '''####'''          '####       
            ,##' ,,,,###########################,,,                        '##       
           ' ,,###''''                  '''############,,,                           
         ,,##''                                '''############,,,,        ,,,,,,###''
      ,#''                                            '''#######################'''  
     '                                                          ''''####''''         
             ,#######,   #######,   ,#######,      ##                                
            ,#'     '#,  ##    ##  ,#'     '#,    #''#        ######   ,####,        
            ##       ##  ##   ,#'  ##            #'  '#       #        #'  '#        
            ##       ##  #######   ##           ,######,      #####,   #    #        
            '#,     ,#'  ##    ##  '#,     ,#' ,#      #,         ##   #,  ,#        
             '#######'   ##     ##  '#######'  #'      '#     #####' # '####'        



                  #######################################################
                  #                        -***-                        #
                  #          Department of theory and spectroscopy      #
                  #    Directorship and core code : Frank Neese         #
                  #        Max Planck Institute fuer Kohlenforschung    #
                  #                Kaiser Wilhelm Platz 1               #
                  #                 D-45470 Muelheim/Ruhr               #
                  #                      Germany                        #
                  #                                                     #
                  #                  All rights reserved                #
                  #                        -***-                        #
                  #######################################################


                         Program Version 5.0.3 -  RELEASE  -


 With contributions from (in alphabetic order):
   Daniel Aravena         : Magnetic Suceptibility
   Michael Atanasov       : Ab Initio Ligand Field Theory (pilot matlab implementation)
   Alexander A. Auer      : GIAO ZORA, VPT2 properties, NMR spectrum
   Ute Becker             : Parallelization
   Giovanni Bistoni       : ED, misc. LED, open-shell LED, HFLD
   Martin Brehm           : Molecular dynamics
   Dmytro Bykov           : SCF Hessian
   Vijay G. Chilkuri      : MRCI spin determinant printing, contributions to CSF-ICE
   Dipayan Datta          : RHF DLPNO-CCSD density
   Achintya Kumar Dutta   : EOM-CC, STEOM-CC
   Dmitry Ganyushin       : Spin-Orbit,Spin-Spin,Magnetic field MRCI
   Miquel Garcia          : C-PCM and meta-GGA Hessian, CC/C-PCM, Gaussian charge scheme
   Yang Guo               : DLPNO-NEVPT2, F12-NEVPT2, CIM, IAO-localization
   Andreas Hansen         : Spin unrestricted coupled pair/coupled cluster methods
   Benjamin Helmich-Paris : MC-RPA, TRAH-SCF, COSX integrals
   Lee Huntington         : MR-EOM, pCC
   Robert Izsak           : Overlap fitted RIJCOSX, COSX-SCS-MP3, EOM
   Marcus Kettner         : VPT2
   Christian Kollmar      : KDIIS, OOCD, Brueckner-CCSD(T), CCSD density, CASPT2, CASPT2-K
   Simone Kossmann        : Meta GGA functionals, TD-DFT gradient, OOMP2, MP2 Hessian
   Martin Krupicka        : Initial AUTO-CI
   Lucas Lang             : DCDCAS
   Marvin Lechner         : AUTO-CI (C++ implementation), FIC-MRCC
   Dagmar Lenk            : GEPOL surface, SMD
   Dimitrios Liakos       : Extrapolation schemes; Compound Job, initial MDCI parallelization
   Dimitrios Manganas     : Further ROCIS development; embedding schemes
   Dimitrios Pantazis     : SARC Basis sets
   Anastasios Papadopoulos: AUTO-CI, single reference methods and gradients
   Taras Petrenko         : DFT Hessian,TD-DFT gradient, ASA, ECA, R-Raman, ABS, FL, XAS/XES, NRVS
   Peter Pinski           : DLPNO-MP2, DLPNO-MP2 Gradient
   Christoph Reimann      : Effective Core Potentials
   Marius Retegan         : Local ZFS, SOC
   Christoph Riplinger    : Optimizer, TS searches, QM/MM, DLPNO-CCSD(T), (RO)-DLPNO pert. Triples
   Tobias Risthaus        : Range-separated hybrids, TD-DFT gradient, RPA, STAB
   Michael Roemelt        : Original ROCIS implementation
   Masaaki Saitow         : Open-shell DLPNO-CCSD energy and density
   Barbara Sandhoefer     : DKH picture change effects
   Avijit Sen             : IP-ROCIS
   Kantharuban Sivalingam : CASSCF convergence, NEVPT2, FIC-MRCI
   Bernardo de Souza      : ESD, SOC TD-DFT
   Georgi Stoychev        : AutoAux, RI-MP2 NMR, DLPNO-MP2 response
   Willem Van den Heuvel  : Paramagnetic NMR
   Boris Wezisla          : Elementary symmetry handling
   Frank Wennmohs         : Technical directorship


 We gratefully acknowledge several colleagues who have allowed us to
 interface, adapt or use parts of their codes:
   Stefan Grimme, W. Hujo, H. Kruse, P. Pracht,  : VdW corrections, initial TS optimization,
                  C. Bannwarth, S. Ehlert          DFT functionals, gCP, sTDA/sTD-DF
   Ed Valeev, F. Pavosevic, A. Kumar             : LibInt (2-el integral package), F12 methods
   Garnet Chan, S. Sharma, J. Yang, R. Olivares  : DMRG
   Ulf Ekstrom                                   : XCFun DFT Library
   Mihaly Kallay                                 : mrcc  (arbitrary order and MRCC methods)
   Jiri Pittner, Ondrej Demel                    : Mk-CCSD
   Frank Weinhold                                : gennbo (NPA and NBO analysis)
   Christopher J. Cramer and Donald G. Truhlar   : smd solvation model
   Lars Goerigk                                  : TD-DFT with DH, B97 family of functionals
   V. Asgeirsson, H. Jonsson                     : NEB implementation
   FAccTs GmbH                                   : IRC, NEB, NEB-TS, DLPNO-Multilevel, CI-OPT
                                                   MM, QMMM, 2- and 3-layer-ONIOM, Crystal-QMMM,
                                                   LR-CPCM, SF, NACMEs, symmetry and pop. for TD-DFT,
                                                   nearIR, NL-DFT gradient (VV10), updates on ESD,
                                                   ML-optimized integration grids
   S Lehtola, MJT Oliveira, MAL Marques          : LibXC Library
   Liviu Ungur et al                             : ANISO software


 Your calculation uses the libint2 library for the computation of 2-el integrals
 For citations please refer to: http://libint.valeyev.net

 Your ORCA version has been built with support for libXC version: 5.1.0
 For citations please refer to: https://tddft.org/programs/libxc/

 This ORCA versions uses:
   CBLAS   interface :  Fast vector & matrix operations
   LAPACKE interface :  Fast linear algebra routines
   SCALAPACK package :  Parallel linear algebra routines
   Shared memory     :  Shared parallel matrices
   BLAS/LAPACK       :  OpenBLAS 0.3.15  USE64BITINT DYNAMIC_ARCH NO_AFFINITY Haswell SINGLE_THREADED
        Core in use  :  Haswell
   Copyright (c) 2011-2014, The OpenBLAS Project




***************************************
The coordinates will be read from file: pbe.xyz
***************************************


================================================================================

cite the ECPs for Au [Def2-ECP] as follows:
Ce-Yb(ecp-28): M. Dolg, H. Stoll, H.Preuss, J. Chem. Phys., 1989, 90, 1730-1734.
Y-Cd(ecp-28), Hf-Hg(ecp-46): D. Andrae,U. Haeussermann, M. Dolg, H. Stoll, H. Preuss, Theor. Chim. Acta, 1990, 77, 123-141.
In-Sb(ecp-28), Tl-Bi(ecp-46): B. Metz, H. Stoll, M. Dolg, J. Chem. Phys., 2000, 113, 2563-2569.
Te-Xe(ecp-28), Po-Rn(ecp-46): K. A. Peterson, D. Figgen, E. Goll, H. Stoll, M. Dolg, J. Chem. Phys., 2003, 119, 11113-11123.
Rb(ecp-28), Cs(ecp-46): T. Leininger, A. Nicklass, W. Kuechle, H. Stoll, M. Dolg, A. Bergner, Chem. Phys. Lett., 1996, 255, 274-280.
Sr(ecp-28), Ba(ecp-46): M. Kaupp, P. V. Schleyer, H. Stoll and H. Preuss, J. Chem. Phys., 1991, 94, 1360-1366.
La(ecp-46): M. Dolg, H. Stoll, A. Savin, H. Preuss, Theor. Chim. Acta, 1989, 75, 173-194.
Lu(ecp-28): X. Cao, M. Dolg, J. Chem. Phys., 2001, 115, 7348-7355.

ECP parameters for Au [Def2-ECP] have been obtained from:
TURBOMOLE (7.0.2)

----- Orbital basis set information -----
Your calculation utilizes the basis: def2-TZVP
   F. Weigend and R. Ahlrichs, Phys. Chem. Chem. Phys. 7, 3297 (2005).

----- AuxJ basis set information -----
Your calculation utilizes the auxiliary basis: def2/J
   F. Weigend, Phys. Chem. Chem. Phys. 8, 1057 (2006).

----- AuxC basis set information -----
Your calculation utilizes the auxiliary basis: def2-TZVP/C
  H-La, Hf-Rn : A. Hellweg, C. Hattig, S. Hofener and W. Klopper, Theor. Chem. Acc. 117, 587 (2007).
        Ce-Lu : J. Chmela and M. E. Harding, Mol. Phys. (2018).

================================================================================
                                        WARNINGS
                       Please study these warnings very carefully!
================================================================================


INFO   : the flag for use of the SHARK integral package has been found!

================================================================================
                                       INPUT FILE
================================================================================
NAME = casscf.inp
|  1> !CASSCF def2-TZVP def2-TZVP/C
|  2> !MOREAD RIJCOSX
|  3> %maxcore 6000
|  4> %moinp "pbe.qro"
|  5> %pal nprocs 2 end 
|  6> 
|  7> %casscf
|  8>  mult 5,3
|  9>  bweight 1,1
| 10>  nroots 5,45
| 11>  nel 6
| 12>  norb 5
| 13> end
| 14> 
| 15> 
| 16> *xyzfile 0 5 pbe.xyz
| 17> 
| 18> 
| 19>                          ****END OF INPUT****
================================================================================

                       ****************************
                       * Single Point Calculation *
                       ****************************

---------------------------------
CARTESIAN COORDINATES (ANGSTROEM)
---------------------------------
  Au    10.903102    5.430103    8.984597
  Au    10.114515    4.555455    6.441033
  Au     8.959549    3.418794    8.801176
  Au     9.681038    7.740477    9.497642
  Au     8.250496    6.331010    5.328916
  Au     7.703366    9.624382    9.439648
  Au     7.888660    8.349704    7.029397
  Au     6.393741    4.503344    9.122401
  Au     6.632525    7.114976    9.591009
  Au     7.316866    3.973584    6.527665
  Cr     8.412237    5.957169    8.019264

----------------------------
CARTESIAN COORDINATES (A.U.)
----------------------------
  NO LB      ZA    FRAG     MASS         X           Y           Z
   0 Au   19.0000*   0   196.966   20.603876   10.261407   16.978427
   1 Au   19.0000*   0   196.966   19.113664    8.608562   12.171788
   2 Au   19.0000*   0   196.966   16.931093    6.460584   16.631812
   3 Au   19.0000*   0   196.966   18.294511   14.627382   17.947942
   4 Au   19.0000*   0   196.966   15.591178   11.963874   10.070193
   5 Au   19.0000*   0   196.966   14.557252   18.187446   17.838350
   6 Au   19.0000*   0   196.966   14.907407   15.778655   13.283636
   7 Au   19.0000*   0   196.966   12.082420    8.510088   17.238840
   8 Au   19.0000*   0   196.966   12.533656   13.445356   18.124380
   9 Au   19.0000*   0   196.966   13.826872    7.508986   12.335500
  10 Cr   24.0000    0    52.000   15.896824   11.257418   15.154213
* core charge reduced due to ECP

--------------------------------
INTERNAL COORDINATES (ANGSTROEM)
--------------------------------
 Au     0   0   0     0.000000000000     0.00000000     0.00000000
 Au     1   0   0     2.802961628461     0.00000000     0.00000000
 Au     1   2   0     2.802927849126    61.42037654     0.00000000
 Au     1   2   3     2.663547214268   108.44404474   258.53781779
 Au     2   1   3     2.804276481572   110.44527196    99.41363821
 Au     4   1   2     2.731967518347   157.84813261    32.76846337
 Au     5   2   1     2.664148856724   108.47617370     2.03629339
 Au     3   1   2     2.804069076880   110.45335575   260.60028187
 Au     8   3   1     2.664062623353   108.49973127   357.98773767
 Au     8   3   1     2.804542637365    61.29945781    99.50174661
 Cr     4   1   2     2.641144533766    61.76559877    32.59592927

---------------------------
INTERNAL COORDINATES (A.U.)
---------------------------
 Au     0   0   0     0.000000000000     0.00000000     0.00000000
 Au     1   0   0     5.296829841682     0.00000000     0.00000000
 Au     1   2   0     5.296766007990    61.42037654     0.00000000
 Au     1   2   3     5.033374779735   108.44404474   258.53781779
 Au     2   1   3     5.299314553968   110.44527196    99.41363821
 Au     4   1   2     5.162670416444   157.84813261    32.76846337
 Au     5   2   1     5.034511719209   108.47617370     2.03629339
 Au     3   1   2     5.298922615901   110.45335575   260.60028187
 Au     8   3   1     5.034348761754   108.49973127   357.98773767
 Au     8   3   1     5.299817515525    61.29945781    99.50174661
 Cr     4   1   2     4.991039848922    61.76559877    32.59592927

---------------------
BASIS SET INFORMATION
---------------------
There are 2 groups of distinct atoms

 Group   1 Type Au  : 8s7p6d1f contracted to 6s4p3d1f pattern {311111/4111/411/1}
 Group   2 Type Cr  : 17s11p7d1f contracted to 6s4p4d1f pattern {842111/6311/4111/1}

Atom   0Au   basis set group =>   1
Atom   1Au   basis set group =>   1
Atom   2Au   basis set group =>   1
Atom   3Au   basis set group =>   1
Atom   4Au   basis set group =>   1
Atom   5Au   basis set group =>   1
Atom   6Au   basis set group =>   1
Atom   7Au   basis set group =>   1
Atom   8Au   basis set group =>   1
Atom   9Au   basis set group =>   1
Atom  10Cr   basis set group =>   2
---------------------------------
AUXILIARY/J BASIS SET INFORMATION
---------------------------------
There are 2 groups of distinct atoms

 Group   1 Type Au  : 11s5p5d3f3g contracted to 8s5p5d2f3g pattern {41111111/11111/11111/21/111}
 Group   2 Type Cr  : 19s5p5d3f3g contracted to 8s5p5d2f3g pattern {121111111/11111/11111/21/111}

Atom   0Au   basis set group =>   1
Atom   1Au   basis set group =>   1
Atom   2Au   basis set group =>   1
Atom   3Au   basis set group =>   1
Atom   4Au   basis set group =>   1
Atom   5Au   basis set group =>   1
Atom   6Au   basis set group =>   1
Atom   7Au   basis set group =>   1
Atom   8Au   basis set group =>   1
Atom   9Au   basis set group =>   1
Atom  10Cr   basis set group =>   2
---------------------------------
AUXILIARY/C BASIS SET INFORMATION
---------------------------------
There are 2 groups of distinct atoms

 Group   1 Type Au  : 8s8p7d5f3g2h contracted to 8s8p7d5f3g2h pattern {11111111/11111111/1111111/11111/111/11}
 Group   2 Type Cr  : 11s9p8d6f5g2h contracted to 9s8p8d6f5g2h pattern {311111111/21111111/11111111/111111/11111/11}

Atom   0Au   basis set group =>   1
Atom   1Au   basis set group =>   1
Atom   2Au   basis set group =>   1
Atom   3Au   basis set group =>   1
Atom   4Au   basis set group =>   1
Atom   5Au   basis set group =>   1
Atom   6Au   basis set group =>   1
Atom   7Au   basis set group =>   1
Atom   8Au   basis set group =>   1
Atom   9Au   basis set group =>   1
Atom  10Cr   basis set group =>   2
-------------------------
ECP PARAMETER INFORMATION
-------------------------

 Group 1, Type Au ECP Def2-ECP (replacing 60 core electrons, lmax=3)

Atom   0Au   ECP group =>   1
Atom   1Au   ECP group =>   1
Atom   2Au   ECP group =>   1
Atom   3Au   ECP group =>   1
Atom   4Au   ECP group =>   1
Atom   5Au   ECP group =>   1
Atom   6Au   ECP group =>   1
Atom   7Au   ECP group =>   1
Atom   8Au   ECP group =>   1
Atom   9Au   ECP group =>   1



           ************************************************************
           *        Program running with 2 parallel MPI-processes     *
           *              working on a common directory               *
           ************************************************************
------------------------------------------------------------------------------
                           ORCA GTO INTEGRAL CALCULATION
                           -- RI-GTO INTEGRALS CHOSEN --
------------------------------------------------------------------------------
------------------------------------------------------------------------------
                   ___                                                        
                  /   \      - P O W E R E D   B Y -                         
                 /     \                                                     
                 |  |  |   _    _      __       _____    __    __             
                 |  |  |  | |  | |    /  \     |  _  \  |  |  /  |          
                  \  \/   | |  | |   /    \    | | | |  |  | /  /          
                 / \  \   | |__| |  /  /\  \   | |_| |  |  |/  /          
                |  |  |   |  __  | /  /__\  \  |    /   |      \           
                |  |  |   | |  | | |   __   |  |    \   |  |\   \          
                \     /   | |  | | |  |  |  |  | |\  \  |  | \   \       
                 \___/    |_|  |_| |__|  |__|  |_| \__\ |__|  \__/        
                                                                              
                      - O R C A' S   B I G   F R I E N D -                    
                                      &                                       
                       - I N T E G R A L  F E E D E R -                       
                                                                              
 v1 FN, 2020, v2 2021                                                         
------------------------------------------------------------------------------


Reading SHARK input file casscf.SHARKINP.tmp ... ok
----------------------
SHARK INTEGRAL PACKAGE
----------------------

Number of atoms                             ...     11
Number of basis functions                   ...    445
Number of shells                            ...    155
Maximum angular momentum                    ...      3
Integral batch strategy                     ... SHARK/LIBINT Hybrid
RI-J (if used) integral strategy            ... SPLIT-RIJ (Revised 2003 algorithm where possible)
Printlevel                                  ...      1
Contraction scheme used                     ... SEGMENTED contraction
Coulomb Range Separation                    ... NOT USED
Exchange Range Separation                   ... NOT USED
Finite Nucleus Model                        ... NOT USED
Auxiliary Coulomb fitting basis             ... AVAILABLE
   # of basis functions in Aux-J            ...    979
   # of shells in Aux-J                     ...    253
   Maximum angular momentum in Aux-J        ...      4
Auxiliary J/K fitting basis                 ... NOT available
Auxiliary Correlation fitting basis         ... AVAILABLE
   # of basis functions in Aux-C            ...   1692
   # of shells in Aux-C                     ...    368
   Maximum angular momentum in Aux-C        ...      5
Auxiliary 'external' fitting basis          ... NOT available
Integral threshold                          ...     1.000000e-10
Primitive cut-off                           ...     1.000000e-11
Primitive pair pre-selection threshold      ...     1.000000e-11

Calculating pre-screening integrals         ... done (  0.4 sec) Dimension = 155
Organizing shell pair data                  ... done (  0.5 sec)
Shell pair information
Total number of shell pairs                 ...     12090
Shell pairs after pre-screening             ...     10030
Total number of primitive shell pairs       ...     33105
Primitive shell pairs kept                  ...     20337
          la=0 lb=0:   1568 shell pairs
          la=1 lb=0:   2303 shell pairs
          la=1 lb=1:    852 shell pairs
          la=2 lb=0:   1991 shell pairs
          la=2 lb=1:   1385 shell pairs
          la=2 lb=2:    579 shell pairs
          la=3 lb=0:    541 shell pairs
          la=3 lb=1:    404 shell pairs
          la=3 lb=2:    350 shell pairs
          la=3 lb=3:     57 shell pairs

Calculating one electron integrals          ... done (  0.1 sec)
Calculating ECP integrals                   ... done ( 10.0 sec)
Calculating RI/J V-Matrix + Cholesky decomp.... done (  0.4 sec)
Calculating RI/C V-Matrix + Cholesky decomp.... done (  0.5 sec)
Calculating Nuclear repulsion               ... done (  0.0 sec) ENN=   3146.328683254158 Eh

SHARK setup successfully completed in  12.7 seconds

Maximum memory used throughout the entire GTOINT-calculation: 52.1 MB


           ************************************************************
           *        Program running with 2 parallel MPI-processes     *
           *              working on a common directory               *
           ************************************************************
-------------------------------------------------------------------------------
                                 ORCA SCF
-------------------------------------------------------------------------------

------------
SCF SETTINGS
------------
Hamiltonian:
 Ab initio Hamiltonian  Method          .... Hartree-Fock(GTOs)
 RI-approximation to the Coulomb term is turned on
   Number of AuxJ basis functions       .... 979
   RIJ-COSX (HFX calculated with COS-X)).... on


General Settings:
 Integral files         IntName         .... casscf
 Hartree-Fock type      HFTyp           .... CASSCF
 Total Charge           Charge          ....    0
 Multiplicity           Mult            ....    5
 Number of Electrons    NEL             ....  214
 Basis Dimension        Dim             ....  445
 Nuclear Repulsion      ENuc            ....   3146.3286832542 Eh


Diagonalization of the overlap matrix:
Smallest eigenvalue                        ... 2.396e-04
Time for diagonalization                   ...    0.055 sec
Threshold for overlap eigenvalues          ... 1.000e-08
Number of eigenvalues below threshold      ... 0
Time for construction of square roots      ...    0.098 sec
Total time needed                          ...    0.153 sec

---------------------
INITIAL GUESS: MOREAD
---------------------
Guess MOs are being read from file: pbe.qro
Input Geometry matches current geometry (good)
Input basis set matches current basis set (good)
MOs were renormalized
Gram-Schmidt orthogonalization of all MOs with pivot on actives
                      ------------------
                      INITIAL GUESS DONE (   1.5 sec)
                      ------------------
--------------------
COSX GRID GENERATION
--------------------

GRIDX 1
-------
General Integration Accuracy     IntAcc      ... 3.816
Radial Grid Type                 RadialGrid  ... OptM3 with GC (2021)
Angular Grid (max. ang.)         AngularGrid ... 1 (Lebedev-50)
Angular grid pruning method      GridPruning ... 4 (adaptive)
Weight generation scheme         WeightScheme... Becke
Basis function cutoff            BFCut       ... 1.0000e-10
Integration weight cutoff        WCut        ... 1.0000e-14
Angular grids for H and He will be reduced by one unit
Partially contracted basis set               ... on
Rotationally invariant grid construction     ... off

Total number of grid points                  ...    13043
Total number of batches                      ...      211
Average number of points per batch           ...       61
Average number of grid points per atom       ...     1186
UseSFitting                                  ... on

GRIDX 2
-------
General Integration Accuracy     IntAcc      ... 4.020
Radial Grid Type                 RadialGrid  ... OptM3 with GC (2021)
Angular Grid (max. ang.)         AngularGrid ... 2 (Lebedev-110)
Angular grid pruning method      GridPruning ... 4 (adaptive)
Weight generation scheme         WeightScheme... Becke
Basis function cutoff            BFCut       ... 1.0000e-10
Integration weight cutoff        WCut        ... 1.0000e-14
Angular grids for H and He will be reduced by one unit
Partially contracted basis set               ... on
Rotationally invariant grid construction     ... off

Total number of grid points                  ...    39354
Total number of batches                      ...      620
Average number of points per batch           ...       63
Average number of grid points per atom       ...     3578
UseSFitting                                  ... on

GRIDX 3
-------
General Integration Accuracy     IntAcc      ... 4.338
Radial Grid Type                 RadialGrid  ... OptM3 with GC (2021)
Angular Grid (max. ang.)         AngularGrid ... 3 (Lebedev-194)
Angular grid pruning method      GridPruning ... 4 (adaptive)
Weight generation scheme         WeightScheme... Becke
Basis function cutoff            BFCut       ... 1.0000e-10
Integration weight cutoff        WCut        ... 1.0000e-14
Angular grids for H and He will be reduced by one unit
Partially contracted basis set               ... on
Rotationally invariant grid construction     ... off

Total number of grid points                  ...    72507
Total number of batches                      ...     1139
Average number of points per batch           ...       63
Average number of grid points per atom       ...     6592
UseSFitting                                  ... on

Time for X-Grid setup             =    3.411 sec



 ... the calculation is a CASSCF calculation -I'm leaving here GOOD LUCK!!!



           ************************************************************
           *        Program running with 2 parallel MPI-processes     *
           *              working on a common directory               *
           ************************************************************
-------------------------------------------------------------------------------
                              ORCA-CASSCF
-------------------------------------------------------------------------------

Setting up the integral package       ... done
Setting up the integral package (RI)  ... done
Building the CAS space                ... done (5 configurations for Mult=5)
Building the CAS space                ... done (35 configurations for Mult=3)

SYSTEM-SPECIFIC SETTINGS:
Number of active electrons          ...    6
Number of active orbitals           ...    5
Total number of electrons           ...  214
Total number of orbitals            ...  445
Total number aux. functions         ... 1692

Determined orbital ranges:
   Internal       0 -  103 ( 104 orbitals)
   Active       104 -  108 (   5 orbitals)
   External     109 -  444 ( 336 orbitals)
Number of rotation parameters      ...  37144

CI-STEP:
CI strategy                         ... General CI
Number of multiplicity blocks       ...    2
BLOCK  1 WEIGHT=   0.5000
  Multiplicity                      ...    5
  #(Configurations)                 ...    5
  #(CSFs)                           ...    5
  #(Roots)                          ...    5
    ROOT=0 WEIGHT=    0.100000
    ROOT=1 WEIGHT=    0.100000
    ROOT=2 WEIGHT=    0.100000
    ROOT=3 WEIGHT=    0.100000
    ROOT=4 WEIGHT=    0.100000

BLOCK  2 WEIGHT=   0.5000
  Multiplicity                      ...    3
  #(Configurations)                 ...   35
  #(CSFs)                           ...   45
  #(Roots)                          ...   45
    ROOT=0 WEIGHT=    0.011111
    ROOT=1 WEIGHT=    0.011111
    ROOT=2 WEIGHT=    0.011111
    ROOT=3 WEIGHT=    0.011111
    ROOT=4 WEIGHT=    0.011111
    ROOT=5 WEIGHT=    0.011111
    ROOT=6 WEIGHT=    0.011111
    ROOT=7 WEIGHT=    0.011111
    ROOT=8 WEIGHT=    0.011111
    ROOT=9 WEIGHT=    0.011111
    ROOT=10 WEIGHT=    0.011111
    ROOT=11 WEIGHT=    0.011111
    ROOT=12 WEIGHT=    0.011111
    ROOT=13 WEIGHT=    0.011111
    ROOT=14 WEIGHT=    0.011111
    ROOT=15 WEIGHT=    0.011111
    ROOT=16 WEIGHT=    0.011111
    ROOT=17 WEIGHT=    0.011111
    ROOT=18 WEIGHT=    0.011111
    ROOT=19 WEIGHT=    0.011111
    ROOT=20 WEIGHT=    0.011111
    ROOT=21 WEIGHT=    0.011111
    ROOT=22 WEIGHT=    0.011111
    ROOT=23 WEIGHT=    0.011111
    ROOT=24 WEIGHT=    0.011111
    ROOT=25 WEIGHT=    0.011111
    ROOT=26 WEIGHT=    0.011111
    ROOT=27 WEIGHT=    0.011111
    ROOT=28 WEIGHT=    0.011111
    ROOT=29 WEIGHT=    0.011111
    ROOT=30 WEIGHT=    0.011111
    ROOT=31 WEIGHT=    0.011111
    ROOT=32 WEIGHT=    0.011111
    ROOT=33 WEIGHT=    0.011111
    ROOT=34 WEIGHT=    0.011111
    ROOT=35 WEIGHT=    0.011111
    ROOT=36 WEIGHT=    0.011111
    ROOT=37 WEIGHT=    0.011111
    ROOT=38 WEIGHT=    0.011111
    ROOT=39 WEIGHT=    0.011111
    ROOT=40 WEIGHT=    0.011111
    ROOT=41 WEIGHT=    0.011111
    ROOT=42 WEIGHT=    0.011111
    ROOT=43 WEIGHT=    0.011111
    ROOT=44 WEIGHT=    0.011111

  PrintLevel                        ...    1
  N(GuessMat)                       ...       512
  MaxDim(CI)                        ...        10
  MaxIter(CI)                       ...        64
  Energy Tolerance CI               ...  1.00e-08
  Residual Tolerance CI             ...  1.00e-08
  Shift(CI)                         ...  1.00e-04

INTEGRAL-TRANSFORMATION-STEP:
  Algorithm                         ... RI-MO

ORBITAL-IMPROVEMENT-STEP:
  Algorithm                         ... SuperCI(PT)
  Default Parametrization           ... CAYLEY
  Act-Act rotations                 ... depends on algorithm used

  Note: SuperCI(PT) will ignore FreezeIE, FreezeAct and FreezeGrad. In general Default settings are encouraged.
        In conjunction with ShiftUp, ShiftDn or GradScaling the performance of SuperCI(PT) is less optimal.  

  MaxRot                            ... 2.00e-01 
  Max. no of vectors (DIIS)         ... 15
  DThresh (cut-off) metric          ... 1.00e-06
  Switch step at gradient           ...  3.00e-02 
  Switch step at iteration          ...        50   
  Switch step to                    ... SuperCI(PT)    

SCF-SETTINGS:
  Incremental                       ... off
  RIJCOSX approximation             ... on
  UseFinalGrid                      ... on
  RI-JK approximation               ... off
  AO integral handling              ... DIRECT
  Integral Neglect Thresh           ...  1.00e-10
  Primitive cutoff TCut             ...  1.00e-11
  Energy convergence tolerance      ...  1.00e-07
  Orbital gradient convergence      ...  1.00e-03
  Max. number of iterations         ...        75  


FINAL ORBITALS:
  Active   Orbitals                 ... natural 
  Internal Orbitals                 ... canonical 
  External Orbitals                 ... canonical 

------------------
CAS-SCF ITERATIONS
------------------


MACRO-ITERATION   1: 
   --- Inactive Energy E0 = -2384.65546517 Eh
CI-ITERATION   0: 
 -2390.936240951   0.000000000000 (    0.00)
 -2390.936141960   0.000000000000
 -2390.829938543   0.000000000000
 -2390.709215247   0.000000000000
 -2390.709069413   0.000000000000
   CI-PROBLEM SOLVED
   DENSITIES MADE
CI-ITERATION   0: 
 -2390.909231761   0.000000000000 (    0.00)
 -2390.909128325   0.000000000000
 -2390.906922383   0.000000000000
 -2390.901821760   0.000000000000
 -2390.900014245   0.000000000000
 -2390.900013545   0.000000000000
 -2390.896021893   0.000000000000
 -2390.894180298   0.000000000000
 -2390.894068951   0.000000000000
 -2390.877169021   0.000000000000
 -2390.877153796   0.000000000000
 -2390.873831358   0.000000000000
 -2390.873133825   0.000000000000
 -2390.873052511   0.000000000000
 -2390.873010461   0.000000000000
 -2390.840072559   0.000000000000
 -2390.839982691   0.000000000000
 -2390.804010534   0.000000000000
 -2390.803895603   0.000000000000
 -2390.800750829   0.000000000000
 -2390.792707932   0.000000000000
 -2390.789012775   0.000000000000
 -2390.783014759   0.000000000000
 -2390.783002047   0.000000000000
 -2390.781284434   0.000000000000
 -2390.777768604   0.000000000000
 -2390.777766499   0.000000000000
 -2390.745891565   0.000000000000
 -2390.687824442   0.000000000000
 -2390.687739427   0.000000000000
 -2390.682451177   0.000000000000
 -2390.680984638   0.000000000000
 -2390.680854859   0.000000000000
 -2390.680569162   0.000000000000
 -2390.669169331   0.000000000000
 -2390.669084877   0.000000000000
 -2390.657518182   0.000000000000
 -2390.657396714   0.000000000000
 -2390.482796611   0.000000000000
 -2390.478259026   0.000000000000
 -2390.475825414   0.000000000000
 -2390.475802555   0.000000000000
 -2390.472567273   0.000000000000
 -2390.269921264   0.000000000000
 -2390.269750301   0.000000000000
   CI-PROBLEM SOLVED
   DENSITIES MADE

                 <<<<<<<<<<<<<<<<<<INITIAL CI STATE CHECK>>>>>>>>>>>>>>>>>>

BLOCK  1 MULT= 5 NROOTS= 5 
ROOT   0:  E=   -2390.9362409513 Eh
      0.99832 [     4]: 21111
ROOT   1:  E=   -2390.9361419600 Eh  0.003 eV     21.7 cm**-1
      0.99832 [     3]: 12111
ROOT   2:  E=   -2390.8299385431 Eh  2.893 eV  23330.7 cm**-1
      0.99999 [     0]: 11112
ROOT   3:  E=   -2390.7092152470 Eh  6.178 eV  49826.4 cm**-1
      0.99432 [     2]: 11211
      0.00527 [     1]: 11121
ROOT   4:  E=   -2390.7090694130 Eh  6.182 eV  49858.4 cm**-1
      0.99433 [     1]: 11121
      0.00527 [     2]: 11211

BLOCK  2 MULT= 3 NROOTS=45 
ROOT   0:  E=   -2390.9092317609 Eh
      0.95222 [    28]: 21111
      0.02161 [    33]: 22101
      0.01015 [    18]: 12111
      0.00274 [    16]: 12021
ROOT   1:  E=   -2390.9091283246 Eh  0.003 eV     22.7 cm**-1
      0.95200 [    18]: 12111
      0.02180 [    32]: 22011
      0.01018 [    28]: 21111
      0.00279 [    30]: 21201
      0.00252 [    25]: 21012
ROOT   2:  E=   -2390.9069223831 Eh  0.063 eV    506.8 cm**-1
      0.98953 [    34]: 22110
      0.00279 [     3]: 02112
      0.00277 [    22]: 20112
ROOT   3:  E=   -2390.9018217600 Eh  0.202 eV   1626.3 cm**-1
      0.45944 [    27]: 21102
      0.43632 [    15]: 12012
      0.01964 [    25]: 21012
      0.01776 [    17]: 12102
      0.01103 [    28]: 21111
      0.01011 [    29]: 21120
      0.00960 [    21]: 12210
      0.00583 [    18]: 12111
      0.00546 [    16]: 12021
      0.00538 [    20]: 12201
      0.00483 [    12]: 11202
      0.00455 [     9]: 11022
      0.00306 [    30]: 21201
      0.00299 [    26]: 21021
ROOT   4:  E=   -2390.9000142449 Eh  0.251 eV   2023.0 cm**-1
      0.38755 [    25]: 21012
      0.35486 [    17]: 12102
      0.13542 [    32]: 22011
      0.02765 [    33]: 22101
      0.02395 [    18]: 12111
      0.01853 [    15]: 12012
      0.01429 [    27]: 21102
      0.01124 [    28]: 21111
      0.00796 [    31]: 21210
      0.00722 [    19]: 12120
      0.00648 [    10]: 11112
      0.00270 [    30]: 21201
ROOT   5:  E=   -2390.9000135451 Eh  0.251 eV   2023.2 cm**-1
      0.38450 [    15]: 12012
      0.36108 [    27]: 21102
      0.13127 [    33]: 22101
      0.02771 [    32]: 22011
      0.02386 [    28]: 21111
      0.01756 [    17]: 12102
      0.01574 [    25]: 21012
      0.01127 [    18]: 12111
      0.00787 [    21]: 12210
      0.00743 [    29]: 21120
      0.00305 [    16]: 12021
ROOT   6:  E=   -2390.8960218933 Eh  0.359 eV   2899.2 cm**-1
      0.44406 [    17]: 12102
      0.42761 [    25]: 21012
      0.01966 [    18]: 12111
      0.01931 [    27]: 21102
      0.01700 [    15]: 12012
      0.01202 [    19]: 12120
      0.01172 [    31]: 21210
      0.01137 [    26]: 21021
      0.01128 [    28]: 21111
      0.01063 [    30]: 21201
      0.00575 [    16]: 12021
      0.00556 [    20]: 12201
ROOT   7:  E=   -2390.8941802978 Eh  0.410 eV   3303.4 cm**-1
      0.74320 [    32]: 22011
      0.07075 [    18]: 12111
      0.05673 [    17]: 12102
      0.04150 [    25]: 21012
      0.02980 [    26]: 21021
      0.01590 [    27]: 21102
      0.01439 [    15]: 12012
      0.01189 [    33]: 22101
      0.00682 [    28]: 21111
ROOT   8:  E=   -2390.8940689510 Eh  0.413 eV   3327.9 cm**-1
      0.74802 [    33]: 22101
      0.06999 [    28]: 21111
      0.04733 [    27]: 21102
      0.04659 [    15]: 12012
      0.03114 [    20]: 12201
      0.01480 [    17]: 12102
      0.01460 [    25]: 21012
      0.01203 [    32]: 22011
      0.00676 [    18]: 12111
ROOT   9:  E=   -2390.8771690210 Eh  0.872 eV   7037.0 cm**-1
      0.35504 [    28]: 21111
      0.22385 [    16]: 12021
      0.14054 [    18]: 12111
      0.11762 [    30]: 21201
      0.10804 [    20]: 12201
      0.02150 [    26]: 21021
      0.01727 [    33]: 22101
      0.01386 [    32]: 22011
ROOT  10:  E=   -2390.8771537963 Eh  0.873 eV   7040.3 cm**-1
      0.33793 [    18]: 12111
      0.23383 [    30]: 21201
      0.14705 [    28]: 21111
      0.11578 [    26]: 21021
      0.11242 [    16]: 12021
      0.01963 [    20]: 12201
      0.01692 [    32]: 22011
      0.01417 [    33]: 22101
ROOT  11:  E=   -2390.8738313580 Eh  0.963 eV   7769.5 cm**-1
      0.30178 [    28]: 21111
      0.17142 [    18]: 12111
      0.15896 [    16]: 12021
      0.15689 [    20]: 12201
      0.08281 [    26]: 21021
      0.08101 [    30]: 21201
      0.01331 [    27]: 21102
      0.01277 [    15]: 12012
      0.00448 [    29]: 21120
      0.00424 [    21]: 12210
      0.00392 [    34]: 22110
      0.00360 [     9]: 11022
      0.00333 [    12]: 11202
ROOT  12:  E=   -2390.8731338246 Eh  0.982 eV   7922.6 cm**-1
      0.90815 [    28]: 21111
      0.01560 [    20]: 12201
      0.01345 [    17]: 12102
      0.01019 [    25]: 21012
      0.00981 [    15]: 12012
      0.00909 [    27]: 21102
      0.00511 [    19]: 12120
      0.00411 [    31]: 21210
      0.00386 [    26]: 21021
      0.00379 [    21]: 12210
      0.00378 [    30]: 21201
      0.00360 [    16]: 12021
      0.00352 [    29]: 21120
ROOT  13:  E=   -2390.8730525109 Eh  0.984 eV   7940.4 cm**-1
      0.91629 [    18]: 12111
      0.01701 [    28]: 21111
      0.01571 [    25]: 21012
      0.01262 [    15]: 12012
      0.00964 [    27]: 21102
      0.00572 [    31]: 21210
      0.00486 [    21]: 12210
      0.00446 [    17]: 12102
      0.00388 [    29]: 21120
      0.00342 [    26]: 21021
ROOT  14:  E=   -2390.8730104611 Eh  0.986 eV   7949.7 cm**-1
      0.30142 [    18]: 12111
      0.15987 [    26]: 21021
      0.14868 [    30]: 21201
      0.14247 [    28]: 21111
      0.08845 [    20]: 12201
      0.08788 [    16]: 12021
      0.03027 [    17]: 12102
      0.02114 [    25]: 21012
      0.00824 [    19]: 12120
      0.00532 [    31]: 21210
      0.00328 [    27]: 21102
ROOT  15:  E=   -2390.8400725595 Eh  1.882 eV  15178.7 cm**-1
      0.55240 [    26]: 21021
      0.37563 [    30]: 21201
      0.02268 [    32]: 22011
      0.01208 [    18]: 12111
      0.00887 [    10]: 11112
      0.00786 [    16]: 12021
      0.00263 [    11]: 11121
ROOT  16:  E=   -2390.8399826910 Eh  1.884 eV  15198.4 cm**-1
      0.55272 [    20]: 12201
      0.37537 [    16]: 12021
      0.02274 [    33]: 22101
      0.01206 [    28]: 21111
      0.00782 [    30]: 21201
      0.00458 [     9]: 11022
      0.00409 [    12]: 11202
      0.00319 [    10]: 11112
      0.00269 [    13]: 11211
ROOT  17:  E=   -2390.8040105336 Eh  2.863 eV  23093.4 cm**-1
      0.62218 [    10]: 11112
      0.18766 [    22]: 20112
      0.18080 [     3]: 02112
ROOT  18:  E=   -2390.8038956027 Eh  2.866 eV  23118.6 cm**-1
      0.36869 [    10]: 11112
      0.31417 [    22]: 20112
      0.30173 [     3]: 02112
      0.00304 [     9]: 11022
      0.00298 [    12]: 11202
ROOT  19:  E=   -2390.8007508292 Eh  2.952 eV  23808.8 cm**-1
      0.97830 [    10]: 11112
      0.00884 [    31]: 21210
      0.00871 [    19]: 12120
ROOT  20:  E=   -2390.7927079316 Eh  3.171 eV  25574.0 cm**-1
      0.47408 [     3]: 02112
      0.45528 [    22]: 20112
      0.02237 [    21]: 12210
      0.02210 [    29]: 21120
      0.00460 [    34]: 22110
      0.00388 [    11]: 11121
      0.00311 [    13]: 11211
ROOT  21:  E=   -2390.7890127750 Eh  3.271 eV  26385.0 cm**-1
      0.46434 [    31]: 21210
      0.43996 [    19]: 12120
      0.01939 [    29]: 21120
      0.01827 [    21]: 12210
      0.01698 [    25]: 21012
      0.01629 [    17]: 12102
      0.01564 [    10]: 11112
ROOT  22:  E=   -2390.7830147593 Eh  3.435 eV  27701.4 cm**-1
      0.31545 [    19]: 12120
      0.30543 [    31]: 21210
      0.19674 [    10]: 11112
      0.07793 [    29]: 21120
      0.06389 [    21]: 12210
      0.00636 [    12]: 11202
      0.00591 [     9]: 11022
      0.00470 [    18]: 12111
      0.00461 [    17]: 12102
      0.00432 [    25]: 21012
      0.00378 [    26]: 21021
      0.00306 [    30]: 21201
      0.00271 [    11]: 11121
ROOT  23:  E=   -2390.7830020468 Eh  3.435 eV  27704.2 cm**-1
      0.31399 [    21]: 12210
      0.30642 [    29]: 21120
      0.09929 [    12]: 11202
      0.09870 [     9]: 11022
      0.07342 [    19]: 12120
      0.06811 [    31]: 21210
      0.01223 [    10]: 11112
      0.00460 [    28]: 21111
      0.00452 [    15]: 12012
      0.00434 [    27]: 21102
      0.00364 [    20]: 12201
      0.00328 [    16]: 12021
ROOT  24:  E=   -2390.7812844341 Eh  3.482 eV  28081.2 cm**-1
      0.44291 [    21]: 12210
      0.43498 [    29]: 21120
      0.02412 [     3]: 02112
      0.02374 [    22]: 20112
      0.02096 [    19]: 12120
      0.01585 [    31]: 21210
      0.01173 [    15]: 12012
      0.01155 [    27]: 21102
      0.00321 [    12]: 11202
      0.00319 [     9]: 11022
ROOT  25:  E=   -2390.7777686037 Eh  3.577 eV  28852.8 cm**-1
      0.29365 [    12]: 11202
      0.29040 [     9]: 11022
      0.18053 [    10]: 11112
      0.08880 [    21]: 12210
      0.08779 [    29]: 21120
      0.01118 [    27]: 21102
      0.01114 [    15]: 12012
      0.00872 [    19]: 12120
      0.00867 [    31]: 21210
      0.00348 [     3]: 02112
      0.00331 [    22]: 20112
      0.00318 [    18]: 12111
ROOT  26:  E=   -2390.7777664994 Eh  3.577 eV  28853.3 cm**-1
      0.59158 [    10]: 11112
      0.09046 [     9]: 11022
      0.08978 [    19]: 12120
      0.08970 [    12]: 11202
      0.08604 [    31]: 21210
      0.01126 [    17]: 12102
      0.01103 [    25]: 21012
      0.00935 [    29]: 21120
      0.00835 [    21]: 12210
      0.00315 [    28]: 21111
ROOT  27:  E=   -2390.7458915650 Eh  4.445 eV  35849.0 cm**-1
      0.48280 [     9]: 11022
      0.47978 [    12]: 11202
      0.00953 [    14]: 11220
      0.00693 [    27]: 21102
      0.00692 [    15]: 12012
ROOT  28:  E=   -2390.6878244423 Eh  6.025 eV  48593.3 cm**-1
      0.49753 [    11]: 11121
      0.39879 [    24]: 20211
      0.05390 [     5]: 02211
      0.03131 [    13]: 11211
      0.00969 [     4]: 02121
      0.00712 [    23]: 20121
ROOT  29:  E=   -2390.6877394273 Eh  6.027 eV  48611.9 cm**-1
      0.52406 [    13]: 11211
      0.37570 [     4]: 02121
      0.05093 [    23]: 20121
      0.03112 [    11]: 11121
      0.01067 [    24]: 20211
      0.00594 [     5]: 02211
ROOT  30:  E=   -2390.6824511772 Eh  6.171 eV  49772.6 cm**-1
      0.27074 [    13]: 11211
      0.22373 [    11]: 11121
      0.14050 [    23]: 20121
      0.13854 [     4]: 02121
      0.11354 [    24]: 20211
      0.11143 [     5]: 02211
ROOT  31:  E=   -2390.6809846375 Eh  6.211 eV  50094.5 cm**-1
      0.91019 [    13]: 11211
      0.02779 [     4]: 02121
      0.01999 [    23]: 20121
      0.01800 [    24]: 20211
      0.01754 [     5]: 02211
ROOT  32:  E=   -2390.6808548590 Eh  6.214 eV  50122.9 cm**-1
      0.86927 [    11]: 11121
      0.05380 [    24]: 20211
      0.04190 [     5]: 02211
      0.01164 [    23]: 20121
      0.01135 [     4]: 02121
      0.00639 [    13]: 11211
ROOT  33:  E=   -2390.6805691621 Eh  6.222 eV  50185.6 cm**-1
      0.31505 [    11]: 11121
      0.19793 [    13]: 11211
      0.13044 [     4]: 02121
      0.12128 [    23]: 20121
      0.10992 [    24]: 20211
      0.10879 [     5]: 02211
      0.00618 [     3]: 02112
      0.00574 [    22]: 20112
ROOT  34:  E=   -2390.6691693313 Eh  6.532 eV  52687.6 cm**-1
      0.53421 [     5]: 02211
      0.25873 [    24]: 20211
      0.11233 [    23]: 20121
      0.04505 [    11]: 11121
      0.02326 [    13]: 11211
      0.01838 [     4]: 02121
      0.00305 [    10]: 11112
ROOT  35:  E=   -2390.6690848767 Eh  6.535 eV  52706.1 cm**-1
      0.52218 [    23]: 20121
      0.26878 [     4]: 02121
      0.11236 [     5]: 02211
      0.04614 [    13]: 11211
      0.02477 [    11]: 11121
      0.01755 [    24]: 20211
ROOT  36:  E=   -2390.6575181825 Eh  6.849 eV  55244.7 cm**-1
      0.95781 [    13]: 11211
      0.02000 [    11]: 11121
      0.01246 [     4]: 02121
      0.00619 [    23]: 20121
ROOT  37:  E=   -2390.6573967142 Eh  6.853 eV  55271.4 cm**-1
      0.95848 [    11]: 11121
      0.02003 [    13]: 11211
      0.01187 [    24]: 20211
      0.00598 [     5]: 02211
ROOT  38:  E=   -2390.4827966109 Eh 11.604 eV  93591.7 cm**-1
      0.95004 [    14]: 11220
      0.01966 [     7]: 10212
      0.01775 [     0]: 01122
      0.00496 [     9]: 11022
      0.00495 [    12]: 11202
ROOT  39:  E=   -2390.4782590264 Eh 11.727 eV  94587.6 cm**-1
      0.52137 [     7]: 10212
      0.39919 [     0]: 01122
      0.03855 [    14]: 11220
      0.02237 [     6]: 10122
      0.01586 [     1]: 01212
ROOT  40:  E=   -2390.4758254142 Eh 11.794 eV  95121.7 cm**-1
      0.38070 [     0]: 01122
      0.31029 [     7]: 10212
      0.15827 [     6]: 10122
      0.14669 [     1]: 01212
ROOT  41:  E=   -2390.4758025550 Eh 11.794 eV  95126.7 cm**-1
      0.36866 [     1]: 01212
      0.32262 [     6]: 10122
      0.17669 [     0]: 01122
      0.12782 [     7]: 10212
ROOT  42:  E=   -2390.4725672734 Eh 11.882 eV  95836.8 cm**-1
      0.49122 [     6]: 10122
      0.46371 [     1]: 01212
      0.02234 [     0]: 01122
      0.01773 [     7]: 10212
      0.00265 [    10]: 11112
ROOT  43:  E=   -2390.2699212638 Eh 17.397 eV 140312.4 cm**-1
      0.89808 [     8]: 10221
      0.10076 [     2]: 01221
ROOT  44:  E=   -2390.2697503011 Eh 17.401 eV 140350.0 cm**-1
      0.89808 [     2]: 01221
      0.10077 [     8]: 10221

                 <<<<<<<<<<<<<<<<<<INITIAL CI STATE CHECK>>>>>>>>>>>>>>>>>>

   E(CAS)= -2390.782687614 Eh DE=    0.000000e+00
   --- Energy gap subspaces: Ext-Act = 0.138   Act-Int = 0.140
   N(occ)=  1.20000 1.20000 1.20000 1.20000 1.20000
   ||g|| =     2.582108e+00 Max(G)=    3.047798e-01 Rot=387,1
   --- Orbital Update [SuperCI(PT)]
   --- Canonicalize Internal Space
   --- Canonicalize External Space
   --- SX_PT (Skipped TA=0 IT=0): ||X|| =      0.933246491 Max(X)(108,103) =      0.348679485 
   --- SFit(Active Orbitals)

MACRO-ITERATION   2: 
   --- Inactive Energy E0 = -2382.44088196 Eh
CI-ITERATION   0: 
 -2390.775460921   0.000000000000 (    0.00)
 -2390.756755610   0.000000000000
 -2390.756485736   0.000000000000
 -2390.401564621   0.000000000000
 -2390.401514535   0.000000000000
   CI-PROBLEM SOLVED
   DENSITIES MADE
CI-ITERATION   0: 
 -2390.956059918   0.000000000000 (    0.00)
 -2390.954121818   0.000000000000
 -2390.954076336   0.000000000000
 -2390.951301256   0.000000000000
 -2390.924667640   0.000000000000
 -2390.924655065   0.000000000000
 -2390.755492546   0.000000000000
 -2390.753607691   0.000000000000
 -2390.753510774   0.000000000000
 -2390.744579472   0.000000000000
 -2390.741291798   0.000000000000
 -2390.741287027   0.000000000000
 -2390.739966550   0.000000000000
 -2390.739786879   0.000000000000
 -2390.735541759   0.000000000000
 -2390.735473632   0.000000000000
 -2390.733902522   0.000000000000
 -2390.729122337   0.000000000000
 -2390.725700828   0.000000000000
 -2390.719372521   0.000000000000
 -2390.719125701   0.000000000000
 -2390.714213657   0.000000000000
 -2390.713916379   0.000000000000
 -2390.651555491   0.000000000000
 -2390.383237517   0.000000000000
 -2390.383187090   0.000000000000
 -2390.363388718   0.000000000000
 -2390.361657302   0.000000000000
 -2390.361639513   0.000000000000
 -2390.360151570   0.000000000000
 -2390.357183140   0.000000000000
 -2390.356976420   0.000000000000
 -2390.354406054   0.000000000000
 -2390.354072320   0.000000000000
 -2390.346973474   0.000000000000
 -2390.346941458   0.000000000000
 -2390.330241105   0.000000000000
 -2390.330018559   0.000000000000
 -2390.301750820   0.000000000000
 -2390.296594568   0.000000000000
 -2390.296524405   0.000000000000
 -2390.293999518   0.000000000000
 -2389.824444269   0.000000000000
 -2389.823896368   0.000000000000
 -2389.788815381   0.000000000000
   CI-PROBLEM SOLVED
   DENSITIES MADE
   E(CAS)= -2390.580605133 Eh DE=    2.020825e-01
   --- Energy gap subspaces: Ext-Act = -0.142   Act-Int = -0.366
   N(occ)=  1.20000 1.20000 1.20000 1.20000 1.20000
   ||g|| =     3.417529e+00 Max(G)=   -6.003413e-01 Rot=111,106
   --- Orbital Update [SuperCI(PT)]
   --- Canonicalize Internal Space
   --- Canonicalize External Space
   --- SX_PT (Skipped TA=0 IT=0): ||X|| =      5.553387490 Max(X)(110,105) =     -2.090604579 
   --- SFit(Active Orbitals)

MACRO-ITERATION   3: 
   --- Inactive Energy E0 = -2383.55835360 Eh
CI-ITERATION   0: 
 -2391.054709428   0.000000000000 (    0.00)
 -2391.040812072   0.000000000000
 -2391.040627771   0.000000000000
 -2390.803925301   0.000000000000
 -2390.803876664   0.000000000000
   CI-PROBLEM SOLVED
   DENSITIES MADE
CI-ITERATION   0: 
 -2391.063321178   0.000000000000 (    0.00)
 -2391.061759328   0.000000000000
 -2391.061728611   0.000000000000
 -2391.059669465   0.000000000000
 -2391.042615400   0.000000000000
 -2391.042570289   0.000000000000
 -2391.039936018   0.000000000000
 -2391.034905290   0.000000000000
 -2391.034788202   0.000000000000
 -2391.026890540   0.000000000000
 -2391.026753647   0.000000000000
 -2391.026529880   0.000000000000
 -2391.020629612   0.000000000000
 -2391.020598133   0.000000000000
 -2391.020230387   0.000000000000
 -2391.020220214   0.000000000000
 -2391.020198347   0.000000000000
 -2391.015139024   0.000000000000
 -2391.005518136   0.000000000000
 -2391.005312731   0.000000000000
 -2391.004971479   0.000000000000
 -2390.996606281   0.000000000000
 -2390.996451955   0.000000000000
 -2390.934749617   0.000000000000
 -2390.790628570   0.000000000000
 -2390.790561491   0.000000000000
 -2390.759428875   0.000000000000
 -2390.757970525   0.000000000000
 -2390.757944596   0.000000000000
 -2390.756886679   0.000000000000
 -2390.755189955   0.000000000000
 -2390.755125266   0.000000000000
 -2390.753335147   0.000000000000
 -2390.753132132   0.000000000000
 -2390.744539307   0.000000000000
 -2390.744491793   0.000000000000
 -2390.726054300   0.000000000000
 -2390.725941724   0.000000000000
 -2390.698478781   0.000000000000
 -2390.694738076   0.000000000000
 -2390.694717775   0.000000000000
 -2390.692501783   0.000000000000
 -2390.284500532   0.000000000000
 -2390.284322431   0.000000000000
 -2390.248513076   0.000000000000
   CI-PROBLEM SOLVED
   DENSITIES MADE
   E(CAS)= -2390.904962863 Eh DE=   -3.243577e-01
   --- Energy gap subspaces: Ext-Act = 0.023   Act-Int = -0.200
   N(occ)=  1.20000 1.20000 1.20000 1.20000 1.20000
   ||g|| =     1.917245e+00 Max(G)=   -3.665928e-01 Rot=111,106
   --- Orbital Update [SuperCI(PT)]
   --- Canonicalize Internal Space
   --- Canonicalize External Space
   --- SX_PT (Skipped TA=0 IT=0): ||X|| =      2.707343083 Max(X)(108,103) =     -1.749958714 
   --- SFit(Active Orbitals)

MACRO-ITERATION   4: 
   --- Inactive Energy E0 = -2384.50548218 Eh
CI-ITERATION   0: 
 -2391.195068594   0.000000000000 (    0.20)
 -2391.191373875   0.000000000000
 -2391.191318427   0.000000000000
 -2391.160683632   0.000000000000
 -2391.160511508   0.000000000000
   CI-PROBLEM SOLVED
   DENSITIES MADE
CI-ITERATION   0: 
 -2391.173078232   0.000000000000 (    0.00)
 -2391.172645885   0.000000000000
 -2391.172561228   0.000000000000
 -2391.170396800   0.000000000000
 -2391.170330936   0.000000000000
 -2391.161628573   0.000000000000
 -2391.154044292   0.000000000000
 -2391.154041420   0.000000000000
 -2391.144094735   0.000000000000
 -2391.143961768   0.000000000000
 -2391.140254343   0.000000000000
 -2391.140188057   0.000000000000
 -2391.139647154   0.000000000000
 -2391.139563991   0.000000000000
 -2391.137795527   0.000000000000
 -2391.135409169   0.000000000000
 -2391.135327759   0.000000000000
 -2391.132046714   0.000000000000
 -2391.130603058   0.000000000000
 -2391.128532968   0.000000000000
 -2391.128417815   0.000000000000
 -2391.126386578   0.000000000000
 -2391.126095983   0.000000000000
 -2391.126042273   0.000000000000
 -2391.122068628   0.000000000000
 -2391.121924387   0.000000000000
 -2391.120512825   0.000000000000
 -2391.112036901   0.000000000000
 -2391.111922753   0.000000000000
 -2391.096944369   0.000000000000
 -2391.096817147   0.000000000000
 -2391.083462308   0.000000000000
 -2391.078969424   0.000000000000
 -2391.078579637   0.000000000000
 -2391.078517886   0.000000000000
 -2391.023522775   0.000000000000
 -2390.972887372   0.000000000000
 -2390.970682031   0.000000000000
 -2390.970672080   0.000000000000
 -2390.967603078   0.000000000000
 -2390.945223227   0.000000000000
 -2390.934692056   0.000000000000
 -2390.934592068   0.000000000000
 -2390.895062275   0.000000000000
 -2390.894984790   0.000000000000
   CI-PROBLEM SOLVED
   DENSITIES MADE
   E(CAS)= -2391.135393084 Eh DE=   -2.304302e-01
   --- Energy gap subspaces: Ext-Act = 0.264   Act-Int = 0.085
   N(occ)=  1.20000 1.20000 1.20000 1.20000 1.20000
   ||g|| =     5.950470e-01 Max(G)=   -7.543874e-02 Rot=111,106
   --- Orbital Update [SuperCI(PT)]
   --- Canonicalize Internal Space
   --- Canonicalize External Space
   --- SX_PT (Skipped TA=0 IT=0): ||X|| =      0.286324462 Max(X)(108,103) =      0.079043954 
   --- SFit(Active Orbitals)

MACRO-ITERATION   5: 
   --- Inactive Energy E0 = -2384.07841172 Eh
CI-ITERATION   0: 
 -2391.246866120   0.000000000000 (    0.00)
 -2391.246753839   0.000000000000
 -2391.246715681   0.000000000000
 -2391.220058383   0.000000000000
 -2391.219948892   0.000000000000
   CI-PROBLEM SOLVED
   DENSITIES MADE
CI-ITERATION   0: 
 -2391.227217922   0.000000000000 (    0.00)
 -2391.227149796   0.000000000000
 -2391.225318805   0.000000000000
 -2391.223773835   0.000000000000
 -2391.223683220   0.000000000000
 -2391.214933805   0.000000000000
 -2391.203751877   0.000000000000
 -2391.203649044   0.000000000000
 -2391.201712993   0.000000000000
 -2391.201705424   0.000000000000
 -2391.200154641   0.000000000000
 -2391.200122612   0.000000000000
 -2391.198189070   0.000000000000
 -2391.193953995   0.000000000000
 -2391.186719328   0.000000000000
 -2391.186620643   0.000000000000
 -2391.186467885   0.000000000000
 -2391.180711865   0.000000000000
 -2391.179810637   0.000000000000
 -2391.179783954   0.000000000000
 -2391.179280136   0.000000000000
 -2391.175003156   0.000000000000
 -2391.174965734   0.000000000000
 -2391.173943642   0.000000000000
 -2391.172535689   0.000000000000
 -2391.172532370   0.000000000000
 -2391.171269337   0.000000000000
 -2391.163584209   0.000000000000
 -2391.163529398   0.000000000000
 -2391.141125061   0.000000000000
 -2391.141036090   0.000000000000
 -2391.125923123   0.000000000000
 -2391.123177444   0.000000000000
 -2391.121623989   0.000000000000
 -2391.121571421   0.000000000000
 -2391.075204007   0.000000000000
 -2390.993774768   0.000000000000
 -2390.991851244   0.000000000000
 -2390.991837632   0.000000000000
 -2390.988872181   0.000000000000
 -2390.950730418   0.000000000000
 -2390.942330732   0.000000000000
 -2390.942232909   0.000000000000
 -2390.925455723   0.000000000000
 -2390.925389876   0.000000000000
   CI-PROBLEM SOLVED
   DENSITIES MADE
   E(CAS)= -2391.185747754 Eh DE=   -5.035467e-02
   --- Energy gap subspaces: Ext-Act = 0.269   Act-Int = 0.074
   N(occ)=  1.20000 1.20000 1.20000 1.20000 1.20000
   ||g|| =     3.418715e-01 Max(G)=   -5.792174e-02 Rot=111,106
   --- Orbital Update [SuperCI(PT)]
   --- Canonicalize Internal Space
   --- Canonicalize External Space
   --- SX_PT (Skipped TA=0 IT=0): ||X|| =      0.195537683 Max(X)(108,103) =      0.066725958 
   --- SFit(Active Orbitals)

MACRO-ITERATION   6: 
   --- Inactive Energy E0 = -2383.62885223 Eh
CI-ITERATION   0: 
 -2391.296366097   0.000000000000 (    0.00)
 -2391.296281399   0.000000000000
 -2391.271773224   0.000000000000
 -2391.257876435   0.000000000000
 -2391.257836164   0.000000000000
   CI-PROBLEM SOLVED
   DENSITIES MADE
CI-ITERATION   0: 
 -2391.276299931   0.000000000000 (    0.00)
 -2391.276213092   0.000000000000
 -2391.250723072   0.000000000000
 -2391.250039007   0.000000000000
 -2391.249976448   0.000000000000
 -2391.245494929   0.000000000000
 -2391.242368657   0.000000000000
 -2391.242329030   0.000000000000
 -2391.238166098   0.000000000000
 -2391.238121319   0.000000000000
 -2391.236197731   0.000000000000
 -2391.227798946   0.000000000000
 -2391.225226234   0.000000000000
 -2391.225144278   0.000000000000
 -2391.221493569   0.000000000000
 -2391.221486482   0.000000000000
 -2391.218649556   0.000000000000
 -2391.218456333   0.000000000000
 -2391.216368657   0.000000000000
 -2391.216350948   0.000000000000
 -2391.214945655   0.000000000000
 -2391.211992115   0.000000000000
 -2391.211975964   0.000000000000
 -2391.211796877   0.000000000000
 -2391.208415321   0.000000000000
 -2391.208334686   0.000000000000
 -2391.202512190   0.000000000000
 -2391.193338661   0.000000000000
 -2391.193306111   0.000000000000
 -2391.172080253   0.000000000000
 -2391.171952693   0.000000000000
 -2391.154869664   0.000000000000
 -2391.151229805   0.000000000000
 -2391.150574558   0.000000000000
 -2391.150546006   0.000000000000
 -2391.100989199   0.000000000000
 -2390.962759233   0.000000000000
 -2390.961095333   0.000000000000
 -2390.961080592   0.000000000000
 -2390.957955002   0.000000000000
 -2390.950529052   0.000000000000
 -2390.950402737   0.000000000000
 -2390.949294596   0.000000000000
 -2390.913793039   0.000000000000
 -2390.913695167   0.000000000000
   CI-PROBLEM SOLVED
   DENSITIES MADE
   E(CAS)= -2391.217639652 Eh DE=   -3.189190e-02
   --- Energy gap subspaces: Ext-Act = 0.279   Act-Int = 0.083
   N(occ)=  1.20000 1.20000 1.20000 1.20000 1.20000
   ||g|| =     4.021126e-01 Max(G)=    2.991125e-02 Rot=299,73
   --- Orbital Update [SuperCI(PT)]
   --- Canonicalize Internal Space
   --- Canonicalize External Space
   --- SX_PT (Skipped TA=0 IT=0): ||X|| =      0.117346542 Max(X)(108,103) =     -0.041214126 
   --- SFit(Active Orbitals)

MACRO-ITERATION   7: 
   --- Inactive Energy E0 = -2383.31189566 Eh
CI-ITERATION   0: 
 -2391.299441129   0.000000000000 (    0.00)
 -2391.299392908   0.000000000000
 -2391.286448985   0.000000000000
 -2391.276044936   0.000000000000
 -2391.276034219   0.000000000000
   CI-PROBLEM SOLVED
   DENSITIES MADE
CI-ITERATION   0: 
 -2391.280060043   0.000000000000 (    0.02)
 -2391.280000139   0.000000000000
 -2391.265975155   0.000000000000
 -2391.265373744   0.000000000000
 -2391.265309607   0.000000000000
 -2391.262439615   0.000000000000
 -2391.260323429   0.000000000000
 -2391.260307184   0.000000000000
 -2391.255967847   0.000000000000
 -2391.255945291   0.000000000000
 -2391.253620813   0.000000000000
 -2391.241016066   0.000000000000
 -2391.238806137   0.000000000000
 -2391.238759934   0.000000000000
 -2391.233632996   0.000000000000
 -2391.233632387   0.000000000000
 -2391.223714022   0.000000000000
 -2391.223126199   0.000000000000
 -2391.223096424   0.000000000000
 -2391.219244224   0.000000000000
 -2391.215855485   0.000000000000
 -2391.213261018   0.000000000000
 -2391.213049825   0.000000000000
 -2391.213047579   0.000000000000
 -2391.211139187   0.000000000000
 -2391.208718672   0.000000000000
 -2391.208682403   0.000000000000
 -2391.203205776   0.000000000000
 -2391.203170902   0.000000000000
 -2391.171405834   0.000000000000
 -2391.171306431   0.000000000000
 -2391.151317182   0.000000000000
 -2391.150268969   0.000000000000
 -2391.147290400   0.000000000000
 -2391.147271877   0.000000000000
 -2391.112902984   0.000000000000
 -2390.975496647   0.000000000000
 -2390.974001463   0.000000000000
 -2390.973984805   0.000000000000
 -2390.970781881   0.000000000000
 -2390.933534636   0.000000000000
 -2390.933452004   0.000000000000
 -2390.918100588   0.000000000000
 -2390.917987874   0.000000000000
 -2390.911644408   0.000000000000
   CI-PROBLEM SOLVED
   DENSITIES MADE
   E(CAS)= -2391.226305441 Eh DE=   -8.665789e-03
   --- Energy gap subspaces: Ext-Act = 0.274   Act-Int = 0.056
   N(occ)=  1.20000 1.20000 1.20000 1.20000 1.20000
   ||g|| =     1.287195e-01 Max(G)=    1.979603e-02 Rot=110,104
   --- Orbital Update [SuperCI(PT)]
   --- Canonicalize Internal Space
   --- Canonicalize External Space
   --- SX_PT (Skipped TA=0 IT=0): ||X|| =      0.055376920 Max(X)(119,104) =      0.012006697 
   --- SFit(Active Orbitals)

MACRO-ITERATION   8: 
   --- Inactive Energy E0 = -2383.28443922 Eh
CI-ITERATION   0: 
 -2391.304576766   0.000000000000 (    0.00)
 -2391.304531402   0.000000000000
 -2391.284294952   0.000000000000
 -2391.275283640   0.000000000000
 -2391.275273041   0.000000000000
   CI-PROBLEM SOLVED
   DENSITIES MADE
CI-ITERATION   0: 
 -2391.284306181   0.000000000000 (    0.02)
 -2391.284251654   0.000000000000
 -2391.263362219   0.000000000000
 -2391.263301448   0.000000000000
 -2391.263201416   0.000000000000
 -2391.261316017   0.000000000000
 -2391.259378938   0.000000000000
 -2391.259363516   0.000000000000
 -2391.254969005   0.000000000000
 -2391.254949264   0.000000000000
 -2391.252690068   0.000000000000
 -2391.239294422   0.000000000000
 -2391.237988409   0.000000000000
 -2391.237946641   0.000000000000
 -2391.230691002   0.000000000000
 -2391.230689407   0.000000000000
 -2391.225504857   0.000000000000
 -2391.225483005   0.000000000000
 -2391.225390283   0.000000000000
 -2391.222928689   0.000000000000
 -2391.219429065   0.000000000000
 -2391.216919944   0.000000000000
 -2391.216912711   0.000000000000
 -2391.215549822   0.000000000000
 -2391.214210796   0.000000000000
 -2391.212719053   0.000000000000
 -2391.212678044   0.000000000000
 -2391.204033662   0.000000000000
 -2391.204018216   0.000000000000
 -2391.173742641   0.000000000000
 -2391.173649034   0.000000000000
 -2391.155569406   0.000000000000
 -2391.153442188   0.000000000000
 -2391.151295929   0.000000000000
 -2391.151277703   0.000000000000
 -2391.112127609   0.000000000000
 -2390.972213186   0.000000000000
 -2390.970697816   0.000000000000
 -2390.970680511   0.000000000000
 -2390.967217278   0.000000000000
 -2390.934676502   0.000000000000
 -2390.934577656   0.000000000000
 -2390.933320388   0.000000000000
 -2390.933236092   0.000000000000
 -2390.926958182   0.000000000000
   CI-PROBLEM SOLVED
   DENSITIES MADE
   E(CAS)= -2391.227819979 Eh DE=   -1.514538e-03
   --- Energy gap subspaces: Ext-Act = 0.273   Act-Int = 0.064
   N(occ)=  1.20000 1.20000 1.20000 1.20000 1.20000
   ||g|| =     9.890283e-02 Max(G)=    1.223929e-02 Rot=110,104
   --- Orbital Update [SuperCI(PT)]
   --- Canonicalize Internal Space
   --- Canonicalize External Space
   --- SX_PT (Skipped TA=0 IT=0): ||X|| =      0.041797397 Max(X)(108,103) =     -0.007279498 
   --- SFit(Active Orbitals)

MACRO-ITERATION   9: 
   --- Inactive Energy E0 = -2383.19273366 Eh
CI-ITERATION   0: 
 -2391.305928484   0.000000000000 (    0.00)
 -2391.305867673   0.000000000000
 -2391.284979002   0.000000000000
 -2391.277281222   0.000000000000
 -2391.277275340   0.000000000000
   CI-PROBLEM SOLVED
   DENSITIES MADE
CI-ITERATION   0: 
 -2391.285108333   0.000000000000 (    0.00)
 -2391.285035581   0.000000000000
 -2391.264302784   0.000000000000
 -2391.264241817   0.000000000000
 -2391.263549201   0.000000000000
 -2391.262989135   0.000000000000
 -2391.261097153   0.000000000000
 -2391.261081489   0.000000000000
 -2391.256503736   0.000000000000
 -2391.256486047   0.000000000000
 -2391.254301958   0.000000000000
 -2391.239796275   0.000000000000
 -2391.239219788   0.000000000000
 -2391.239181635   0.000000000000
 -2391.230190020   0.000000000000
 -2391.230185344   0.000000000000
 -2391.225889695   0.000000000000
 -2391.225863664   0.000000000000
 -2391.225480238   0.000000000000
 -2391.222710525   0.000000000000
 -2391.219708757   0.000000000000
 -2391.217244368   0.000000000000
 -2391.217230409   0.000000000000
 -2391.215623214   0.000000000000
 -2391.214824974   0.000000000000
 -2391.213159129   0.000000000000
 -2391.213107510   0.000000000000
 -2391.204403275   0.000000000000
 -2391.204383816   0.000000000000
 -2391.172296863   0.000000000000
 -2391.172189644   0.000000000000
 -2391.155167044   0.000000000000
 -2391.152995300   0.000000000000
 -2391.150764843   0.000000000000
 -2391.150751216   0.000000000000
 -2391.112666310   0.000000000000
 -2390.974949573   0.000000000000
 -2390.973453948   0.000000000000
 -2390.973436792   0.000000000000
 -2390.969703398   0.000000000000
 -2390.939311697   0.000000000000
 -2390.939226670   0.000000000000
 -2390.936257746   0.000000000000
 -2390.936167173   0.000000000000
 -2390.927045230   0.000000000000
   CI-PROBLEM SOLVED
   DENSITIES MADE
   E(CAS)= -2391.229014098 Eh DE=   -1.194119e-03
   --- Energy gap subspaces: Ext-Act = 0.270   Act-Int = 0.061
   N(occ)=  1.20000 1.20000 1.20000 1.20000 1.20000
   ||g|| =     7.613382e-02 Max(G)=    1.335450e-02 Rot=109,105
   --- Orbital Update [SuperCI(PT)]
   --- Canonicalize Internal Space
   --- Canonicalize External Space
   --- SX_PT (Skipped TA=0 IT=0): ||X|| =      0.035734709 Max(X)(119,104) =     -0.006563197 
   --- SFit(Active Orbitals)

MACRO-ITERATION  10: 
   --- Inactive Energy E0 = -2383.14133557 Eh
CI-ITERATION   0: 
 -2391.307725126   0.000000000000 (    0.00)
 -2391.307669307   0.000000000000
 -2391.283939145   0.000000000000
 -2391.277117450   0.000000000000
 -2391.277111126   0.000000000000
   CI-PROBLEM SOLVED
   DENSITIES MADE
CI-ITERATION   0: 
 -2391.286048171   0.000000000000 (    0.00)
 -2391.285979639   0.000000000000
 -2391.263404383   0.000000000000
 -2391.263344435   0.000000000000
 -2391.262639172   0.000000000000
 -2391.262043662   0.000000000000
 -2391.260694162   0.000000000000
 -2391.260681221   0.000000000000
 -2391.255796416   0.000000000000
 -2391.255781665   0.000000000000
 -2391.253717238   0.000000000000
 -2391.238715921   0.000000000000
 -2391.238612160   0.000000000000
 -2391.238580860   0.000000000000
 -2391.228172971   0.000000000000
 -2391.228160119   0.000000000000
 -2391.226119765   0.000000000000
 -2391.226086139   0.000000000000
 -2391.225661937   0.000000000000
 -2391.223224951   0.000000000000
 -2391.221003295   0.000000000000
 -2391.218428707   0.000000000000
 -2391.218408391   0.000000000000
 -2391.216801742   0.000000000000
 -2391.214743931   0.000000000000
 -2391.214693501   0.000000000000
 -2391.214355216   0.000000000000
 -2391.204139828   0.000000000000
 -2391.204122868   0.000000000000
 -2391.171611292   0.000000000000
 -2391.171511222   0.000000000000
 -2391.156648732   0.000000000000
 -2391.153817552   0.000000000000
 -2391.152063682   0.000000000000
 -2391.152050474   0.000000000000
 -2391.112437097   0.000000000000
 -2390.978518357   0.000000000000
 -2390.977008666   0.000000000000
 -2390.976992151   0.000000000000
 -2390.972912917   0.000000000000
 -2390.946901101   0.000000000000
 -2390.946816229   0.000000000000
 -2390.945308837   0.000000000000
 -2390.945219335   0.000000000000
 -2390.937392844   0.000000000000
   CI-PROBLEM SOLVED
   DENSITIES MADE
   E(CAS)= -2391.229882581 Eh DE=   -8.684837e-04
   --- Energy gap subspaces: Ext-Act = 0.268   Act-Int = 0.064
   N(occ)=  1.20000 1.20000 1.20000 1.20000 1.20000
   ||g|| =     5.887887e-02 Max(G)=    1.031627e-02 Rot=110,104
   --- Orbital Update [SuperCI(PT)]
   --- Canonicalize Internal Space
   --- Canonicalize External Space
   --- SX_PT (Skipped TA=0 IT=0): ||X|| =      0.030284913 Max(X)(108,103) =      0.007125880 
   --- SFit(Active Orbitals)

MACRO-ITERATION  11: 
   --- Inactive Energy E0 = -2383.10573021 Eh
CI-ITERATION   0: 
 -2391.308756299   0.000000000000 (    0.00)
 -2391.308693814   0.000000000000
 -2391.282374998   0.000000000000
 -2391.276436301   0.000000000000
 -2391.276426685   0.000000000000
   CI-PROBLEM SOLVED
   DENSITIES MADE
CI-ITERATION   0: 
 -2391.286057569   0.000000000000 (    0.02)
 -2391.285982065   0.000000000000
 -2391.261978261   0.000000000000
 -2391.261916573   0.000000000000
 -2391.261672939   0.000000000000
 -2391.260028642   0.000000000000
 -2391.259643015   0.000000000000
 -2391.259631818   0.000000000000
 -2391.254383059   0.000000000000
 -2391.254370472   0.000000000000
 -2391.252379313   0.000000000000
 -2391.237487060   0.000000000000
 -2391.237451369   0.000000000000
 -2391.237195969   0.000000000000
 -2391.226209076   0.000000000000
 -2391.226177566   0.000000000000
 -2391.225599136   0.000000000000
 -2391.225549071   0.000000000000
 -2391.225502209   0.000000000000
 -2391.223413473   0.000000000000
 -2391.221922215   0.000000000000
 -2391.219295927   0.000000000000
 -2391.219270770   0.000000000000
 -2391.217765473   0.000000000000
 -2391.216207138   0.000000000000
 -2391.216150685   0.000000000000
 -2391.213567287   0.000000000000
 -2391.203714214   0.000000000000
 -2391.203699687   0.000000000000
 -2391.170855346   0.000000000000
 -2391.170753624   0.000000000000
 -2391.158443718   0.000000000000
 -2391.154637655   0.000000000000
 -2391.153698821   0.000000000000
 -2391.153685309   0.000000000000
 -2391.112776933   0.000000000000
 -2390.984662322   0.000000000000
 -2390.983118082   0.000000000000
 -2390.983103993   0.000000000000
 -2390.978609020   0.000000000000
 -2390.960015393   0.000000000000
 -2390.959931390   0.000000000000
 -2390.953667109   0.000000000000
 -2390.953572240   0.000000000000
 -2390.951338190   0.000000000000
   CI-PROBLEM SOLVED
   DENSITIES MADE
   E(CAS)= -2391.230569823 Eh DE=   -6.872415e-04
   --- Energy gap subspaces: Ext-Act = 0.265   Act-Int = 0.068
   N(occ)=  1.20000 1.20000 1.20000 1.20000 1.20000
   ||g|| =     4.803922e-02 Max(G)=    7.934857e-03 Rot=109,105
   --- Orbital Update [SuperCI(PT)]
   --- Canonicalize Internal Space
   --- Canonicalize External Space
   --- SX_PT (Skipped TA=0 IT=0): ||X|| =      0.024888593 Max(X)(108,103) =      0.006724007 
   --- SFit(Active Orbitals)

MACRO-ITERATION  12: 
   --- Inactive Energy E0 = -2383.07764444 Eh
CI-ITERATION   0: 
 -2391.310266142   0.000000000000 (    0.00)
 -2391.310199887   0.000000000000
 -2391.280373603   0.000000000000
 -2391.275253415   0.000000000000
 -2391.275239196   0.000000000000
   CI-PROBLEM SOLVED
   DENSITIES MADE
CI-ITERATION   0: 
 -2391.286553853   0.000000000000 (    0.00)
 -2391.286474480   0.000000000000
 -2391.260263050   0.000000000000
 -2391.260151190   0.000000000000
 -2391.260086079   0.000000000000
 -2391.258256491   0.000000000000
 -2391.258248756   0.000000000000
 -2391.257859819   0.000000000000
 -2391.252418014   0.000000000000
 -2391.252406414   0.000000000000
 -2391.250456686   0.000000000000
 -2391.236163060   0.000000000000
 -2391.236125999   0.000000000000
 -2391.235804471   0.000000000000
 -2391.226083135   0.000000000000
 -2391.225681986   0.000000000000
 -2391.225663548   0.000000000000
 -2391.223898304   0.000000000000
 -2391.223220653   0.000000000000
 -2391.223208281   0.000000000000
 -2391.222483405   0.000000000000
 -2391.220399958   0.000000000000
 -2391.220373300   0.000000000000
 -2391.219143627   0.000000000000
 -2391.217857036   0.000000000000
 -2391.217807662   0.000000000000
 -2391.212515166   0.000000000000
 -2391.202980326   0.000000000000
 -2391.202967153   0.000000000000
 -2391.170389919   0.000000000000
 -2391.170290711   0.000000000000
 -2391.160572616   0.000000000000
 -2391.155645689   0.000000000000
 -2391.155631382   0.000000000000
 -2391.155553470   0.000000000000
 -2391.112527747   0.000000000000
 -2390.988741415   0.000000000000
 -2390.987165947   0.000000000000
 -2390.987154365   0.000000000000
 -2390.982224731   0.000000000000
 -2390.973853672   0.000000000000
 -2390.973766437   0.000000000000
 -2390.966143005   0.000000000000
 -2390.959674328   0.000000000000
 -2390.959572029   0.000000000000
   CI-PROBLEM SOLVED
   DENSITIES MADE
   E(CAS)= -2391.231071662 Eh DE=   -5.018388e-04
   --- Energy gap subspaces: Ext-Act = 0.263   Act-Int = 0.073
   N(occ)=  1.20000 1.20000 1.20000 1.20000 1.20000
   ||g|| =     3.550566e-02 Max(G)=    4.486529e-03 Rot=109,105
   --- Orbital Update [SuperCI(PT)]
   --- Canonicalize Internal Space
   --- Canonicalize External Space
   --- SX_PT (Skipped TA=0 IT=0): ||X|| =      0.017741769 Max(X)(108,103) =      0.004718003 
   --- SFit(Active Orbitals)

MACRO-ITERATION  13: 
   --- Inactive Energy E0 = -2383.06046699 Eh
CI-ITERATION   0: 
 -2391.311148333   0.000000000000 (    0.00)
 -2391.311085187   0.000000000000
 -2391.278992111   0.000000000000
 -2391.274452313   0.000000000000
 -2391.274434648   0.000000000000
   CI-PROBLEM SOLVED
   DENSITIES MADE
CI-ITERATION   0: 
 -2391.286749530   0.000000000000 (    0.00)
 -2391.286673954   0.000000000000
 -2391.259248768   0.000000000000
 -2391.258951996   0.000000000000
 -2391.258883618   0.000000000000
 -2391.257316663   0.000000000000
 -2391.257313869   0.000000000000
 -2391.256519058   0.000000000000
 -2391.251010526   0.000000000000
 -2391.250998746   0.000000000000
 -2391.249040629   0.000000000000
 -2391.235324748   0.000000000000
 -2391.235284636   0.000000000000
 -2391.235058554   0.000000000000
 -2391.226747299   0.000000000000
 -2391.225375151   0.000000000000
 -2391.225351493   0.000000000000
 -2391.224089307   0.000000000000
 -2391.222170507   0.000000000000
 -2391.222128534   0.000000000000
 -2391.222116421   0.000000000000
 -2391.220769033   0.000000000000
 -2391.220733969   0.000000000000
 -2391.219958547   0.000000000000
 -2391.218361340   0.000000000000
 -2391.218344647   0.000000000000
 -2391.211828778   0.000000000000
 -2391.202411749   0.000000000000
 -2391.202398708   0.000000000000
 -2391.169973107   0.000000000000
 -2391.169881380   0.000000000000
 -2391.161895923   0.000000000000
 -2391.156828832   0.000000000000
 -2391.156810377   0.000000000000
 -2391.155990523   0.000000000000
 -2391.112392286   0.000000000000
 -2390.991484799   0.000000000000
 -2390.989887228   0.000000000000
 -2390.989876402   0.000000000000
 -2390.984620469   0.000000000000
 -2390.982864939   0.000000000000
 -2390.982769680   0.000000000000
 -2390.975886982   0.000000000000
 -2390.963758588   0.000000000000
 -2390.963646237   0.000000000000
   CI-PROBLEM SOLVED
   DENSITIES MADE
   E(CAS)= -2391.231341576 Eh DE=   -2.699146e-04
   --- Energy gap subspaces: Ext-Act = 0.261   Act-Int = 0.077
   N(occ)=  1.20000 1.20000 1.20000 1.20000 1.20000
   ||g|| =     2.457517e-02 Max(G)=    3.080922e-03 Rot=109,74
   --- Orbital Update [SuperCI(PT)]
   --- Canonicalize Internal Space
   --- Canonicalize External Space
   --- SX_PT (Skipped TA=0 IT=0): ||X|| =      0.012118829 Max(X)(108,103) =      0.003160719 
   --- SFit(Active Orbitals)

MACRO-ITERATION  14: 
   --- Inactive Energy E0 = -2383.05652256 Eh
CI-ITERATION   0: 
 -2391.311284130   0.000000000000 (    0.00)
 -2391.311219189   0.000000000000
 -2391.278579109   0.000000000000
 -2391.274254631   0.000000000000
 -2391.274235841   0.000000000000
   CI-PROBLEM SOLVED
   DENSITIES MADE
CI-ITERATION   0: 
 -2391.286668249   0.000000000000 (    0.02)
 -2391.286590894   0.000000000000
 -2391.258968571   0.000000000000
 -2391.258615570   0.000000000000
 -2391.258543409   0.000000000000
 -2391.257055332   0.000000000000
 -2391.257053713   0.000000000000
 -2391.256142587   0.000000000000
 -2391.250583804   0.000000000000
 -2391.250571494   0.000000000000
 -2391.248611637   0.000000000000
 -2391.235074614   0.000000000000
 -2391.235029284   0.000000000000
 -2391.234825094   0.000000000000
 -2391.226952708   0.000000000000
 -2391.225296821   0.000000000000
 -2391.225273103   0.000000000000
 -2391.224042313   0.000000000000
 -2391.221992780   0.000000000000
 -2391.221950376   0.000000000000
 -2391.221879056   0.000000000000
 -2391.220774136   0.000000000000
 -2391.220729190   0.000000000000
 -2391.220130490   0.000000000000
 -2391.218266865   0.000000000000
 -2391.218260927   0.000000000000
 -2391.211644001   0.000000000000
 -2391.202261202   0.000000000000
 -2391.202248996   0.000000000000
 -2391.169768817   0.000000000000
 -2391.169677249   0.000000000000
 -2391.162264969   0.000000000000
 -2391.157167969   0.000000000000
 -2391.157147459   0.000000000000
 -2391.156089823   0.000000000000
 -2391.112514238   0.000000000000
 -2390.992774608   0.000000000000
 -2390.991166872   0.000000000000
 -2390.991155135   0.000000000000
 -2390.985785604   0.000000000000
 -2390.985577050   0.000000000000
 -2390.985475269   0.000000000000
 -2390.979013581   0.000000000000
 -2390.965498945   0.000000000000
 -2390.965378578   0.000000000000
   CI-PROBLEM SOLVED
   DENSITIES MADE
   E(CAS)= -2391.231429439 Eh DE=   -8.786240e-05
   --- Energy gap subspaces: Ext-Act = 0.260   Act-Int = 0.078
   N(occ)=  1.20000 1.20000 1.20000 1.20000 1.20000
   ||g|| =     1.979218e-02 Max(G)=    2.422168e-03 Rot=109,74
   --- Orbital Update [SuperCI(PT)]
   --- Canonicalize Internal Space
   --- Canonicalize External Space
   --- SX_PT (Skipped TA=0 IT=0): ||X|| =      0.009335141 Max(X)(108,103) =      0.002076154 
   --- SFit(Active Orbitals)

MACRO-ITERATION  15: 
   --- Inactive Energy E0 = -2383.04801420 Eh
CI-ITERATION   0: 
 -2391.311557370   0.000000000000 (    0.00)
 -2391.311495231   0.000000000000
 -2391.278043307   0.000000000000
 -2391.273929880   0.000000000000
 -2391.273910220   0.000000000000
   CI-PROBLEM SOLVED
   DENSITIES MADE
CI-ITERATION   0: 
 -2391.286663010   0.000000000000 (    0.00)
 -2391.286588868   0.000000000000
 -2391.258569317   0.000000000000
 -2391.258159063   0.000000000000
 -2391.258083892   0.000000000000
 -2391.256675140   0.000000000000
 -2391.256674511   0.000000000000
 -2391.255658632   0.000000000000
 -2391.249994839   0.000000000000
 -2391.249982275   0.000000000000
 -2391.248013036   0.000000000000
 -2391.234740152   0.000000000000
 -2391.234688788   0.000000000000
 -2391.234559921   0.000000000000
 -2391.227256727   0.000000000000
 -2391.225201519   0.000000000000
 -2391.225177696   0.000000000000
 -2391.224026655   0.000000000000
 -2391.221874924   0.000000000000
 -2391.221836220   0.000000000000
 -2391.221510240   0.000000000000
 -2391.220851067   0.000000000000
 -2391.220792176   0.000000000000
 -2391.220357846   0.000000000000
 -2391.217961162   0.000000000000
 -2391.217952988   0.000000000000
 -2391.211367415   0.000000000000
 -2391.201983314   0.000000000000
 -2391.201971576   0.000000000000
 -2391.169515175   0.000000000000
 -2391.169428230   0.000000000000
 -2391.162697118   0.000000000000
 -2391.157531561   0.000000000000
 -2391.157508298   0.000000000000
 -2391.156170996   0.000000000000
 -2391.112419791   0.000000000000
 -2390.993965450   0.000000000000
[...]
      px      :     2.142705
      py      :     2.127272
      dz2     :     2.008321  d :     9.985414
      dxz     :     1.988024
      dyz     :     1.992649
      dx2y2   :     1.998506
      dxy     :     1.997915
      f0      :     0.000520  f :     0.003917
      f+1     :     0.000730
      f-1     :     0.000629
      f+2     :     0.000394
      f-2     :     0.000636
      f+3     :     0.000544
      f-3     :     0.000466
  2 Aus       :     2.486144  s :     2.486144
      pz      :     2.128419  p :     6.444932
      px      :     2.222106
      py      :     2.094407
      dz2     :     2.003790  d :     9.985418
      dxz     :     1.997021
      dyz     :     1.994897
      dx2y2   :     1.980005
      dxy     :     2.009705
      f0      :     0.000381  f :     0.003916
      f+1     :     0.000711
      f-1     :     0.000607
      f+2     :     0.000398
      f-2     :     0.000512
      f+3     :     0.000621
      f-3     :     0.000686
  3 Aus       :     2.508215  s :     2.508215
      pz      :     2.058758  p :     6.478281
      px      :     2.191795
      py      :     2.227729
      dz2     :     1.999908  d :     9.967381
      dxz     :     1.993242
      dyz     :     1.984527
      dx2y2   :     1.998595
      dxy     :     1.991109
      f0      :     0.000378  f :     0.004525
      f+1     :     0.000602
      f-1     :     0.000600
      f+2     :     0.000346
      f-2     :     0.000605
      f+3     :     0.001001
      f-3     :     0.000992
  4 Aus       :     2.568602  s :     2.568602
      pz      :     2.058112  p :     6.357554
      px      :     2.069899
      py      :     2.229543
      dz2     :     1.982502  d :     9.963600
      dxz     :     1.994069
      dyz     :     2.001921
      dx2y2   :     1.992546
      dxy     :     1.992561
      f0      :     0.000714  f :     0.004158
      f+1     :     0.000310
      f-1     :     0.000815
      f+2     :     0.000655
      f-2     :     0.000735
      f+3     :     0.000472
      f-3     :     0.000457
  5 Aus       :     2.736701  s :     2.736701
      pz      :     2.047387  p :     6.183422
      px      :     2.041248
      py      :     2.094788
      dz2     :     1.984895  d :     9.950887
      dxz     :     1.994535
      dyz     :     1.992866
      dx2y2   :     1.994145
      dxy     :     1.984445
      f0      :     0.000466  f :     0.003426
      f+1     :     0.000329
      f-1     :     0.000738
      f+2     :     0.000253
      f-2     :     0.000373
      f+3     :     0.000679
      f-3     :     0.000589
  6 Aus       :     2.507918  s :     2.507918
      pz      :     2.265356  p :     6.478603
      px      :     2.055348
      py      :     2.157899
      dz2     :     1.998914  d :     9.967455
      dxz     :     1.999956
      dyz     :     1.990457
      dx2y2   :     1.987070
      dxy     :     1.991059
      f0      :     0.000644  f :     0.004518
      f+1     :     0.000358
      f-1     :     0.001250
      f+2     :     0.000886
      f-2     :     0.000622
      f+3     :     0.000359
      f-3     :     0.000398
  7 Aus       :     2.568605  s :     2.568605
      pz      :     2.102013  p :     6.357645
      px      :     2.087083
      py      :     2.168549
      dz2     :     1.995114  d :     9.963597
      dxz     :     1.993719
      dyz     :     1.989027
      dx2y2   :     1.996058
      dxy     :     1.989679
      f0      :     0.000569  f :     0.004159
      f+1     :     0.000617
      f-1     :     0.000575
      f+2     :     0.000440
      f-2     :     0.000384
      f+3     :     0.000702
      f-3     :     0.000871
  8 Aus       :     2.508184  s :     2.508184
      pz      :     2.059413  p :     6.478366
      px      :     2.092606
      py      :     2.326347
      dz2     :     2.000178  d :     9.967371
      dxz     :     1.985832
      dyz     :     1.990758
      dx2y2   :     2.000520
      dxy     :     1.990083
      f0      :     0.000393  f :     0.004518
      f+1     :     0.000454
      f-1     :     0.000756
      f+2     :     0.000583
      f-2     :     0.000361
      f+3     :     0.001076
      f-3     :     0.000895
  9 Aus       :     2.486388  s :     2.486388
      pz      :     2.181688  p :     6.444987
      px      :     2.138956
      py      :     2.124343
      dz2     :     2.007439  d :     9.985363
      dxz     :     1.996896
      dyz     :     1.984573
      dx2y2   :     2.002774
      dxy     :     1.993680
      f0      :     0.000540  f :     0.003916
      f+1     :     0.000787
      f-1     :     0.000536
      f+2     :     0.000544
      f-2     :     0.000496
      f+3     :     0.000572
      f-3     :     0.000442
 10 Crs       :     6.300350  s :     6.300350
      pz      :     4.226100  p :    12.681103
      px      :     4.225700
      py      :     4.229303
      dz2     :     1.350492  d :     5.823426
      dxz     :     1.008557
      dyz     :     1.054852
      dx2y2   :     1.284977
      dxy     :     1.124547
      f0      :     0.000323  f :     0.002031
      f+1     :     0.000165
      f-1     :     0.000203
      f+2     :     0.000356
      f-2     :     0.000438
      f+3     :     0.000252
      f-3     :     0.000294

SPIN
  0 Aus       :     0.000656  s :     0.000656
      pz      :     0.013711  p :     0.051328
      px      :     0.002202
      py      :     0.035415
      dz2     :     0.007152  d :     0.023327
      dxz     :     0.003174
      dyz     :     0.000946
      dx2y2   :     0.003579
      dxy     :     0.008476
      f0      :     0.000046  f :     0.000365
      f+1     :     0.000075
      f-1     :     0.000013
      f+2     :     0.000052
      f-2     :     0.000028
      f+3     :     0.000098
      f-3     :     0.000053
  1 Aus       :     0.040598  s :     0.040598
      pz      :     0.012897  p :     0.025680
      px      :     0.010594
      py      :     0.002189
      dz2     :     0.003457  d :     0.014227
      dxz     :     0.002927
      dyz     :     0.002563
      dx2y2   :     0.003391
      dxy     :     0.001890
      f0      :     0.000026  f :     0.000306
      f+1     :     0.000037
      f-1     :     0.000032
      f+2     :     0.000040
      f-2     :     0.000092
      f+3     :     0.000040
      f-3     :     0.000039
  2 Aus       :     0.040604  s :     0.040604
      pz      :     0.006119  p :     0.025718
      px      :     0.016380
      py      :     0.003219
      dz2     :     0.002357  d :     0.014219
      dxz     :     0.006063
      dyz     :     0.002670
      dx2y2   :     0.001386
      dxy     :     0.001743
      f0      :     0.000041  f :     0.000306
      f+1     :     0.000014
      f-1     :     0.000044
      f+2     :     0.000058
      f-2     :     0.000044
      f+3     :     0.000046
      f-3     :     0.000058
  3 Aus       :     0.040383  s :     0.040383
      pz      :     0.004215  p :     0.013784
      px      :     0.006819
      py      :     0.002750
      dz2     :     0.004152  d :     0.016107
      dxz     :     0.003389
      dyz     :     0.001593
      dx2y2   :     0.002983
      dxy     :     0.003990
      f0      :     0.000030  f :     0.000405
      f+1     :     0.000058
      f-1     :     0.000071
      f+2     :     0.000037
      f-2     :     0.000095
      f+3     :     0.000049
      f-3     :     0.000065
  4 Aus       :     0.000648  s :     0.000648
      pz      :     0.002105  p :     0.051062
      px      :     0.009508
      py      :     0.039449
      dz2     :     0.004681  d :     0.023286
      dxz     :     0.004258
      dyz     :     0.008408
      dx2y2   :     0.001621
      dxy     :     0.004317
      f0      :     0.000165  f :     0.000367
      f+1     :     0.000063
      f-1     :     0.000063
      f+2     :     0.000027
      f-2     :     0.000042
      f+3     :     0.000003
      f-3     :     0.000003
  5 Aus       :     0.005404  s :     0.005404
      pz      :     0.006451  p :     0.015526
      px      :     0.007124
      py      :     0.001951
      dz2     :     0.003062  d :     0.009712
      dxz     :     0.000103
      dyz     :     0.001644
      dx2y2   :     0.000908
      dxy     :     0.003996
      f0      :     0.000005  f :     0.000095
      f+1     :     0.000009
      f-1     :     0.000036
      f+2     :     0.000003
      f-2     :     0.000001
      f+3     :     0.000026
      f-3     :     0.000015
  6 Aus       :     0.040185  s :     0.040185
      pz      :     0.007102  p :     0.013825
      px      :     0.003835
      py      :     0.002888
      dz2     :     0.001189  d :     0.016118
      dxz     :     0.005314
      dyz     :     0.005181
      dx2y2   :     0.001243
      dxy     :     0.003191
      f0      :     0.000052  f :     0.000404
      f+1     :     0.000010
      f-1     :     0.000061
      f+2     :     0.000086
      f-2     :     0.000070
      f+3     :     0.000069
      f-3     :     0.000056
  7 Aus       :     0.000651  s :     0.000651
      pz      :     0.013640  p :     0.051102
      px      :     0.007950
      py      :     0.029512
      dz2     :     0.007578  d :     0.023286
      dxz     :     0.002155
      dyz     :     0.001626
      dx2y2   :     0.007913
      dxy     :     0.004014
      f0      :     0.000052  f :     0.000367
      f+1     :     0.000061
      f-1     :     0.000024
      f+2     :     0.000014
      f-2     :     0.000074
      f+3     :     0.000041
      f-3     :     0.000101
  8 Aus       :     0.040234  s :     0.040234
      pz      :     0.004392  p :     0.013792
      px      :     0.005950
      py      :     0.003450
      dz2     :     0.004662  d :     0.016104
      dxz     :     0.002267
      dyz     :     0.002267
      dx2y2   :     0.005069
      dxy     :     0.001840
      f0      :     0.000035  f :     0.000404
      f+1     :     0.000092
      f-1     :     0.000040
      f+2     :     0.000071
      f-2     :     0.000062
      f+3     :     0.000048
      f-3     :     0.000054
  9 Aus       :     0.040302  s :     0.040302
      pz      :     0.013386  p :     0.025800
      px      :     0.008576
      py      :     0.003838
      dz2     :     0.003120  d :     0.014251
      dxz     :     0.004073
      dyz     :     0.001706
      dx2y2   :     0.003234
      dxy     :     0.002118
      f0      :     0.000026  f :     0.000305
      f+1     :     0.000030
      f-1     :     0.000032
      f+2     :     0.000056
      f-2     :     0.000075
      f+3     :     0.000047
      f-3     :     0.000040
 10 Crs       :     0.000093  s :     0.000093
      pz      :     0.001631  p :     0.004041
      px      :     0.001749
      py      :     0.000661
      dz2     :     0.562705  d :     2.284619
      dxz     :     0.402824
      dyz     :     0.387176
      dx2y2   :     0.477979
      dxy     :     0.453935
      f0      :     0.000001  f :     0.000005
      f+1     :     0.000000
      f-1     :     0.000001
      f+2     :     0.000001
      f-2     :     0.000000
      f+3     :     0.000001
      f-3     :     0.000000


                      *****************************
                      * MAYER POPULATION ANALYSIS *
                      *****************************

  NA   - Mulliken gross atomic population
  ZA   - Total nuclear charge
  QA   - Mulliken gross atomic charge
  VA   - Mayer's total valence
  BVA  - Mayer's bonded valence
  FA   - Mayer's free valence

  ATOM       NA         ZA         QA         VA         BVA        FA
  0 Au    18.7804    19.0000     0.2196     1.3333     1.3011     0.0323
  1 Au    18.4816    19.0000     0.5184     1.2250     1.1596     0.0654
  2 Au    18.4814    19.0000     0.5186     1.2248     1.1594     0.0654
  3 Au    18.8622    19.0000     0.1378     1.6151     1.5538     0.0613
  4 Au    18.7806    19.0000     0.2194     1.3329     1.3007     0.0322
  5 Au    18.7582    19.0000     0.2418     1.2075     1.1882     0.0193
  6 Au    18.8609    19.0000     0.1391     1.6152     1.5544     0.0608
  7 Au    18.7805    19.0000     0.2195     1.3329     1.3007     0.0322
  8 Au    18.8612    19.0000     0.1388     1.6149     1.5541     0.0608
  9 Au    18.4821    19.0000     0.5179     1.2257     1.1604     0.0652
 10 Cr    26.8709    24.0000    -2.8709     8.7657     4.9275     3.8382

  Mayer bond orders larger than 0.100000
B(  0-Au,  1-Au) :   0.1599 B(  0-Au,  2-Au) :   0.1600 B(  0-Au,  3-Au) :   0.4194 
B(  0-Au, 10-Cr) :   0.4558 B(  1-Au,  4-Au) :   0.1597 B(  1-Au, 10-Cr) :   0.4886 
B(  2-Au,  7-Au) :   0.1597 B(  2-Au, 10-Cr) :   0.4886 B(  3-Au,  5-Au) :   0.2446 
B(  3-Au, 10-Cr) :   0.5497 B(  4-Au,  6-Au) :   0.4193 B(  4-Au,  9-Au) :   0.1596 
B(  4-Au, 10-Cr) :   0.4562 B(  5-Au,  6-Au) :   0.2451 B(  5-Au,  8-Au) :   0.2449 
B(  5-Au, 10-Cr) :   0.4449 B(  6-Au, 10-Cr) :   0.5494 B(  7-Au,  8-Au) :   0.4194 
B(  7-Au,  9-Au) :   0.1594 B(  7-Au, 10-Cr) :   0.4562 B(  8-Au, 10-Cr) :   0.5494 
B(  9-Au, 10-Cr) :   0.4887 


-------------------------------------------------------------
 Forming the transition density       ... done in 0.188723 sec
-------------------------------------------------------------



==========================================
CASSCF UV, CD spectra and dipole moments
==========================================
-------------------
ABSORPTION SPECTRUM
-------------------

Center of mass           = ( 15.8455, 11.5281, 15.2593)
Nuclear contribution to the dipole moment =     0.973451,   -5.138381,   -1.995198 au

Calculating the Dipole integrals                  ... done
Transforming integrals                            ... done
Calculating the Linear Momentum integrals         ... done
Transforming integrals                            ... done
Calculating the Angular Momentum integrals        ... done
Transforming integrals                            ... done

------------------------------------------------------------------------------------------
                                ABSORPTION SPECTRUM
------------------------------------------------------------------------------------------
  States           Energy   Wavelength   fosc          T2        TX         TY        TZ  
                   (cm-1)     (nm)                   (D**2)      (D)        (D)       (D) 
------------------------------------------------------------------------------------------
  0( 0)-> 1( 0) 5      11.9   842671.0   0.000006913   1.23702  -0.62437  -0.43493   0.81118
  0( 0)-> 2( 0) 5    7664.5   1304.7   0.000677687   0.18776   0.13882   0.17194  -0.37272
  0( 0)-> 3( 0) 5    8510.1   1175.1   0.002764197   0.68974   0.23922  -0.75646  -0.24554
  0( 0)-> 4( 0) 5    8514.0   1174.5   0.000120914   0.03016  -0.01550  -0.16989   0.03249
------------------------------------------------------------------------------------------



------------------------------------------------------------------------------
                             CD SPECTRUM
------------------------------------------------------------------------------
      States        Energy   Wavelength   R*T        RX        RY        RZ   
                    (cm-1)      (nm)   (1e40*sgs)   (au)      (au)      (au)  
------------------------------------------------------------------------------
  0( 0)-> 1( 0) 5      11.9   842671.0     0.03930  -0.06794   0.36198   0.14205
  0( 0)-> 2( 0) 5    7664.5   1304.7     0.00332  -0.37481  -0.01604  -0.14705
  0( 0)-> 3( 0) 5    8510.1   1175.1     5.03677   0.13389   0.09254  -0.26525
  0( 0)-> 4( 0) 5    8514.0   1174.5    -4.93477   0.24135   0.17404   0.20633
------------------------------------------------------------------------------

------------------------------------------------------------------------------
                                 DIPOLE MOMENTS
------------------------------------------------------------------------------
  Root  Block           TX        TY        TZ           |T|
                      (Debye)   (Debye)   (Debye)      (Debye)
------------------------------------------------------------------------------
    0    0            0.90274  -0.00970   0.67934      1.12984

--------------
CASSCF TIMINGS
--------------

Total time                       ...     3215.7 sec
Sum of individual times          ...     3203.6 sec ( 99.6%)

Calculation of AO operators
   F(Core) operator              ...     1556.1 sec ( 48.4%)
   G(Act) operator               ...     1501.4 sec ( 46.7%)
   J(AO) operators               ...        0.0 sec (  0.0%)
Calculation of MO transformed quantities
   J(MO) operators               ...      101.8 sec (  3.2%)
   (pq|rs) integrals             ...        0.0 sec (  0.0%)
   AO->MO one electron integrals ...        0.8 sec (  0.0%)
Configuration interaction steps
   CI-setup phase                ...        0.0 sec (  0.0%)
   CI-solution phase             ...       30.4 sec (  0.9%)
   Generation of densities       ...        4.8 sec (  0.1%)
Orbital improvement steps
   Orbital gradient              ...        0.8 sec (  0.0%)
   O(1) converger                ...        7.5 sec (  0.2%)
Properties                       ...        0.2 sec (  0.0%)
   SOC integral calculation      ...        0.0 sec (  0.0%)
   SSC RMEs (incl. integrals)    ...        0.0 sec (  0.0%)
   SOC RMEs                      ...        0.0 sec (  0.0%)

Maximum memory used throughout the entire CASSCF-calculation: 257.0 MB

-------------------------   --------------------
FINAL SINGLE POINT ENERGY     -2391.231565514513
-------------------------   --------------------


                            ***************************************
                            *     ORCA property calculations      *
                            ***************************************

                                    ---------------------
                                    Active property flags
                                    ---------------------
   (+) Dipole Moment


------------------------------------------------------------------------------
                       ORCA ELECTRIC PROPERTIES CALCULATION
------------------------------------------------------------------------------

Dipole Moment Calculation                       ... on
Quadrupole Moment Calculation                   ... off
Polarizability Calculation                      ... off
GBWName                                         ... casscf.gbw
Electron density                                ... casscf.scfp
The origin for moment calculation is the CENTER OF MASS  = (15.845547, 11.528088 15.259312)

-------------
DIPOLE MOMENT
-------------
                                X             Y             Z
Electronic contribution:     -0.93783       4.96858       1.93071
Nuclear contribution   :      0.97345      -5.13838      -1.99520
                        -----------------------------------------
Total Dipole Moment    :      0.03562      -0.16980      -0.06449
                        -----------------------------------------
Magnitude (a.u.)       :      0.18509
Magnitude (Debye)      :      0.47046



--------------------
Rotational spectrum 
--------------------
 
Rotational constants in cm-1:     0.002191     0.001394     0.001393 
Rotational constants in MHz :    65.688799    41.789289    41.773619 

 Dipole components along the rotational axes: 
x,y,z [a.u.] :     0.185068     0.002886     0.000443 
x,y,z [Debye]:     0.470406     0.007336     0.001127 

 

Timings for individual modules:

Sum of individual times         ...     3242.205 sec (=  54.037 min)
GTO integral calculation        ...       12.901 sec (=   0.215 min)   0.4 %
SCF iterations                  ...        6.188 sec (=   0.103 min)   0.2 %
CASSCF iterations               ...     3223.116 sec (=  53.719 min)  99.4 %
                             ****ORCA TERMINATED NORMALLY****
TOTAL RUN TIME: 0 days 0 hours 54 minutes 2 seconds 701 msec
