
                                 *****************
                                 * O   R   C   A *
                                 *****************

                                            #,                                       
                                            ###                                      
                                            ####                                     
                                            #####                                    
                                            ######                                   
                                           ########,                                 
                                     ,,################,,,,,                         
                               ,,#################################,,                 
                          ,,##########################################,,             
                       ,#########################################, ''#####,          
                    ,#############################################,,   '####,        
                  ,##################################################,,,,####,       
                ,###########''''           ''''###############################       
              ,#####''   ,,,,##########,,,,          '''####'''          '####       
            ,##' ,,,,###########################,,,                        '##       
           ' ,,###''''                  '''############,,,                           
         ,,##''                                '''############,,,,        ,,,,,,###''
      ,#''                                            '''#######################'''  
     '                                                          ''''####''''         
             ,#######,   #######,   ,#######,      ##                                
            ,#'     '#,  ##    ##  ,#'     '#,    #''#        ######   ,####,        
            ##       ##  ##   ,#'  ##            #'  '#       #        #'  '#        
            ##       ##  #######   ##           ,######,      #####,   #    #        
            '#,     ,#'  ##    ##  '#,     ,#' ,#      #,         ##   #,  ,#        
             '#######'   ##     ##  '#######'  #'      '#     #####' # '####'        



                  #######################################################
                  #                        -***-                        #
                  #          Department of theory and spectroscopy      #
                  #    Directorship and core code : Frank Neese         #
                  #        Max Planck Institute fuer Kohlenforschung    #
                  #                Kaiser Wilhelm Platz 1               #
                  #                 D-45470 Muelheim/Ruhr               #
                  #                      Germany                        #
                  #                                                     #
                  #                  All rights reserved                #
                  #                        -***-                        #
                  #######################################################


                         Program Version 5.0.3 -  RELEASE  -


 With contributions from (in alphabetic order):
   Daniel Aravena         : Magnetic Suceptibility
   Michael Atanasov       : Ab Initio Ligand Field Theory (pilot matlab implementation)
   Alexander A. Auer      : GIAO ZORA, VPT2 properties, NMR spectrum
   Ute Becker             : Parallelization
   Giovanni Bistoni       : ED, misc. LED, open-shell LED, HFLD
   Martin Brehm           : Molecular dynamics
   Dmytro Bykov           : SCF Hessian
   Vijay G. Chilkuri      : MRCI spin determinant printing, contributions to CSF-ICE
   Dipayan Datta          : RHF DLPNO-CCSD density
   Achintya Kumar Dutta   : EOM-CC, STEOM-CC
   Dmitry Ganyushin       : Spin-Orbit,Spin-Spin,Magnetic field MRCI
   Miquel Garcia          : C-PCM and meta-GGA Hessian, CC/C-PCM, Gaussian charge scheme
   Yang Guo               : DLPNO-NEVPT2, F12-NEVPT2, CIM, IAO-localization
   Andreas Hansen         : Spin unrestricted coupled pair/coupled cluster methods
   Benjamin Helmich-Paris : MC-RPA, TRAH-SCF, COSX integrals
   Lee Huntington         : MR-EOM, pCC
   Robert Izsak           : Overlap fitted RIJCOSX, COSX-SCS-MP3, EOM
   Marcus Kettner         : VPT2
   Christian Kollmar      : KDIIS, OOCD, Brueckner-CCSD(T), CCSD density, CASPT2, CASPT2-K
   Simone Kossmann        : Meta GGA functionals, TD-DFT gradient, OOMP2, MP2 Hessian
   Martin Krupicka        : Initial AUTO-CI
   Lucas Lang             : DCDCAS
   Marvin Lechner         : AUTO-CI (C++ implementation), FIC-MRCC
   Dagmar Lenk            : GEPOL surface, SMD
   Dimitrios Liakos       : Extrapolation schemes; Compound Job, initial MDCI parallelization
   Dimitrios Manganas     : Further ROCIS development; embedding schemes
   Dimitrios Pantazis     : SARC Basis sets
   Anastasios Papadopoulos: AUTO-CI, single reference methods and gradients
   Taras Petrenko         : DFT Hessian,TD-DFT gradient, ASA, ECA, R-Raman, ABS, FL, XAS/XES, NRVS
   Peter Pinski           : DLPNO-MP2, DLPNO-MP2 Gradient
   Christoph Reimann      : Effective Core Potentials
   Marius Retegan         : Local ZFS, SOC
   Christoph Riplinger    : Optimizer, TS searches, QM/MM, DLPNO-CCSD(T), (RO)-DLPNO pert. Triples
   Tobias Risthaus        : Range-separated hybrids, TD-DFT gradient, RPA, STAB
   Michael Roemelt        : Original ROCIS implementation
   Masaaki Saitow         : Open-shell DLPNO-CCSD energy and density
   Barbara Sandhoefer     : DKH picture change effects
   Avijit Sen             : IP-ROCIS
   Kantharuban Sivalingam : CASSCF convergence, NEVPT2, FIC-MRCI
   Bernardo de Souza      : ESD, SOC TD-DFT
   Georgi Stoychev        : AutoAux, RI-MP2 NMR, DLPNO-MP2 response
   Willem Van den Heuvel  : Paramagnetic NMR
   Boris Wezisla          : Elementary symmetry handling
   Frank Wennmohs         : Technical directorship


 We gratefully acknowledge several colleagues who have allowed us to
 interface, adapt or use parts of their codes:
   Stefan Grimme, W. Hujo, H. Kruse, P. Pracht,  : VdW corrections, initial TS optimization,
                  C. Bannwarth, S. Ehlert          DFT functionals, gCP, sTDA/sTD-DF
   Ed Valeev, F. Pavosevic, A. Kumar             : LibInt (2-el integral package), F12 methods
   Garnet Chan, S. Sharma, J. Yang, R. Olivares  : DMRG
   Ulf Ekstrom                                   : XCFun DFT Library
   Mihaly Kallay                                 : mrcc  (arbitrary order and MRCC methods)
   Jiri Pittner, Ondrej Demel                    : Mk-CCSD
   Frank Weinhold                                : gennbo (NPA and NBO analysis)
   Christopher J. Cramer and Donald G. Truhlar   : smd solvation model
   Lars Goerigk                                  : TD-DFT with DH, B97 family of functionals
   V. Asgeirsson, H. Jonsson                     : NEB implementation
   FAccTs GmbH                                   : IRC, NEB, NEB-TS, DLPNO-Multilevel, CI-OPT
                                                   MM, QMMM, 2- and 3-layer-ONIOM, Crystal-QMMM,
                                                   LR-CPCM, SF, NACMEs, symmetry and pop. for TD-DFT,
                                                   nearIR, NL-DFT gradient (VV10), updates on ESD,
                                                   ML-optimized integration grids
   S Lehtola, MJT Oliveira, MAL Marques          : LibXC Library
   Liviu Ungur et al                             : ANISO software


 Your calculation uses the libint2 library for the computation of 2-el integrals
 For citations please refer to: http://libint.valeyev.net

 Your ORCA version has been built with support for libXC version: 5.1.0
 For citations please refer to: https://tddft.org/programs/libxc/

 This ORCA versions uses:
   CBLAS   interface :  Fast vector & matrix operations
   LAPACKE interface :  Fast linear algebra routines
   SCALAPACK package :  Parallel linear algebra routines
   Shared memory     :  Shared parallel matrices
   BLAS/LAPACK       :  OpenBLAS 0.3.15  USE64BITINT DYNAMIC_ARCH NO_AFFINITY Haswell SINGLE_THREADED
        Core in use  :  Haswell
   Copyright (c) 2011-2014, The OpenBLAS Project




***************************************
The coordinates will be read from file: 7.xyz
***************************************


================================================================================

cite the ECPs for Au [Def2-ECP] as follows:
Ce-Yb(ecp-28): M. Dolg, H. Stoll, H.Preuss, J. Chem. Phys., 1989, 90, 1730-1734.
Y-Cd(ecp-28), Hf-Hg(ecp-46): D. Andrae,U. Haeussermann, M. Dolg, H. Stoll, H. Preuss, Theor. Chim. Acta, 1990, 77, 123-141.
In-Sb(ecp-28), Tl-Bi(ecp-46): B. Metz, H. Stoll, M. Dolg, J. Chem. Phys., 2000, 113, 2563-2569.
Te-Xe(ecp-28), Po-Rn(ecp-46): K. A. Peterson, D. Figgen, E. Goll, H. Stoll, M. Dolg, J. Chem. Phys., 2003, 119, 11113-11123.
Rb(ecp-28), Cs(ecp-46): T. Leininger, A. Nicklass, W. Kuechle, H. Stoll, M. Dolg, A. Bergner, Chem. Phys. Lett., 1996, 255, 274-280.
Sr(ecp-28), Ba(ecp-46): M. Kaupp, P. V. Schleyer, H. Stoll and H. Preuss, J. Chem. Phys., 1991, 94, 1360-1366.
La(ecp-46): M. Dolg, H. Stoll, A. Savin, H. Preuss, Theor. Chim. Acta, 1989, 75, 173-194.
Lu(ecp-28): X. Cao, M. Dolg, J. Chem. Phys., 2001, 115, 7348-7355.

ECP parameters for Au [Def2-ECP] have been obtained from:
TURBOMOLE (7.0.2)

----- Orbital basis set information -----
Your calculation utilizes the basis: def2-TZVP
   F. Weigend and R. Ahlrichs, Phys. Chem. Chem. Phys. 7, 3297 (2005).

----- AuxJ basis set information -----
Your calculation utilizes the auxiliary basis: def2/J
   F. Weigend, Phys. Chem. Chem. Phys. 8, 1057 (2006).

================================================================================
                                        WARNINGS
                       Please study these warnings very carefully!
================================================================================


WARNING: your system is open-shell and RHF/RKS was chosen
  ===> : WILL SWITCH to UHF/UKS


WARNING: Geometry Optimization
  ===> : Switching off AutoStart
         For restart on a previous wavefunction, please use MOREAD

INFO   : the flag for use of the SHARK integral package has been found!

================================================================================
                                       INPUT FILE
================================================================================
NAME = pbe.inp
|  1> %pal nprocs 1 end 
|  2> 
|  3> !PBE def2-TZVP OPT UNO
|  4> !SLOWCONV KDIIS 
|  5> 
|  6> %geom maxiter 300 end
|  7> 
|  8> *xyzfile 0 5 7.xyz                           ****END OF INPUT****
================================================================================

                       *****************************
                       * Geometry Optimization Run *
                       *****************************

Geometry optimization settings:
Update method            Update   .... BFGS
Choice of coordinates    CoordSys .... Z-matrix Internals
Initial Hessian          InHess   .... Almoef's Model

Convergence Tolerances:
Energy Change            TolE     ....  5.0000e-06 Eh
Max. Gradient            TolMAXG  ....  3.0000e-04 Eh/bohr
RMS Gradient             TolRMSG  ....  1.0000e-04 Eh/bohr
Max. Displacement        TolMAXD  ....  4.0000e-03 bohr
RMS Displacement         TolRMSD  ....  2.0000e-03 bohr
Strict Convergence                ....  False
------------------------------------------------------------------------------
                        ORCA OPTIMIZATION COORDINATE SETUP
------------------------------------------------------------------------------

The optimization will be done in new redundant internal coordinates
Making redundant internal coordinates   ...  (new redundants) done
Evaluating the initial hessian          ...  (Almloef) done
Evaluating the coordinates              ...  done
Calculating the B-matrix                .... done
Calculating the G-matrix                .... done
Diagonalizing the G-matrix              .... done
The first mode is                       ....  307
The number of degrees of freedom        ....   39

    -----------------------------------------------------------------
                    Redundant Internal Coordinates


    -----------------------------------------------------------------
         Definition                    Initial Value    Approx d2E/dq
    -----------------------------------------------------------------
      1. B(Au  8,Au  1)                  2.8781         0.005114   
      2. B(Au  8,Au  0)                  2.7832         0.007246   
      3. B(Au  9,Au  1)                  2.7594         0.007909   
      4. B(Au  9,Au  8)                  2.7391         0.008521   
      5. B(Au 10,Au  9)                  2.7467         0.008288   
      6. B(Au 10,Au  3)                  2.8207         0.006314   
      7. B(Au 10,Au  1)                  3.0294         0.002933   
      8. B(Au 10,Au  8)                  2.9330         0.004180   
      9. B(Au 11,Au  8)                  2.6957         0.009996   
     10. B(Au 11,Au  5)                  2.8782         0.005111   
     11. B(Au 11,Au  0)                  2.7834         0.007242   
     12. B(Au 12,Au  5)                  2.7594         0.007910   
     13. B(Au 12,Au 11)                  2.7391         0.008523   
     14. B(Au 13,Au 12)                  2.7469         0.008282   
     15. B(Au 13,Au 10)                  2.6846         0.010411   
     16. B(Au 13,Au  5)                  3.0292         0.002936   
     17. B(Au 13,Au  3)                  2.8207         0.006313   
     18. B(Au 13,Au 11)                  2.9329         0.004181   
     19. B(Cr 14,Au  6)                  2.4885         0.155559   
     20. B(Cr 14,Au  5)                  2.6646         0.081456   
     21. B(Cr 14,Au  2)                  2.5354         0.130920   
     22. B(Cr 14,Au  4)                  2.5085         0.144538   
     23. B(Cr 14,Au  7)                  2.5356         0.130831   
     24. B(Cr 14,Au  3)                  2.7030         0.070745   
     25. B(Cr 14,Au  1)                  2.6646         0.081459   
     26. B(Cr 14,Au  0)                  2.5318         0.132675   
     27. A(Au  8,Au  0,Au 11)           57.9275         0.139522   
     28. A(Au  8,Au  0,Cr 14)          107.6830         0.198429   
     29. A(Au 11,Au  0,Cr 14)          107.6800         0.198413   
     30. A(Au  8,Au  1,Au  9)           58.0938         0.136629   
     31. A(Au  9,Au  1,Cr 14)          156.3933         0.188949   
     32. A(Au  8,Au  1,Au 10)           59.4696         0.127052   
     33. A(Au 10,Au  1,Cr 14)          104.3939         0.168852   
     34. A(Au  9,Au  1,Au 10)           56.4185         0.130999   
     35. A(Au  8,Au  1,Cr 14)          101.4836         0.179556   
     36. A(Au 10,Au  3,Au 13)           56.8313         0.136473   
     37. A(Au 10,Au  3,Cr 14)          109.2524         0.180998   
     38. A(Au 13,Au  3,Cr 14)          109.2478         0.180996   
     39. A(Au 11,Au  5,Cr 14)          101.4819         0.179545   
     40. A(Au 12,Au  5,Cr 14)          156.3964         0.188953   
     41. A(Au 12,Au  5,Au 13)           56.4266         0.131009   
     42. A(Au 11,Au  5,Au 13)           59.4692         0.127055   
     43. A(Au 11,Au  5,Au 12)           58.0910         0.136626   
     44. A(Au 13,Au  5,Cr 14)          104.3964         0.168867   
     45. A(Au  9,Au  8,Au 10)           57.8042         0.135279   
     46. A(Au  1,Au  8,Au 10)           62.8325         0.130228   
     47. A(Au  0,Au  8,Au 10)          106.7231         0.133613   
     48. A(Au  0,Au  8,Au 11)           61.0395         0.143345   
     49. A(Au  9,Au  8,Au 11)          147.6390         0.145374   
     50. A(Au  0,Au  8,Au  9)          122.6262         0.141416   
     51. A(Au 10,Au  8,Au 11)           89.8889         0.136982   
     52. A(Au  0,Au  8,Au  1)           65.2948         0.135696   
     53. A(Au  1,Au  8,Au  9)           58.7822         0.137440   
     54. A(Au  1,Au  8,Au 11)          107.1757         0.139222   
     55. A(Au  1,Au  9,Au  8)           63.1240         0.142464   
     56. A(Au  8,Au  9,Au 10)           64.6404         0.143034   
     57. A(Au  1,Au  9,Au 10)           66.7600         0.142130   
     58. A(Au  3,Au 10,Au  8)           99.8180         0.132243   
     59. A(Au  1,Au 10,Au  8)           57.6980         0.125355   
     60. A(Au  1,Au 10,Au  3)           62.4213         0.128912   
     61. A(Au  8,Au 10,Au  9)           57.5554         0.134990   
     62. A(Au  9,Au 10,Au 13)          147.6106         0.145541   
     63. A(Au  3,Au 10,Au 13)           61.5846         0.142164   
     64. A(Au  8,Au 10,Au 13)           90.1094         0.137426   
     65. A(Au  1,Au 10,Au 13)          106.3998         0.133695   
     66. A(Au  3,Au 10,Au  9)          117.8609         0.139489   
     67. A(Au  1,Au 10,Au  9)           56.8215         0.131447   
     68. A(Au  5,Au 11,Au 13)           62.8264         0.130226   
     69. A(Au 12,Au 11,Au 13)           57.8106         0.135285   
     70. A(Au  5,Au 11,Au  8)          107.1732         0.139216   
     71. A(Au  0,Au 11,Au  8)           61.0330         0.143337   
     72. A(Au  0,Au 11,Au 13)          106.7204         0.133609   
     73. A(Au  8,Au 11,Au 13)           89.8945         0.136985   
     74. A(Au  5,Au 11,Au 12)           58.7798         0.137437   
     75. A(Au  0,Au 11,Au 12)          122.6231         0.141411   
     76. A(Au  8,Au 11,Au 12)          147.6507         0.145377   
     77. A(Au  0,Au 11,Au  5)           65.2965         0.135683   
     78. A(Au 11,Au 12,Au 13)           64.6366         0.143028   
     79. A(Au  5,Au 12,Au 13)           66.7520         0.142123   
     80. A(Au  5,Au 12,Au 11)           63.1291         0.142469   
     81. A(Au 11,Au 13,Au 12)           57.5527         0.134985   
     82. A(Au  5,Au 13,Au 12)           56.8213         0.131448   
     83. A(Au  3,Au 13,Au 12)          117.8673         0.139480   
     84. A(Au 10,Au 13,Au 11)           90.1072         0.137429   
     85. A(Au  3,Au 13,Au 11)           99.8214         0.132245   
     86. A(Au  5,Au 13,Au 11)           57.7045         0.125364   
     87. A(Au  5,Au 13,Au 10)          106.4052         0.133704   
     88. A(Au  3,Au 13,Au 10)           61.5840         0.142163   
     89. A(Au  3,Au 13,Au  5)           62.4255         0.128919   
     90. A(Au 10,Au 13,Au 12)          147.6060         0.145531   
     91. A(Au  4,Cr 14,Au  5)          123.7645         0.305366   
     92. A(Au  6,Cr 14,Au  7)          117.0374         0.333900   
     93. A(Au  3,Cr 14,Au  5)           68.9061         0.273060   
     94. A(Au  0,Cr 14,Au  4)          133.7806         0.330625   
     95. A(Au  5,Cr 14,Au  7)           63.8523         0.300541   
     96. A(Au  4,Cr 14,Au  7)           69.1166         0.329861   
     97. A(Au  2,Cr 14,Au  5)          135.0219         0.300574   
     98. A(Au  3,Cr 14,Au  7)           68.0878         0.293897   
     99. A(Au  2,Cr 14,Au  7)           88.2064         0.324526   
    100. A(Au  1,Cr 14,Au  5)          111.1332         0.279029   
    101. A(Au  2,Cr 14,Au  3)           68.0972         0.293929   
    102. A(Au  1,Cr 14,Au  2)           63.8482         0.300575   
    103. A(Au  1,Cr 14,Au  7)          135.0098         0.300543   
    104. A(Au  0,Cr 14,Au  7)          134.1705         0.325237   
    105. A(Au  0,Cr 14,Au  5)           71.9764         0.301213   
    106. A(Au  5,Cr 14,Au  6)          107.1859         0.308995   
    107. A(Au  4,Cr 14,Au  6)           69.0573         0.339486   
    108. A(Au  3,Cr 14,Au  4)          118.9319         0.298571   
    109. A(Au  1,Cr 14,Au  3)           68.9047         0.273061   
    110. A(Au  3,Cr 14,Au  6)          172.0108         0.302085   
    111. A(Au  2,Cr 14,Au  6)          117.0619         0.333938   
    112. A(Au  2,Cr 14,Au  4)           69.1158         0.329898   
    113. A(Au  1,Cr 14,Au  6)          107.2254         0.308996   
    114. A(Au  0,Cr 14,Au  6)           64.7233         0.334677   
    115. A(Au  1,Cr 14,Au  4)          123.7671         0.305367   
    116. A(Au  0,Cr 14,Au  3)          107.2876         0.294548   
    117. A(Au  0,Cr 14,Au  2)          134.1560         0.325274   
    118. A(Au  0,Cr 14,Au  1)           71.9700         0.301214   
    119. D(Au 11,Au  8,Au  1,Au  9)    147.8322         0.001501   
    120. D(Au  9,Au  8,Au  1,Cr 14)   -167.1520         0.001501   
    121. D(Au  0,Au  8,Au  1,Au  9)   -166.6003         0.001501   
    122. D(Au 11,Au  8,Au  0,Cr 14)    100.1599         0.001502   
    123. D(Au  1,Au  8,Au  0,Cr 14)    -28.6039         0.001502   
    124. D(Au  0,Au  8,Au  1,Au 10)    126.3079         0.001501   
    125. D(Au 10,Au  8,Au  0,Cr 14)     19.8656         0.001502   
    126. D(Au  1,Au  8,Au  0,Au 11)   -128.7638         0.001502   
    127. D(Au 11,Au  8,Au  1,Au 10)     80.7403         0.001501   
    128. D(Au  9,Au  8,Au  0,Cr 14)    -42.2144         0.001502   
    129. D(Au 10,Au  8,Au  0,Au 11)    -80.2943         0.001502   
    130. D(Au  9,Au  8,Au  1,Au 10)    -67.0919         0.001501   
    131. D(Au  9,Au  8,Au  0,Au 11)   -142.3743         0.001502   
    132. D(Au 11,Au  8,Au  1,Cr 14)    -19.3198         0.001501   
    133. D(Au 10,Au  8,Au  1,Cr 14)   -100.0601         0.001501   
    134. D(Au  0,Au  8,Au  1,Cr 14)     26.2478         0.001501   
    135. D(Au 10,Au  8,Au  1,Au  9)     67.0919         0.001501   
    136. D(Au  1,Au  9,Au  8,Au 11)    -71.8628         0.001502   
    137. D(Au  8,Au  9,Au  1,Au 10)     72.2462         0.001502   
    138. D(Au  1,Au  9,Au  8,Au 10)    -75.5622         0.001502   
    139. D(Au  8,Au  9,Au  1,Cr 14)     32.9677         0.001502   
    140. D(Au 10,Au  9,Au  1,Au  8)    -72.2462         0.001502   
    141. D(Au 10,Au  9,Au  8,Au 11)      3.6994         0.001502   
    142. D(Au  1,Au  9,Au  8,Au  0)     14.4762         0.001502   
    143. D(Au 10,Au  9,Au  8,Au  0)     90.0383         0.001502   
    144. D(Au 10,Au  9,Au  8,Au  1)     75.5622         0.001502   
    145. D(Au 10,Au  9,Au  1,Cr 14)    -39.2785         0.001502   
    146. D(Au  9,Au 10,Au  8,Au  1)    -68.5748         0.001501   
    147. D(Au 13,Au 10,Au  8,Au 11)     -0.0056         0.001501   
    148. D(Au 13,Au 10,Au  8,Au  0)     59.5851         0.001501   
    149. D(Au  3,Au 10,Au  1,Au  8)   -123.9052         0.001500   
    150. D(Au  3,Au 10,Au  9,Au  8)    -83.8297         0.001502   
    151. D(Au  8,Au 10,Au  3,Au 13)     84.7543         0.001501   
    152. D(Au  3,Au 10,Au  1,Au  9)    166.2744         0.001500   
    153. D(Au  9,Au 10,Au  3,Au 13)    143.1287         0.001501   
    154. D(Au 13,Au 10,Au  3,Cr 14)   -100.8870         0.001501   
    155. D(Au  9,Au 10,Au  8,Au 11)   -178.0209         0.001501   
    156. D(Au  1,Au 10,Au  8,Au  0)    -49.8553         0.001501   
    157. D(Au  1,Au 10,Au  8,Au  9)     68.5748         0.001501   
    158. D(Au  3,Au 10,Au  8,Au 11)    -61.1500         0.001501   
    159. D(Au  9,Au 10,Au  8,Au  0)   -118.4301         0.001501   
    160. D(Au  1,Au 10,Au  8,Au 11)   -109.4460         0.001501   
    161. D(Au  3,Au 10,Au  8,Au  0)     -1.5593         0.001501   
    162. D(Au  1,Au 10,Au  3,Au 13)    130.1478         0.001501   
    163. D(Au  3,Au 10,Au  1,Cr 14)    -28.8990         0.001500   
    164. D(Au  8,Au 10,Au  1,Cr 14)     95.0063         0.001500   
    165. D(Au  8,Au 10,Au  3,Cr 14)    -16.1327         0.001501   
    166. D(Au  9,Au 10,Au  1,Cr 14)    164.8266         0.001500   
    167. D(Au  9,Au 10,Au  1,Au  8)     69.8203         0.001500   
    168. D(Au  3,Au 10,Au  8,Au  9)    116.8708         0.001501   
    169. D(Au 13,Au 10,Au  9,Au  1)     66.3608         0.001502   
    170. D(Au 13,Au 10,Au  1,Au  9)   -149.2340         0.001500   
    171. D(Au 13,Au 10,Au  1,Cr 14)     15.5926         0.001500   
    172. D(Au  9,Au 10,Au  3,Cr 14)     42.2416         0.001501   
    173. D(Au  1,Au 10,Au  3,Cr 14)     29.2607         0.001501   
    174. D(Au  8,Au 10,Au  9,Au  1)     70.0678         0.001502   
    175. D(Au 13,Au 10,Au  8,Au  9)    178.0153         0.001501   
    176. D(Au  1,Au 10,Au  9,Au  8)    -70.0678         0.001502   
    177. D(Au  3,Au 10,Au  9,Au  1)    -13.7618         0.001502   
    178. D(Au 13,Au 10,Au  1,Au  8)    -79.4137         0.001500   
    179. D(Au  3,Au 10,Au  8,Au  1)     48.2960         0.001501   
    180. D(Au  8,Au 10,Au  1,Au  9)    -69.8203         0.001500   
    181. D(Au 13,Au 10,Au  9,Au  8)     -3.7070         0.001502   
    182. D(Au 13,Au 10,Au  8,Au  1)    109.4404         0.001501   
    183. D(Au 13,Au 11,Au  8,Au  9)     -3.1248         0.001504   
    184. D(Au 13,Au 11,Au  8,Au 10)      0.0051         0.001504   
    185. D(Au 13,Au 11,Au  8,Au  1)    -61.4069         0.001504   
    186. D(Au 13,Au 11,Au  8,Au  0)   -109.2603         0.001504   
    187. D(Au 12,Au 11,Au  8,Au 10)      3.1469         0.001504   
    188. D(Au 12,Au 11,Au  8,Au  1)    -58.2652         0.001504   
    189. D(Au 12,Au 11,Au  8,Au  0)   -106.1186         0.001504   
    190. D(Au  5,Au 11,Au  8,Au 10)     61.4131         0.001504   
    191. D(Au  5,Au 11,Au  8,Au  1)      0.0010         0.001504   
    192. D(Au  5,Au 11,Au  8,Au  0)    -47.8523         0.001504   
    193. D(Au  0,Au 11,Au  8,Au 10)    109.2655         0.001504   
    194. D(Au  0,Au 11,Au  8,Au  9)    106.1355         0.001504   
    195. D(Au  0,Au 11,Au  8,Au  1)     47.8534         0.001504   
    196. D(Au 13,Au 11,Au  5,Au 12)    -67.1031         0.001501   
    197. D(Au 13,Au 11,Au  5,Cr 14)    100.0639         0.001501   
    198. D(Au 12,Au 11,Au  5,Au 13)     67.1031         0.001501   
    199. D(Au  5,Au 11,Au  0,Au  8)    128.7650         0.001502   
    200. D(Au  0,Au 11,Au  5,Au 13)   -126.3081         0.001501   
    201. D(Au  0,Au 11,Au  5,Cr 14)    -26.2442         0.001501   
    202. D(Au 13,Au 11,Au  0,Au  8)     80.3001         0.001502   
    203. D(Au 13,Au 11,Au  0,Cr 14)    -19.8652         0.001502   
    204. D(Au  5,Au 11,Au  8,Au  9)     58.2832         0.001504   
    205. D(Au  0,Au 11,Au  5,Au 12)    166.5888         0.001501   
    206. D(Au  8,Au 11,Au  0,Cr 14)   -100.1652         0.001502   
    207. D(Au 12,Au 11,Au  0,Au  8)    142.3863         0.001502   
    208. D(Au 12,Au 11,Au  8,Au  9)      0.0169         0.001504   
    209. D(Au 12,Au 11,Au  5,Cr 14)    167.1670         0.001501   
    210. D(Au 12,Au 11,Au  0,Cr 14)     42.2210         0.001502   
    211. D(Au  8,Au 11,Au  5,Au 13)    -80.7460         0.001501   
    212. D(Au  8,Au 11,Au  5,Au 12)   -147.8491         0.001501   
    213. D(Au  5,Au 11,Au  0,Cr 14)     28.5997         0.001502   
    214. D(Au  8,Au 11,Au  5,Cr 14)     19.3179         0.001501   
    215. D(Au 13,Au 12,Au 11,Au  0)    -90.0408         0.001502   
    216. D(Au 13,Au 12,Au  5,Au 11)     72.2435         0.001502   
    217. D(Au 11,Au 12,Au  5,Cr 14)    -32.9298         0.001502   
    218. D(Au 11,Au 12,Au  5,Au 13)    -72.2435         0.001502   
    219. D(Au 13,Au 12,Au  5,Cr 14)     39.3137         0.001502   
    220. D(Au  5,Au 12,Au 11,Au  0)    -14.4883         0.001502   
    221. D(Au  5,Au 12,Au 11,Au 13)     75.5526         0.001502   
    222. D(Au 13,Au 12,Au 11,Au  5)    -75.5526         0.001502   
    223. D(Au  5,Au 12,Au 11,Au  8)     71.8395         0.001502   
    224. D(Au 13,Au 12,Au 11,Au  8)     -3.7131         0.001502   
    225. D(Au  3,Au 13,Au 10,Au  9)    -97.9911         0.001504   
    226. D(Au  3,Au 13,Au 10,Au  8)   -101.1188         0.001504   
    227. D(Au  3,Au 13,Au 10,Au  1)    -44.9319         0.001504   
    228. D(Au 12,Au 13,Au  5,Cr 14)   -164.8167         0.001500   
    229. D(Au 11,Au 13,Au  5,Au 12)     69.8139         0.001500   
    230. D(Au 11,Au 13,Au  5,Cr 14)    -95.0028         0.001500   
    231. D(Au 10,Au 13,Au  5,Au 12)    149.2239         0.001500   
    232. D(Au 10,Au 13,Au  5,Cr 14)    -15.5928         0.001500   
    233. D(Au  3,Au 13,Au  5,Au 11)    123.8990         0.001500   
    234. D(Au  3,Au 13,Au  5,Au 12)   -166.2870         0.001500   
    235. D(Au  3,Au 13,Au  5,Cr 14)     28.8963         0.001500   
    236. D(Au 10,Au 13,Au  5,Au 11)     79.4099         0.001500   
    237. D(Au 12,Au 13,Au  3,Au 10)   -143.1220         0.001501   
    238. D(Au 12,Au 13,Au  3,Cr 14)    -42.2267         0.001501   
    239. D(Au  5,Au 13,Au  3,Au 10)   -130.1522         0.001501   
    240. D(Au 12,Au 13,Au  5,Au 11)    -69.8139         0.001500   
    241. D(Au 10,Au 13,Au  3,Cr 14)    100.8954         0.001501   
    242. D(Au  5,Au 13,Au  3,Cr 14)    -29.2568         0.001501   
    243. D(Au 11,Au 13,Au  3,Au 10)    -84.7498         0.001501   
    244. D(Au  5,Au 13,Au 10,Au  1)      0.0000         0.001504   
    245. D(Au 11,Au 13,Au  3,Cr 14)     16.1456         0.001501   
    246. D(Au 11,Au 13,Au 12,Au  5)    -70.0775         0.001502   
    247. D(Au 10,Au 13,Au 12,Au 11)      3.6980         0.001502   
    248. D(Au 10,Au 13,Au 12,Au  5)    -66.3794         0.001502   
    249. D(Au  3,Au 13,Au 12,Au 11)     83.8281         0.001502   
    250. D(Au  3,Au 13,Au 12,Au  5)     13.7506         0.001502   
    251. D(Au 12,Au 13,Au 11,Au  8)    178.0142         0.001501   
    252. D(Au 12,Au 13,Au 11,Au  0)    118.4279         0.001501   
    253. D(Au 10,Au 13,Au 11,Au  8)     -0.0056         0.001501   
    254. D(Au 10,Au 13,Au 11,Au 12)   -178.0198         0.001501   
    255. D(Au 10,Au 13,Au 11,Au  5)   -109.4469         0.001501   
    256. D(Au 10,Au 13,Au 11,Au  0)    -59.5919         0.001501   
    257. D(Au  5,Au 13,Au 11,Au  8)    109.4413         0.001501   
    258. D(Au  5,Au 13,Au 11,Au 12)    -68.5729         0.001501   
    259. D(Au  5,Au 13,Au 11,Au  0)     49.8550         0.001501   
    260. D(Au  3,Au 13,Au 11,Au  8)     61.1374         0.001501   
    261. D(Au  3,Au 13,Au 11,Au 12)   -116.8767         0.001501   
    262. D(Au  3,Au 13,Au 11,Au  5)    -48.3038         0.001501   
    263. D(Au  3,Au 13,Au 11,Au  0)      1.5512         0.001501   
    264. D(Au 12,Au 13,Au 10,Au  9)      0.0128         0.001504   
    265. D(Au 12,Au 13,Au 10,Au  8)     -3.1149         0.001504   
    266. D(Au 12,Au 13,Au 10,Au  3)     98.0039         0.001504   
    267. D(Au 12,Au 13,Au 10,Au  1)     53.0720         0.001504   
    268. D(Au 12,Au 13,Au 11,Au  5)     68.5729         0.001501   
    269. D(Au 11,Au 13,Au 10,Au  9)      3.1329         0.001504   
    270. D(Au 11,Au 13,Au 10,Au  8)      0.0052         0.001504   
    271. D(Au 11,Au 13,Au 10,Au  3)    101.1240         0.001504   
    272. D(Au  5,Au 13,Au 12,Au 11)     70.0775         0.001502   
    273. D(Au 11,Au 13,Au 10,Au  1)     56.1921         0.001504   
    274. D(Au  5,Au 13,Au 10,Au  9)    -53.0591         0.001504   
    275. D(Au  5,Au 13,Au 10,Au  8)    -56.1869         0.001504   
    276. D(Au  5,Au 13,Au 10,Au  3)     44.9320         0.001504   
    277. D(Au  7,Cr 14,Au  5,Au 13)   -103.7812         0.001531   
    278. D(Au  7,Cr 14,Au  5,Au 11)   -164.8969         0.001531   
    279. D(Au  7,Cr 14,Au  5,Au 12)   -136.8049         0.001531   
    280. D(Au  6,Cr 14,Au  5,Au 13)    143.9948         0.001531   
    281. D(Au  6,Cr 14,Au  5,Au 11)     82.8791         0.001531   
    282. D(Au  4,Cr 14,Au  5,Au 13)   -140.0854         0.001531   
    283. D(Au  4,Cr 14,Au  5,Au 11)    158.7988         0.001531   
    284. D(Au  4,Cr 14,Au  5,Au 12)   -173.1092         0.001531   
    285. D(Au  3,Cr 14,Au  5,Au 11)    -89.7426         0.001531   
    286. D(Au  3,Cr 14,Au  5,Au 12)    -61.6506         0.001531   
    287. D(Au  2,Cr 14,Au  5,Au 13)    -46.5079         0.001531   
    288. D(Au  2,Cr 14,Au  5,Au 12)    -79.5316         0.001531   
    289. D(Au  1,Cr 14,Au  5,Au 13)     27.1312         0.001531   
    290. D(Au  1,Cr 14,Au  5,Au 11)    -33.9845         0.001531   
    291. D(Au  1,Cr 14,Au  5,Au 12)     -5.8925         0.001531   
    292. D(Au  0,Cr 14,Au  5,Au 13)     88.7899         0.001531   
    293. D(Au  0,Cr 14,Au  5,Au 11)     27.6741         0.001531   
    294. D(Au  0,Cr 14,Au  5,Au 12)     55.7661         0.001531   
    295. D(Au  7,Cr 14,Au  3,Au 10)    161.6675         0.001522   
    296. D(Au  6,Cr 14,Au  3,Au 13)    -30.1124         0.001522   
    297. D(Au  6,Cr 14,Au  3,Au 10)     30.4238         0.001522   
    298. D(Au  5,Cr 14,Au  3,Au 10)     92.3967         0.001522   
    299. D(Au  4,Cr 14,Au  3,Au 13)    149.7276         0.001522   
    300. D(Au  4,Cr 14,Au  3,Au 10)   -149.7362         0.001522   
    301. D(Au  2,Cr 14,Au  3,Au 10)   -101.1308         0.001522   
    302. D(Au  1,Cr 14,Au  3,Au 13)    -92.4029         0.001522   
    303. D(Au  1,Cr 14,Au  3,Au 10)    -31.8667         0.001522   
    304. D(Au  0,Cr 14,Au  3,Au 13)    -30.2754         0.001522   
    305. D(Au  0,Cr 14,Au  3,Au 10)     30.2608         0.001522   
    306. D(Au  7,Cr 14,Au  1,Au 10)     46.5132         0.001531   
    307. D(Au  7,Cr 14,Au  1,Au  9)     79.5051         0.001531   
    308. D(Au  7,Cr 14,Au  1,Au  8)    107.6294         0.001531   
    309. D(Au  6,Cr 14,Au  1,Au 10)   -143.9699         0.001531   
    310. D(Au  6,Cr 14,Au  1,Au  9)   -110.9780         0.001531   
    311. D(Au  6,Cr 14,Au  1,Au  8)    -82.8537         0.001531   
    312. D(Au  5,Cr 14,Au  1,Au 10)    -27.1304         0.001531   
    313. D(Au  5,Cr 14,Au  1,Au  9)      5.8615         0.001531   
    314. D(Au  5,Cr 14,Au  1,Au  8)     33.9858         0.001531   
    315. D(Au  4,Cr 14,Au  1,Au 10)    140.0858         0.001531   
    316. D(Au  2,Cr 14,Au  3,Au 13)   -161.6670         0.001522   
    317. D(Au  4,Cr 14,Au  1,Au  9)    173.0777         0.001531   
    318. D(Au  4,Cr 14,Au  1,Au  8)   -158.7980         0.001531   
    319. D(Au  3,Cr 14,Au  1,Au 10)     28.6284         0.001531   
    320. D(Au  5,Cr 14,Au  3,Au 13)     31.8605         0.001522   
    321. D(Au  3,Cr 14,Au  1,Au  9)     61.6203         0.001531   
    322. D(Au  3,Cr 14,Au  1,Au  8)     89.7446         0.001531   
    323. D(Au  2,Cr 14,Au  1,Au 10)    103.7952         0.001531   
    324. D(Au  7,Cr 14,Au  3,Au 13)    101.1313         0.001522   
    325. D(Au  2,Cr 14,Au  1,Au  9)    136.7871         0.001531   
    326. D(Au  2,Cr 14,Au  1,Au  8)    164.9114         0.001531   
    327. D(Au  0,Cr 14,Au  1,Au 10)    -88.7929         0.001531   
    328. D(Au  0,Cr 14,Au  1,Au  9)    -55.8010         0.001531   
    329. D(Au  0,Cr 14,Au  1,Au  8)    -27.6767         0.001531   
    330. D(Au  7,Cr 14,Au  0,Au  8)   -106.5064         0.001573   
    331. D(Au  7,Cr 14,Au  0,Au 11)    -45.4096         0.001573   
    332. D(Au  2,Cr 14,Au  5,Au 11)   -107.6236         0.001531   
    333. D(Au  6,Cr 14,Au  0,Au  8)    149.4810         0.001573   
    334. D(Au  6,Cr 14,Au  0,Au 11)   -149.4221         0.001573   
    335. D(Au  5,Cr 14,Au  0,Au  8)    -90.7000         0.001573   
    336. D(Au  3,Cr 14,Au  5,Au 13)    -28.6269         0.001531   
    337. D(Au  5,Cr 14,Au  0,Au 11)    -29.6031         0.001573   
    338. D(Au  4,Cr 14,Au  0,Au  8)    149.4523         0.001573   
    339. D(Au  4,Cr 14,Au  0,Au 11)   -149.4509         0.001573   
    340. D(Au  6,Cr 14,Au  5,Au 12)    110.9711         0.001531   
    341. D(Au  3,Cr 14,Au  0,Au  8)    -30.5441         0.001573   
    342. D(Au  3,Cr 14,Au  0,Au 11)     30.5528         0.001573   
    343. D(Au  2,Cr 14,Au  0,Au  8)     45.4303         0.001573   
    344. D(Au  2,Cr 14,Au  0,Au 11)    106.5272         0.001573   
    345. D(Au  1,Cr 14,Au  0,Au  8)     29.6068         0.001573   
    346. D(Au  1,Cr 14,Au  0,Au 11)     90.7036         0.001573   
    -----------------------------------------------------------------

Number of atoms                         .... 15
Number of degrees of freedom            .... 346

         *************************************************************
         *                GEOMETRY OPTIMIZATION CYCLE   1            *
         *************************************************************
---------------------------------
CARTESIAN COORDINATES (ANGSTROEM)
---------------------------------
  Au     8.511490    8.760004    6.265143
  Au     8.361788    7.065051    8.802590
  Au     6.258054    8.035838   10.287497
  Au     5.522233    6.345419    8.002212
  Au     5.570554   10.638151    9.317090
  Au     5.621445    8.099784    5.525468
  Au     7.779507   10.987199    7.578908
  Au     4.057412    8.866263    7.656379
  Au     9.601472    6.200611    6.353221
  Au     9.994073    4.842582    8.699371
  Au     7.551110    4.449358    7.507131
  Au     7.920900    6.835135    4.343328
  Au     5.428679    6.567028    3.239084
  Au     5.877415    5.081522    5.505615
  Cr     6.580883    8.830408    7.901538

----------------------------
CARTESIAN COORDINATES (A.U.)
----------------------------
  NO LB      ZA    FRAG     MASS         X           Y           Z
   0 Au   19.0000*   0   196.966   16.084384   16.554008   11.839404
   1 Au   19.0000*   0   196.966   15.801490   13.351012   16.634485
   2 Au   19.0000*   0   196.966   11.826009   15.185534   19.440552
   3 Au   19.0000*   0   196.966   10.435508   11.991105   15.121990
   4 Au   19.0000*   0   196.966   10.526821   20.103192   17.606749
   5 Au   19.0000*   0   196.966   10.622992   15.306373   10.441621
   6 Au   19.0000*   0   196.966   14.701138   20.762798   14.322060
   7 Au   19.0000*   0   196.966    7.667397   16.754808   14.468459
   8 Au   19.0000*   0   196.966   18.144153   11.717458   12.005848
   9 Au   19.0000*   0   196.966   18.886060    9.151154   16.439429
  10 Au   19.0000*   0   196.966   14.269530    8.408069   14.186422
  11 Au   19.0000*   0   196.966   14.968333   12.916534    8.207700
  12 Au   19.0000*   0   196.966   10.258716   12.409884    6.120982
  13 Au   19.0000*   0   196.966   11.106706    9.602684   10.404105
  14 Cr   24.0000    0    52.000   12.436066   16.687052   14.931743
* core charge reduced due to ECP

--------------------------------
INTERNAL COORDINATES (ANGSTROEM)
--------------------------------
 Au     0   0   0     0.000000000000     0.00000000     0.00000000
 Au     1   0   0     3.055145612790     0.00000000     0.00000000
 Au     2   1   0     2.751921547608   106.85215388     0.00000000
 Au     3   2   1     2.936235092979    64.43834886    77.31050390
 Au     3   2   1     2.861184837401   108.75546652   343.23571860
 Au     4   3   2     3.036758327885   107.09731797   278.96776641
 Au     1   2   3     2.687410814734    92.31609323    35.75132132
 Au     6   4   3     2.752176061227    60.71492145   304.87941726
 Au     1   2   3     2.783219104957    58.85106700   202.51168339
 Au     9   1   2     2.739123737335   122.62623026   346.38951359
 Au    10   9   1     2.746657637271    64.64039359    90.03834921
 Au     9   1   2     2.695665799626    61.03953235   128.76381331
 Au    12   9   1     2.739051643480   147.65065891   253.88141987
 Au    11  10   9     2.684576211920   147.61063389   356.29300836
 Cr     7   1   2     2.488481895283    58.41839481   313.96851684

---------------------------
INTERNAL COORDINATES (A.U.)
---------------------------
 Au     0   0   0     0.000000000000     0.00000000     0.00000000
 Au     1   0   0     5.773388507425     0.00000000     0.00000000
 Au     2   1   0     5.200378067015   106.85215388     0.00000000
 Au     3   2   1     5.548680190539    64.43834886    77.31050390
 Au     3   2   1     5.406855761215   108.75546652   343.23571860
 Au     4   3   2     5.738641574607   107.09731797   278.96776641
 Au     1   2   3     5.078470449185    92.31609323    35.75132132
 Au     6   4   3     5.200859028054    60.71492145   304.87941726
 Au     1   2   3     5.259521879067    58.85106700   202.51168339
 Au     9   1   2     5.176193710486   122.62623026   346.38951359
 Au    10   9   1     5.190430718086    64.64039359    90.03834921
 Au     9   1   2     5.094070109871    61.03953235   128.76381331
 Au    12   9   1     5.176057472843   147.65065891   253.88141987
 Au    11  10   9     5.073113826168   147.61063389   356.29300836
 Cr     7   1   2     4.702549271306    58.41839481   313.96851684

---------------------
BASIS SET INFORMATION
---------------------
There are 2 groups of distinct atoms

 Group   1 Type Au  : 8s7p6d1f contracted to 6s4p3d1f pattern {311111/4111/411/1}
 Group   2 Type Cr  : 17s11p7d1f contracted to 6s4p4d1f pattern {842111/6311/4111/1}

Atom   0Au   basis set group =>   1
Atom   1Au   basis set group =>   1
Atom   2Au   basis set group =>   1
Atom   3Au   basis set group =>   1
Atom   4Au   basis set group =>   1
Atom   5Au   basis set group =>   1
Atom   6Au   basis set group =>   1
Atom   7Au   basis set group =>   1
Atom   8Au   basis set group =>   1
Atom   9Au   basis set group =>   1
Atom  10Au   basis set group =>   1
Atom  11Au   basis set group =>   1
Atom  12Au   basis set group =>   1
Atom  13Au   basis set group =>   1
Atom  14Cr   basis set group =>   2
---------------------------------
AUXILIARY/J BASIS SET INFORMATION
---------------------------------
There are 2 groups of distinct atoms

 Group   1 Type Au  : 11s5p5d3f3g contracted to 8s5p5d2f3g pattern {41111111/11111/11111/21/111}
 Group   2 Type Cr  : 19s5p5d3f3g contracted to 8s5p5d2f3g pattern {121111111/11111/11111/21/111}

Atom   0Au   basis set group =>   1
Atom   1Au   basis set group =>   1
Atom   2Au   basis set group =>   1
Atom   3Au   basis set group =>   1
Atom   4Au   basis set group =>   1
Atom   5Au   basis set group =>   1
Atom   6Au   basis set group =>   1
Atom   7Au   basis set group =>   1
Atom   8Au   basis set group =>   1
Atom   9Au   basis set group =>   1
Atom  10Au   basis set group =>   1
Atom  11Au   basis set group =>   1
Atom  12Au   basis set group =>   1
Atom  13Au   basis set group =>   1
Atom  14Cr   basis set group =>   2
-------------------------
ECP PARAMETER INFORMATION
-------------------------

 Group 1, Type Au ECP Def2-ECP (replacing 60 core electrons, lmax=3)

Atom   0Au   ECP group =>   1
Atom   1Au   ECP group =>   1
Atom   2Au   ECP group =>   1
Atom   3Au   ECP group =>   1
Atom   4Au   ECP group =>   1
Atom   5Au   ECP group =>   1
Atom   6Au   ECP group =>   1
Atom   7Au   ECP group =>   1
Atom   8Au   ECP group =>   1
Atom   9Au   ECP group =>   1
Atom  10Au   ECP group =>   1
Atom  11Au   ECP group =>   1
Atom  12Au   ECP group =>   1
Atom  13Au   ECP group =>   1

------------------------------------------------------------------------------
                           ORCA GTO INTEGRAL CALCULATION
                           -- RI-GTO INTEGRALS CHOSEN --
------------------------------------------------------------------------------
------------------------------------------------------------------------------
                   ___                                                        
                  /   \      - P O W E R E D   B Y -                         
                 /     \                                                     
                 |  |  |   _    _      __       _____    __    __             
                 |  |  |  | |  | |    /  \     |  _  \  |  |  /  |          
                  \  \/   | |  | |   /    \    | | | |  |  | /  /          
                 / \  \   | |__| |  /  /\  \   | |_| |  |  |/  /          
                |  |  |   |  __  | /  /__\  \  |    /   |      \           
                |  |  |   | |  | | |   __   |  |    \   |  |\   \          
                \     /   | |  | | |  |  |  |  | |\  \  |  | \   \       
                 \___/    |_|  |_| |__|  |__|  |_| \__\ |__|  \__/        
                                                                              
                      - O R C A' S   B I G   F R I E N D -                    
                                      &                                       
                       - I N T E G R A L  F E E D E R -                       
                                                                              
 v1 FN, 2020, v2 2021                                                         
------------------------------------------------------------------------------


Reading SHARK input file pbe.SHARKINP.tmp ... ok
----------------------
SHARK INTEGRAL PACKAGE
----------------------

Number of atoms                             ...     15
Number of basis functions                   ...    605
Number of shells                            ...    211
Maximum angular momentum                    ...      3
Integral batch strategy                     ... SHARK/LIBINT Hybrid
RI-J (if used) integral strategy            ... SPLIT-RIJ (Revised 2003 algorithm where possible)
Printlevel                                  ...      1
Contraction scheme used                     ... SEGMENTED contraction
Coulomb Range Separation                    ... NOT USED
Exchange Range Separation                   ... NOT USED
Finite Nucleus Model                        ... NOT USED
Auxiliary Coulomb fitting basis             ... AVAILABLE
   # of basis functions in Aux-J            ...   1335
   # of shells in Aux-J                     ...    345
   Maximum angular momentum in Aux-J        ...      4
Auxiliary J/K fitting basis                 ... NOT available
Auxiliary Correlation fitting basis         ... NOT available
Auxiliary 'external' fitting basis          ... NOT available
Integral threshold                          ...     2.500000e-11
Primitive cut-off                           ...     2.500000e-12
Primitive pair pre-selection threshold      ...     2.500000e-12

Calculating pre-screening integrals         ... done (  0.3 sec) Dimension = 211
Organizing shell pair data                  ... done (  0.3 sec)
Shell pair information
Total number of shell pairs                 ...     22366
Shell pairs after pre-screening             ...     17447
Total number of primitive shell pairs       ...     59609
Primitive shell pairs kept                  ...     33593
          la=0 lb=0:   2756 shell pairs
          la=1 lb=0:   4029 shell pairs
          la=1 lb=1:   1496 shell pairs
          la=2 lb=0:   3451 shell pairs
          la=2 lb=1:   2428 shell pairs
          la=2 lb=2:   1007 shell pairs
          la=3 lb=0:    906 shell pairs
          la=3 lb=1:    682 shell pairs
          la=3 lb=2:    596 shell pairs
          la=3 lb=3:     96 shell pairs

Calculating one electron integrals          ... done (  0.1 sec)
Calculating ECP integrals                   ... done (  8.9 sec)
Calculating RI/J V-Matrix + Cholesky decomp.... done (  0.1 sec)
Calculating Nuclear repulsion               ... done (  0.0 sec) ENN=   5349.625996762017 Eh

SHARK setup successfully completed in  10.2 seconds

Maximum memory used throughout the entire GTOINT-calculation: 492.4 MB
-------------------------------------------------------------------------------
                                 ORCA SCF
-------------------------------------------------------------------------------

------------
SCF SETTINGS
------------
Hamiltonian:
 Density Functional     Method          .... DFT(GTOs)
 Exchange Functional    Exchange        .... PBE
   PBE kappa parameter   XKappa         ....  0.804000
   PBE mue parameter    XMuePBE         ....  0.219520
 Correlation Functional Correlation     .... PBE
   PBE beta parameter  CBetaPBE         ....  0.066725
 LDA part of GGA corr.  LDAOpt          .... PW91-LDA
 Gradients option       PostSCFGGA      .... off
   Density functional embedding theory  .... OFF
   NL short-range parameter             ....  6.400000
 RI-approximation to the Coulomb term is turned on
   Number of AuxJ basis functions       .... 1335


General Settings:
 Integral files         IntName         .... pbe
 Hartree-Fock type      HFTyp           .... UHF
 Total Charge           Charge          ....    0
 Multiplicity           Mult            ....    5
 Number of Electrons    NEL             ....  290
 Basis Dimension        Dim             ....  605
 Nuclear Repulsion      ENuc            ....   5349.6259967620 Eh

Convergence Acceleration:
 DIIS                   CNVDIIS         .... off
 Trust-Rad. Augm. Hess. CNVTRAH         .... auto
   Auto Start mean grad. ratio tolernc. ....  1.125000
   Auto Start start iteration           ....    20
   Auto Start num. interpolation iter.  ....    10
   Max. Number of Micro iterations      ....    16
   Max. Number of Macro iterations      .... Maxiter - #DIIS iter
   Number of Davidson start vectors     ....     2
   Converg. threshold I  (grad. norm)   ....   1.000e-05
   Converg. threshold II (energy diff.) ....   1.000e-08
   Grad. Scal. Fac. for Micro threshold ....   0.100
   Minimum threshold for Micro iter.    ....   0.010
   NR start threshold (gradient norm)   ....   0.001
   Initial trust radius                 ....   0.400
   Minimum AH scaling param. (alpha)    ....   1.000
   Maximum AH scaling param. (alpha)    .... 1000.000
   Orbital update algorithm             .... Taylor
   White noise on init. David. guess    .... on
   Maximum white noise                  ....   0.010
   Quad. conv. algorithm                .... NR
 SOSCF                  CNVSOSCF        .... off
 Level Shifting         CNVShift        .... off
 Zerner damping         CNVZerner       .... off
 Static damping         CNVDamp         .... off
 Fernandez-Rico         CNVRico         .... off

SCF Procedure:
 Maximum # iterations   MaxIter         ....   125
 SCF integral mode      SCFMode         .... Direct
   Integral package                     .... SHARK and LIBINT hybrid scheme
 Reset frequency        DirectResetFreq ....    20
 Integral Threshold     Thresh          ....  2.500e-11 Eh
 Primitive CutOff       TCut            ....  2.500e-12 Eh

Convergence Tolerance:
 Convergence Check Mode ConvCheckMode   .... Total+1el-Energy
 Convergence forced     ConvForced      .... 0
 Energy Change          TolE            ....  1.000e-08 Eh
 1-El. energy change                    ....  1.000e-05 Eh


Diagonalization of the overlap matrix:
Smallest eigenvalue                        ... 1.707e-04
Time for diagonalization                   ...    0.050 sec
Threshold for overlap eigenvalues          ... 1.000e-08
Number of eigenvalues below threshold      ... 0
Time for construction of square roots      ...    0.024 sec
Total time needed                          ...    0.075 sec

Time for model grid setup =    1.226 sec

------------------------------
INITIAL GUESS: MODEL POTENTIAL
------------------------------
Loading Hartree-Fock densities                     ... done
  calling /media/Programs/ORCA501/orca pbe_atom79.inp > pbe_atom79.out in order to generate an atomic fitting density for atom 0 (Au with ECP) on-the-fly... 
    atom 0 (Au), assumed electronic state with S=2: 1s2 2s2 2p6 3s2 3p6 4s2 3d10 4p6 5s2 4d10 5p6 6s1 4f14 5d10           ... done
Calculating cut-offs                               ... done
Initializing the effective Hamiltonian             ... done
Setting up the integral package (SHARK)            ... done
Starting the Coulomb interaction                   ... done (   2.1 sec)
Reading the grid                                   ... done
Mapping shells                                     ... done
Starting the XC term evaluation                    ... done (   2.4 sec)
  promolecular density results
     # of electrons  =   1130.013972949
     EX              =  -5168.706051636
     EC              =    -68.816554066
     EX+EC           =  -5237.522605702
Transforming the Hamiltonian                       ... done (   0.0 sec)
Diagonalizing the Hamiltonian                      ... done (   0.0 sec)
Back transforming the eigenvectors                 ... done (   0.0 sec)
Now organizing SCF variables                       ... done
                      ------------------
                      INITIAL GUESS DONE (   6.2 sec)
                      ------------------
-------------------
DFT GRID GENERATION
-------------------

General Integration Accuracy     IntAcc      ... 4.388
Radial Grid Type                 RadialGrid  ... OptM3 with GC (2021)
Angular Grid (max. ang.)         AngularGrid ... 4 (Lebedev-302)
Angular grid pruning method      GridPruning ... 4 (adaptive)
Weight generation scheme         WeightScheme... Becke
Basis function cutoff            BFCut       ... 1.0000e-11
Integration weight cutoff        WCut        ... 1.0000e-14
Angular grids for H and He will be reduced by one unit
Partially contracted basis set               ... off
Rotationally invariant grid construction     ... off

Total number of grid points                  ...   166488
Total number of batches                      ...     2607
Average number of points per batch           ...       63
Average number of grid points per atom       ...    11099
Time for grid setup =    3.015 sec

--------------
SCF ITERATIONS
--------------
ITER       Energy         Delta-E        Max-DP      RMS-DP      [F,P]   Gradient Norm
               ***  Starting incremental Fock matrix formation  ***
                             ****Resetting KDIIS****
                             ****Turning on KDIIS(Cayley)****
  0  -2944.2116071995   0.000000000000 0.27191649  0.00124601  0.3817858   0.205533142
  1  -2945.0707773752  -0.859170175736 0.17319599  0.00106036  0.3415008   0.164104290
  2  -2945.4570072802  -0.386229904988 0.09792780  0.00100608  0.2697113   0.124966048
  3  -2945.6743897096  -0.217382429400 0.12912514  0.00134355  0.1573984   0.071764086
  4  -2945.7765733285  -0.102183618934 0.15332830  0.00051010  0.0126884   0.007412534
  5  -2945.7814972098  -0.004923881289 0.11598865  0.00043503  0.0119548   0.006686582
  6  -2945.7881281072  -0.006630897423 0.02278992  0.00016799  0.0109475   0.005313020
  7  -2945.7913380576  -0.003209950368 0.04008475  0.00018356  0.0061107   0.003948859
  8  -2945.7944538389  -0.003115781296 0.01589131  0.00012724  0.0035354   0.002510948
  9  -2945.7961464967  -0.001692657802 0.00977544  0.00009415  0.0036129   0.001204470
 10  -2945.7963787307  -0.000232233976 0.00762572  0.00008869  0.0038711   0.002073713
 11  -2945.7971345613  -0.000755830642 0.02230238  0.00007393  0.0015721   0.000963171
 12  -2945.7969982418   0.000136319538 0.01068187  0.00006223  0.0020197   0.001382168
 13  -2945.7972592936  -0.000261051784 0.00748981  0.00003387  0.0018490   0.001135527
 14  -2945.7973987745  -0.000139480895 0.00304020  0.00002713  0.0012472   0.000520917
 15  -2945.7973941153   0.000004659204 0.00297535  0.00003265  0.0011329   0.000547799
 16  -2945.7974674076  -0.000073292356 0.00152170  0.00001559  0.0009444   0.000458369
 17  -2945.7974859264  -0.000018518761 0.00399099  0.00002120  0.0009071   0.000241734
 18  -2945.7975058836  -0.000019957270 0.00247089  0.00001662  0.0006173   0.000357986
 19  -2945.7975259962  -0.000020112593 0.00102952  0.00000803  0.0008393   0.000307629
               *** Restarting incremental Fock matrix formation ***
                             ****Resetting KDIIS****
 20  -2945.7975352830  -0.000009286722 0.00040107  0.00000204  0.0005545   0.000208052
 21  -2945.7975392481  -0.000003965159 0.00035875  0.00000244  0.0005356   0.000145560
 22  -2945.7975433395  -0.000004091361 0.00048546  0.00000420  0.0005393   0.000125164

 WARNING: the maximum gradient error descreased on average only by a factor   1.1
          during the last 20 iterations

                      *** Initiating the TRAH-SCF procedure ***

                    *** KDIIS BlockDiag ( 0.100 sec) ***

TRAH GRID
---------

General Integration Accuracy     IntAcc      ... 3.467
Radial Grid Type                 RadialGrid  ... OptM3 with GC (2021)
Angular Grid (max. ang.)         AngularGrid ... 1 (Lebedev-50)
Angular grid pruning method      GridPruning ... 4 (adaptive)
Weight generation scheme         WeightScheme... Becke
Basis function cutoff            BFCut       ... 1.0000e-11
Integration weight cutoff        WCut        ... 1.0000e-14
Angular grids for H and He will be reduced by one unit
Partially contracted basis set               ... off
Rotationally invariant grid construction     ... off

Total number of grid points                  ...    71837
Total number of batches                      ...     1133
Average number of points per batch           ...       63
Average number of grid points per atom       ...     4789

 --------------------------------------------------------------------------------------------
   Iter.        energy            ||Error||_2        Shift      TRadius  Mac/Mic        Rej.
 --------------------------------------------------------------------------------------------
    0      -2945.797550442906     1.747793e-03                     0.400 (TRAH MAcro)   No
WARNING : small    HOMO - LUMO gap : (op = alpha) 0.004875
    0     dE    -6.050910e-07     4.403661e-03    -6.0509e-07      0.000 (TRAH MIcro)
    0     dE    -2.536130e-05     6.690142e-03    -2.5350e-05      0.021 (TRAH MIcro)
    0     dE    -4.955647e-05     2.804389e-03    -4.9470e-05      0.042 (TRAH MIcro)
    0     dE    -5.242604e-05     1.415637e-03    -5.2322e-05      0.045 (TRAH MIcro)
    0     dE    -5.401645e-05     1.257711e-03    -5.3892e-05      0.048 (TRAH MIcro)
    0     dE    -5.477845e-05     8.219614e-04    -5.4642e-05      0.050 (TRAH MIcro)
    0     dE    -5.511929e-05     4.561940e-04    -5.4973e-05      0.052 (TRAH MIcro)
    0     dE    -5.522471e-05     3.165279e-04    -5.5072e-05      0.053 (TRAH MIcro)
    0     dE    -5.531392e-05     2.032347e-04    -5.5154e-05      0.054 (TRAH MIcro)
    0     dE    -5.535301e-05     1.616355e-04    -5.5189e-05      0.055 (TRAH MIcro)
    1      -2945.797605521719     3.747682e-04                           (NR   MAcro)
WARNING : small    HOMO - LUMO gap : (op = alpha) 0.004931
    1     dE    -4.660698e-08     2.214208e-04                           (NR   MIcro)
    1     dE    -6.549505e-08     1.211419e-04                           (NR   MIcro)
    1     dE    -7.507201e-08     7.094684e-05                           (NR   MIcro)
    1     dE    -7.851335e-08     3.868794e-05                           (NR   MIcro)
    1     dE    -7.960988e-08     2.738519e-05                           (NR   MIcro)
    1     dE    -7.997576e-08     1.782659e-05                           (NR   MIcro)
    1     dE    -8.018482e-08     9.997270e-06                           (NR   MIcro)
    1     dE    -8.025964e-08     8.334388e-06                           (NR   MIcro)
    1     dE    -8.031640e-08     5.245662e-06                           (NR   MIcro)
    1     dE    -8.033091e-08     2.934287e-06                           (NR   MIcro)
    1     dE    -8.033656e-08     1.618738e-06                           (NR   MIcro)
    1     dE    -8.033837e-08     8.435276e-07                           (NR   MIcro)
    2      -2945.797605602086     9.112620e-07                           (NR   MAcro)
WARNING : small    HOMO - LUMO gap : (op = alpha) 0.004904
    2     dE    -5.274066e-13     6.473077e-07                           (NR   MIcro)
    3      -2945.797605602085     6.473186e-07                           (NR   MAcro)
WARNING : small    HOMO - LUMO gap : (op = alpha) 0.004904

               *****************************************************
               *                     SUCCESS                       *
               *           SCF CONVERGED AFTER  50 CYCLES          *
               *****************************************************


----------------
TOTAL SCF ENERGY
----------------

Total Energy       :        -2945.79760560 Eh          -80159.22806 eV

Components:
Nuclear Repulsion  :         5349.62599676 Eh          145570.72404 eV
Electronic Energy  :        -8295.42360236 Eh         -225729.95211 eV
One Electron Energy:       -15466.39154797 Eh         -420861.91023 eV
Two Electron Energy:         7170.96794560 Eh          195131.95812 eV

Virial components:
Potential Energy   :        -4629.54353647 Eh         -125976.28414 eV
Kinetic Energy     :         1683.74593086 Eh           45817.05607 eV
Virial Ratio       :            2.74954995


DFT components:
N(Alpha)           :      146.999999529290 electrons
N(Beta)            :      143.000000204131 electrons
N(Total)           :      289.999999733421 electrons
E(X)               :     -216.127752862490 Eh       
E(C)               :      -12.602903976489 Eh       
E(XC)              :     -228.730656838979 Eh       
DFET-embed. en.    :        0.000000000000 Eh       

---------------
SCF CONVERGENCE
---------------

  Last Energy change         ...    9.0949e-13  Tolerance :   1.0000e-08
  Last Orbital Gradient      ...    6.4732e-07  Tolerance :   1.0000e-05
  Last Orbital Rotation      ...    2.7507e-06

             **** THE GBW FILE WAS UPDATED (pbe.gbw) ****
             **** DENSITY pbe.scfp WAS UPDATED ****
             **** ENERGY FILE WAS UPDATED (pbe.en.tmp) ****
----------------------
UHF SPIN CONTAMINATION
----------------------

Warning: in a DFT calculation there is little theoretical justification to 
         calculate <S**2> as in Hartree-Fock theory. We will do it anyways
         but you should keep in mind that the values have only limited relevance

Expectation value of <S**2>     :     6.196743
Ideal value S*(S+1) for S=2.0   :     6.000000
Deviation                       :     0.196743

             **** THE GBW FILE WAS UPDATED (pbe.gbw) ****
             **** DENSITY pbe.scfp WAS UPDATED ****
----------------
ORBITAL ENERGIES
----------------
                 SPIN UP ORBITALS
  NO   OCC          E(Eh)            E(eV) 
   0   1.0000    -214.493127     -5836.6547 
   1   1.0000     -24.300472      -661.2495 
   2   1.0000     -20.667842      -562.4006 
   3   1.0000     -20.662262      -562.2487 
   4   1.0000     -20.661108      -562.2173 
   5   1.0000      -4.044204      -110.0484 
   6   1.0000      -4.029122      -109.6380 
   7   1.0000      -4.029113      -109.6377 
   8   1.0000      -4.027714      -109.5997 
   9   1.0000      -4.026599      -109.5693 
  10   1.0000      -4.025488      -109.5391 
  11   1.0000      -4.025484      -109.5390 
  12   1.0000      -4.025465      -109.5385 
  13   1.0000      -4.025280      -109.5334 
  14   1.0000      -4.020363      -109.3996 
  15   1.0000      -4.017465      -109.3208 
  16   1.0000      -4.017461      -109.3207 
  17   1.0000      -4.014043      -109.2277 
  18   1.0000      -4.013822      -109.2216 
  19   1.0000      -2.802643       -76.2638 
  20   1.0000      -2.262651       -61.5699 
  21   1.0000      -2.256798       -61.4106 
  22   1.0000      -2.250678       -61.2441 
  23   1.0000      -2.248529       -61.1856 
  24   1.0000      -2.248505       -61.1849 
  25   1.0000      -2.248088       -61.1736 
  26   1.0000      -2.244945       -61.0881 
  27   1.0000      -2.244124       -61.0657 
  28   1.0000      -2.243788       -61.0566 
  29   1.0000      -2.242864       -61.0314 
  30   1.0000      -2.241491       -60.9941 
  31   1.0000      -2.241123       -60.9841 
  32   1.0000      -2.240955       -60.9795 
  33   1.0000      -2.240426       -60.9651 
  34   1.0000      -2.238680       -60.9176 
  35   1.0000      -2.238460       -60.9116 
  36   1.0000      -2.238292       -60.9070 
  37   1.0000      -2.238027       -60.8998 
  38   1.0000      -2.237551       -60.8869 
  39   1.0000      -2.236965       -60.8709 
  40   1.0000      -2.236938       -60.8702 
  41   1.0000      -2.236477       -60.8576 
  42   1.0000      -2.236286       -60.8524 
  43   1.0000      -2.235280       -60.8251 
  44   1.0000      -2.234935       -60.8157 
  45   1.0000      -2.234219       -60.7962 
  46   1.0000      -2.234206       -60.7958 
  47   1.0000      -2.233954       -60.7890 
  48   1.0000      -2.233743       -60.7832 
  49   1.0000      -2.233459       -60.7755 
  50   1.0000      -2.232737       -60.7559 
  51   1.0000      -2.232694       -60.7547 
  52   1.0000      -2.230237       -60.6878 
  53   1.0000      -2.228545       -60.6418 
  54   1.0000      -2.227871       -60.6235 
  55   1.0000      -2.227433       -60.6115 
  56   1.0000      -2.227416       -60.6111 
  57   1.0000      -2.225328       -60.5543 
  58   1.0000      -2.225102       -60.5481 
  59   1.0000      -2.224773       -60.5391 
  60   1.0000      -2.223903       -60.5155 
  61   1.0000      -2.222987       -60.4906 
  62   1.0000      -1.798433       -48.9379 
  63   1.0000      -1.790534       -48.7229 
  64   1.0000      -1.788369       -48.6640 
  65   1.0000      -0.417494       -11.3606 
  66   1.0000      -0.387774       -10.5519 
  67   1.0000      -0.386892       -10.5279 
  68   1.0000      -0.382440       -10.4067 
  69   1.0000      -0.369777       -10.0622 
  70   1.0000      -0.364430        -9.9166 
  71   1.0000      -0.363468        -9.8905 
  72   1.0000      -0.361633        -9.8405 
  73   1.0000      -0.354013        -9.6332 
  74   1.0000      -0.350910        -9.5488 
  75   1.0000      -0.350172        -9.5287 
  76   1.0000      -0.348344        -9.4789 
  77   1.0000      -0.345121        -9.3912 
  78   1.0000      -0.341897        -9.3035 
  79   1.0000      -0.338627        -9.2145 
  80   1.0000      -0.336085        -9.1453 
  81   1.0000      -0.333687        -9.0801 
  82   1.0000      -0.333250        -9.0682 
  83   1.0000      -0.330484        -8.9929 
  84   1.0000      -0.330230        -8.9860 
  85   1.0000      -0.328289        -8.9332 
  86   1.0000      -0.326799        -8.8927 
  87   1.0000      -0.323587        -8.8053 
  88   1.0000      -0.321037        -8.7359 
  89   1.0000      -0.320358        -8.7174 
  90   1.0000      -0.317926        -8.6512 
  91   1.0000      -0.314273        -8.5518 
  92   1.0000      -0.312745        -8.5102 
  93   1.0000      -0.311493        -8.4762 
  94   1.0000      -0.306782        -8.3480 
  95   1.0000      -0.306289        -8.3345 
  96   1.0000      -0.305594        -8.3156 
  97   1.0000      -0.302424        -8.2294 
  98   1.0000      -0.301815        -8.2128 
  99   1.0000      -0.299607        -8.1527 
 100   1.0000      -0.298692        -8.1278 
 101   1.0000      -0.292772        -7.9667 
 102   1.0000      -0.290841        -7.9142 
 103   1.0000      -0.285894        -7.7796 
 104   1.0000      -0.285431        -7.7670 
 105   1.0000      -0.283704        -7.7200 
 106   1.0000      -0.282339        -7.6828 
 107   1.0000      -0.281176        -7.6512 
 108   1.0000      -0.280328        -7.6281 
 109   1.0000      -0.277772        -7.5585 
 110   1.0000      -0.277034        -7.5385 
 111   1.0000      -0.275501        -7.4968 
 112   1.0000      -0.275146        -7.4871 
 113   1.0000      -0.271658        -7.3922 
 114   1.0000      -0.270964        -7.3733 
 115   1.0000      -0.269314        -7.3284 
 116   1.0000      -0.268591        -7.3087 
 117   1.0000      -0.267948        -7.2912 
 118   1.0000      -0.267579        -7.2812 
 119   1.0000      -0.265667        -7.2292 
 120   1.0000      -0.264482        -7.1969 
 121   1.0000      -0.263308        -7.1650 
 122   1.0000      -0.263211        -7.1623 
 123   1.0000      -0.261337        -7.1114 
 124   1.0000      -0.260310        -7.0834 
 125   1.0000      -0.258957        -7.0466 
 126   1.0000      -0.256225        -6.9722 
 127   1.0000      -0.253407        -6.8956 
 128   1.0000      -0.251715        -6.8495 
 129   1.0000      -0.251569        -6.8456 
 130   1.0000      -0.251298        -6.8382 
 131   1.0000      -0.250662        -6.8209 
 132   1.0000      -0.248873        -6.7722 
 133   1.0000      -0.246285        -6.7017 
 134   1.0000      -0.245248        -6.6735 
 135   1.0000      -0.241917        -6.5829 
 136   1.0000      -0.241331        -6.5670 
 137   1.0000      -0.238733        -6.4963 
 138   1.0000      -0.230931        -6.2840 
 139   1.0000      -0.222549        -6.0559 
 140   1.0000      -0.217563        -5.9202 
 141   1.0000      -0.216335        -5.8868 
 142   1.0000      -0.212246        -5.7755 
 143   1.0000      -0.206350        -5.6151 
 144   1.0000      -0.205317        -5.5870 
 145   1.0000      -0.193404        -5.2628 
 146   1.0000      -0.191196        -5.2027 
 147   0.0000      -0.186292        -5.0693 
 148   0.0000      -0.150356        -4.0914 
 149   0.0000      -0.140990        -3.8365 
 150   0.0000      -0.129283        -3.5180 
 151   0.0000      -0.128156        -3.4873 
 152   0.0000      -0.124319        -3.3829 
 153   0.0000      -0.120205        -3.2709 
 154   0.0000      -0.106332        -2.8935 
 155   0.0000      -0.074116        -2.0168 
 156   0.0000      -0.071545        -1.9468 
 157   0.0000      -0.057296        -1.5591 
 158   0.0000      -0.047270        -1.2863 
 159   0.0000      -0.042567        -1.1583 
 160   0.0000      -0.039968        -1.0876 
 161   0.0000      -0.037342        -1.0161 
 162   0.0000      -0.027292        -0.7426 
 163   0.0000      -0.021884        -0.5955 
 164   0.0000      -0.015837        -0.4309 
 165   0.0000      -0.013182        -0.3587 
 166   0.0000      -0.005003        -0.1361 
 167   0.0000       0.000610         0.0166 
 168   0.0000       0.013580         0.3695 
 169   0.0000       0.019530         0.5314 
 170   0.0000       0.024136         0.6568 
 171   0.0000       0.039881         1.0852 
 172   0.0000       0.042548         1.1578 
 173   0.0000       0.045589         1.2405 
 174   0.0000       0.052434         1.4268 
 175   0.0000       0.055424         1.5082 
 176   0.0000       0.056107         1.5267 
 177   0.0000       0.058961         1.6044 
 178   0.0000       0.060590         1.6487 
 179   0.0000       0.064509         1.7554 
 180   0.0000       0.064764         1.7623 
 181   0.0000       0.069967         1.9039 
 182   0.0000       0.079067         2.1515 
 183   0.0000       0.081751         2.2245 
 184   0.0000       0.084660         2.3037 
 185   0.0000       0.089251         2.4286 
 186   0.0000       0.094625         2.5749 
 187   0.0000       0.096347         2.6217 
 188   0.0000       0.103729         2.8226 
 189   0.0000       0.105700         2.8762 
 190   0.0000       0.106825         2.9069 
 191   0.0000       0.111261         3.0276 
 192   0.0000       0.116490         3.1698 
 193   0.0000       0.118338         3.2201 
 194   0.0000       0.124802         3.3960 
 195   0.0000       0.131768         3.5856 
 196   0.0000       0.133067         3.6209 
 197   0.0000       0.140467         3.8223 
 198   0.0000       0.141477         3.8498 
 199   0.0000       0.153111         4.1664 
 200   0.0000       0.156790         4.2665 
 201   0.0000       0.159544         4.3414 
 202   0.0000       0.161652         4.3988 
 203   0.0000       0.173570         4.7231 
 204   0.0000       0.183301         4.9879 
 205   0.0000       0.193811         5.2739 
 206   0.0000       0.194866         5.3026 
 207   0.0000       0.202176         5.5015 
 208   0.0000       0.204982         5.5778 
 209   0.0000       0.205786         5.5997 
 210   0.0000       0.213837         5.8188 
 211   0.0000       0.215273         5.8579 
 212   0.0000       0.231171         6.2905 
 213   0.0000       0.233689         6.3590 
 214   0.0000       0.246115         6.6971 
 215   0.0000       0.246119         6.6972 
 216   0.0000       0.256360         6.9759 
 217   0.0000       0.256441         6.9781 
 218   0.0000       0.258743         7.0407 
 219   0.0000       0.264114         7.1869 
 220   0.0000       0.265921         7.2361 
 221   0.0000       0.265934         7.2364 
 222   0.0000       0.267930         7.2907 
 223   0.0000       0.274809         7.4779 
 224   0.0000       0.275379         7.4934 
 225   0.0000       0.283656         7.7187 
 226   0.0000       0.286158         7.7868 
 227   0.0000       0.296011         8.0549 
 228   0.0000       0.297023         8.0824 
 229   0.0000       0.297531         8.0962 
 230   0.0000       0.300186         8.1685 
 231   0.0000       0.305463         8.3121 
 232   0.0000       0.306243         8.3333 
 233   0.0000       0.311844         8.4857 
 234   0.0000       0.318309         8.6616 
 235   0.0000       0.320870         8.7313 
 236   0.0000       0.322441         8.7741 
 237   0.0000       0.329366         8.9625 
 238   0.0000       0.330256         8.9867 
 239   0.0000       0.334703         9.1077 
 240   0.0000       0.335524         9.1301 
 241   0.0000       0.343030         9.3343 
 242   0.0000       0.344322         9.3695 
 243   0.0000       0.347246         9.4490 
 244   0.0000       0.352152         9.5825 
 245   0.0000       0.356870         9.7109 
 246   0.0000       0.362929         9.8758 
 247   0.0000       0.366965         9.9856 
 248   0.0000       0.374030        10.1779 
 249   0.0000       0.376004        10.2316 
 250   0.0000       0.378028        10.2867 
 251   0.0000       0.384179        10.4540 
 252   0.0000       0.394991        10.7483 
 253   0.0000       0.397535        10.8175 
 254   0.0000       0.401930        10.9371 
 255   0.0000       0.407833        11.0977 
 256   0.0000       0.410579        11.1724 
 257   0.0000       0.414830        11.2881 
 258   0.0000       0.418365        11.3843 
 259   0.0000       0.427446        11.6314 
 260   0.0000       0.428895        11.6708 
 261   0.0000       0.431073        11.7301 
 262   0.0000       0.443892        12.0789 
 263   0.0000       0.447609        12.1801 
 264   0.0000       0.451589        12.2884 
 265   0.0000       0.459645        12.5076 
 266   0.0000       0.462052        12.5731 
 267   0.0000       0.462148        12.5757 
 268   0.0000       0.468344        12.7443 
 269   0.0000       0.472141        12.8476 
 270   0.0000       0.476310        12.9611 
 271   0.0000       0.482153        13.1200 
 272   0.0000       0.484808        13.1923 
 273   0.0000       0.494329        13.4514 
 274   0.0000       0.495228        13.4758 
 275   0.0000       0.496146        13.5008 
 276   0.0000       0.499484        13.5916 
 277   0.0000       0.499850        13.6016 
 278   0.0000       0.505761        13.7625 
 279   0.0000       0.515574        14.0295 
 280   0.0000       0.517640        14.0857 
 281   0.0000       0.522120        14.2076 
 282   0.0000       0.529896        14.4192 
 283   0.0000       0.533457        14.5161 
 284   0.0000       0.538040        14.6408 
 285   0.0000       0.541931        14.7467 
 286   0.0000       0.545897        14.8546 
 287   0.0000       0.547433        14.8964 
 288   0.0000       0.552748        15.0410 
 289   0.0000       0.554034        15.0760 
 290   0.0000       0.558658        15.2019 
 291   0.0000       0.565420        15.3859 
 292   0.0000       0.566049        15.4030 
 293   0.0000       0.577465        15.7136 
 294   0.0000       0.583354        15.8739 
 295   0.0000       0.634679        17.2705 
 296   0.0000       0.658915        17.9300 
 297   0.0000       0.678624        18.4663 
 298   0.0000       0.687929        18.7195 
 299   0.0000       0.689761        18.7693 
 300   0.0000       0.714670        19.4472 
 301   0.0000       0.722520        19.6608 
 302   0.0000       0.732681        19.9373 
 303   0.0000       0.742874        20.2146 
 304   0.0000       0.746142        20.3036 
 305   0.0000       0.753687        20.5089 
 306   0.0000       0.760832        20.7033 
 307   0.0000       0.765692        20.8355 
 308   0.0000       0.769453        20.9379 
 309   0.0000       0.781785        21.2735 
 310   0.0000       0.797269        21.6948 
 311   0.0000       0.806014        21.9328 
 312   0.0000       0.822146        22.3717 
 313   0.0000       0.825040        22.4505 
 314   0.0000       0.834969        22.7207 
 315   0.0000       0.844373        22.9766 
 316   0.0000       0.846658        23.0387 
 317   0.0000       0.856563        23.3083 
 318   0.0000       0.864073        23.5126 
 319   0.0000       0.866842        23.5880 
 320   0.0000       0.876161        23.8416 
 321   0.0000       0.892881        24.2965 
 322   0.0000       0.896615        24.3981 
 323   0.0000       0.914223        24.8773 
 324   0.0000       0.918514        24.9940 
 325   0.0000       0.929443        25.2914 
 326   0.0000       0.930446        25.3187 
 327   0.0000       0.934647        25.4330 
 328   0.0000       0.943210        25.6661 
 329   0.0000       0.955399        25.9977 
 330   0.0000       1.000156        27.2156 
 331   0.0000       1.010280        27.4911 
 332   0.0000       1.023883        27.8613 
 333   0.0000       1.033255        28.1163 
 334   0.0000       1.067643        29.0520 
 335   0.0000       1.119142        30.4534 
 336   0.0000       1.140284        31.0287 
 337   0.0000       1.202800        32.7298 
 338   0.0000       1.220645        33.2154 
 339   0.0000       1.222602        33.2687 
 340   0.0000       1.247554        33.9477 
 341   0.0000       1.250079        34.0164 
 342   0.0000       1.262386        34.3513 
 343   0.0000       1.268587        34.5200 
 344   0.0000       1.285726        34.9864 
 345   0.0000       1.286830        35.0164 
 346   0.0000       1.308193        35.5977 
 347   0.0000       1.312311        35.7098 
 348   0.0000       1.320311        35.9275 
 349   0.0000       1.336003        36.3545 
 350   0.0000       1.337469        36.3944 
 351   0.0000       1.347257        36.6607 
 352   0.0000       1.353793        36.8386 
 353   0.0000       1.359150        36.9844 
 354   0.0000       1.364899        37.1408 
 355   0.0000       1.369378        37.2627 
 356   0.0000       1.371328        37.3157 
 357   0.0000       1.376009        37.4431 
 358   0.0000       1.376406        37.4539 
 359   0.0000       1.387030        37.7430 
 360   0.0000       1.387127        37.7457 
 361   0.0000       1.392059        37.8799 
 362   0.0000       1.396723        38.0068 
 363   0.0000       1.405342        38.2413 
 364   0.0000       1.406193        38.2645 
 365   0.0000       1.407015        38.2868 
 366   0.0000       1.414568        38.4924 
 367   0.0000       1.416344        38.5407 
 368   0.0000       1.416400        38.5422 
 369   0.0000       1.423848        38.7449 
 370   0.0000       1.427743        38.8508 
 371   0.0000       1.432677        38.9851 
 372   0.0000       1.435400        39.0592 
 373   0.0000       1.437098        39.1054 
 374   0.0000       1.441691        39.2304 
 375   0.0000       1.446470        39.3605 
 376   0.0000       1.446700        39.3667 
 377   0.0000       1.449972        39.4558 
 378   0.0000       1.450245        39.4632 
 379   0.0000       1.452057        39.5125 
 380   0.0000       1.452777        39.5321 
 381   0.0000       1.458391        39.6848 
 382   0.0000       1.460160        39.7330 
 383   0.0000       1.462279        39.7906 
 384   0.0000       1.465196        39.8700 
 385   0.0000       1.469647        39.9911 
 386   0.0000       1.470196        40.0061 
 387   0.0000       1.471897        40.0523 
 388   0.0000       1.472736        40.0752 
 389   0.0000       1.473074        40.0844 
 390   0.0000       1.477338        40.2004 
 391   0.0000       1.478869        40.2421 
 392   0.0000       1.479371        40.2557 
 393   0.0000       1.482956        40.3533 
 394   0.0000       1.484822        40.4041 
 395   0.0000       1.485916        40.4338 
[...]
 220( 0) :     0.266945 a.u.     7.264 eV
 221( 0) :     0.276759 a.u.     7.531 eV
 222( 0) :     0.278631 a.u.     7.582 eV
 223( 0) :     0.279751 a.u.     7.612 eV
 224( 0) :     0.287075 a.u.     7.812 eV
 225( 0) :     0.288218 a.u.     7.843 eV
 226( 0) :     0.290585 a.u.     7.907 eV
 227( 0) :     0.294170 a.u.     8.005 eV
 228( 0) :     0.300688 a.u.     8.182 eV
 229( 0) :     0.301188 a.u.     8.196 eV
 230( 0) :     0.301608 a.u.     8.207 eV
 231( 0) :     0.310495 a.u.     8.449 eV
 232( 0) :     0.314961 a.u.     8.571 eV
 233( 0) :     0.315905 a.u.     8.596 eV
 234( 0) :     0.319603 a.u.     8.697 eV
 235( 0) :     0.323935 a.u.     8.815 eV
 236( 0) :     0.325010 a.u.     8.844 eV
 237( 0) :     0.327094 a.u.     8.901 eV
 238( 0) :     0.336641 a.u.     9.160 eV
 239( 0) :     0.342233 a.u.     9.313 eV
 240( 0) :     0.345532 a.u.     9.402 eV
 241( 0) :     0.345808 a.u.     9.410 eV
 242( 0) :     0.346376 a.u.     9.425 eV
 243( 0) :     0.354661 a.u.     9.651 eV
 244( 0) :     0.358922 a.u.     9.767 eV
 245( 0) :     0.364547 a.u.     9.920 eV
 246( 0) :     0.368108 a.u.    10.017 eV
 247( 0) :     0.368860 a.u.    10.037 eV
 248( 0) :     0.375595 a.u.    10.220 eV
 249( 0) :     0.382585 a.u.    10.411 eV
 250( 0) :     0.386132 a.u.    10.507 eV
 251( 0) :     0.388300 a.u.    10.566 eV
 252( 0) :     0.389905 a.u.    10.610 eV
 253( 0) :     0.393000 a.u.    10.694 eV
 254( 0) :     0.396588 a.u.    10.792 eV
 255( 0) :     0.403023 a.u.    10.967 eV
 256( 0) :     0.409093 a.u.    11.132 eV
 257( 0) :     0.410533 a.u.    11.171 eV
 258( 0) :     0.412714 a.u.    11.231 eV
 259( 0) :     0.423001 a.u.    11.510 eV
 260( 0) :     0.427644 a.u.    11.637 eV
 261( 0) :     0.435821 a.u.    11.859 eV
 262( 0) :     0.440753 a.u.    11.993 eV
 263( 0) :     0.442944 a.u.    12.053 eV
 264( 0) :     0.448545 a.u.    12.206 eV
 265( 0) :     0.452428 a.u.    12.311 eV
 266( 0) :     0.453315 a.u.    12.335 eV
 267( 0) :     0.454101 a.u.    12.357 eV
 268( 0) :     0.462583 a.u.    12.588 eV
 269( 0) :     0.465934 a.u.    12.679 eV
 270( 0) :     0.471066 a.u.    12.818 eV
 271( 0) :     0.471251 a.u.    12.823 eV
 272( 0) :     0.472919 a.u.    12.869 eV
 273( 0) :     0.483362 a.u.    13.153 eV
 274( 0) :     0.489619 a.u.    13.323 eV
 275( 0) :     0.493126 a.u.    13.419 eV
 276( 0) :     0.496788 a.u.    13.518 eV
 277( 0) :     0.501427 a.u.    13.645 eV
 278( 0) :     0.505348 a.u.    13.751 eV
 279( 0) :     0.513298 a.u.    13.968 eV
 280( 0) :     0.520163 a.u.    14.154 eV
 281( 0) :     0.520927 a.u.    14.175 eV
 282( 0) :     0.526528 a.u.    14.328 eV
 283( 0) :     0.527291 a.u.    14.348 eV
 284( 0) :     0.529993 a.u.    14.422 eV
 285( 0) :     0.536851 a.u.    14.608 eV
 286( 0) :     0.544681 a.u.    14.822 eV
 287( 0) :     0.547283 a.u.    14.892 eV
 288( 0) :     0.552266 a.u.    15.028 eV
 289( 0) :     0.566387 a.u.    15.412 eV
 290( 0) :     0.568331 a.u.    15.465 eV
 291( 0) :     0.578236 a.u.    15.735 eV
 292( 0) :     0.590049 a.u.    16.056 eV
 293( 0) :     0.594044 a.u.    16.165 eV
 294( 0) :     0.604684 a.u.    16.454 eV
 295( 0) :     0.618350 a.u.    16.826 eV
 296( 0) :     0.625994 a.u.    17.034 eV
 297( 0) :     0.662661 a.u.    18.032 eV
 298( 0) :     0.669850 a.u.    18.228 eV
 299( 0) :     0.681978 a.u.    18.558 eV
 300( 0) :     0.702653 a.u.    19.120 eV
 301( 0) :     0.709395 a.u.    19.304 eV
 302( 0) :     0.731296 a.u.    19.900 eV
 303( 0) :     0.737028 a.u.    20.056 eV
 304( 0) :     0.741929 a.u.    20.189 eV
 305( 0) :     0.753039 a.u.    20.491 eV
 306( 0) :     0.764058 a.u.    20.791 eV
 307( 0) :     0.766498 a.u.    20.857 eV
 308( 0) :     0.784519 a.u.    21.348 eV
 309( 0) :     0.793689 a.u.    21.597 eV
 310( 0) :     0.794653 a.u.    21.624 eV
 311( 0) :     0.801567 a.u.    21.812 eV
 312( 0) :     0.807363 a.u.    21.969 eV
 313( 0) :     0.811083 a.u.    22.071 eV
 314( 0) :     0.835102 a.u.    22.724 eV
 315( 0) :     0.836289 a.u.    22.757 eV
 316( 0) :     0.840788 a.u.    22.879 eV
 317( 0) :     0.846901 a.u.    23.045 eV
 318( 0) :     0.848643 a.u.    23.093 eV
 319( 0) :     0.863266 a.u.    23.491 eV
 320( 0) :     0.865191 a.u.    23.543 eV
 321( 0) :     0.877310 a.u.    23.873 eV
 322( 0) :     0.881001 a.u.    23.973 eV
 323( 0) :     0.882351 a.u.    24.010 eV
 324( 0) :     0.888279 a.u.    24.171 eV
 325( 0) :     0.895508 a.u.    24.368 eV
 326( 0) :     0.906359 a.u.    24.663 eV
 327( 0) :     0.921980 a.u.    25.088 eV
 328( 0) :     0.951532 a.u.    25.892 eV
 329( 0) :     0.977224 a.u.    26.592 eV
 330( 0) :     0.980836 a.u.    26.690 eV
 331( 0) :     1.004768 a.u.    27.341 eV
 332( 0) :     1.020051 a.u.    27.757 eV
 333( 0) :     1.023563 a.u.    27.853 eV
 334( 0) :     1.103580 a.u.    30.030 eV
 335( 0) :     1.124665 a.u.    30.604 eV
 336( 0) :     1.149006 a.u.    31.266 eV
 337( 0) :     1.184905 a.u.    32.243 eV
 338( 0) :     1.224073 a.u.    33.309 eV
 339( 0) :     1.225805 a.u.    33.356 eV
 340( 0) :     1.228701 a.u.    33.435 eV
 341( 0) :     1.232147 a.u.    33.528 eV
 342( 0) :     1.252914 a.u.    34.094 eV
 343( 0) :     1.263181 a.u.    34.373 eV
 344( 0) :     1.265096 a.u.    34.425 eV
 345( 0) :     1.287070 a.u.    35.023 eV
 346( 0) :     1.292511 a.u.    35.171 eV
 347( 0) :     1.301106 a.u.    35.405 eV
 348( 0) :     1.306362 a.u.    35.548 eV
 349( 0) :     1.314233 a.u.    35.762 eV
 350( 0) :     1.323949 a.u.    36.026 eV
 351( 0) :     1.329631 a.u.    36.181 eV
 352( 0) :     1.332747 a.u.    36.266 eV
 353( 0) :     1.341348 a.u.    36.500 eV
 354( 0) :     1.345243 a.u.    36.606 eV
 355( 0) :     1.347850 a.u.    36.677 eV
 356( 0) :     1.357243 a.u.    36.932 eV
 357( 0) :     1.363474 a.u.    37.102 eV
 358( 0) :     1.372615 a.u.    37.351 eV
 359( 0) :     1.376349 a.u.    37.452 eV
 360( 0) :     1.380979 a.u.    37.578 eV
 361( 0) :     1.390216 a.u.    37.830 eV
 362( 0) :     1.392487 a.u.    37.891 eV
 363( 0) :     1.394035 a.u.    37.934 eV
 364( 0) :     1.400877 a.u.    38.120 eV
 365( 0) :     1.404635 a.u.    38.222 eV
 366( 0) :     1.405818 a.u.    38.254 eV
 367( 0) :     1.411774 a.u.    38.416 eV
 368( 0) :     1.417439 a.u.    38.570 eV
 369( 0) :     1.419283 a.u.    38.621 eV
 370( 0) :     1.428364 a.u.    38.868 eV
 371( 0) :     1.430819 a.u.    38.935 eV
 372( 0) :     1.431274 a.u.    38.947 eV
 373( 0) :     1.435648 a.u.    39.066 eV
 374( 0) :     1.436659 a.u.    39.093 eV
 375( 0) :     1.438425 a.u.    39.142 eV
 376( 0) :     1.443679 a.u.    39.285 eV
 377( 0) :     1.449078 a.u.    39.431 eV
 378( 0) :     1.452947 a.u.    39.537 eV
 379( 0) :     1.455193 a.u.    39.598 eV
 380( 0) :     1.455620 a.u.    39.609 eV
 381( 0) :     1.458334 a.u.    39.683 eV
 382( 0) :     1.459539 a.u.    39.716 eV
 383( 0) :     1.461365 a.u.    39.766 eV
 384( 0) :     1.463592 a.u.    39.826 eV
 385( 0) :     1.465400 a.u.    39.876 eV
 386( 0) :     1.472124 a.u.    40.059 eV
 387( 0) :     1.472369 a.u.    40.065 eV
 388( 0) :     1.472944 a.u.    40.081 eV
 389( 0) :     1.477500 a.u.    40.205 eV
 390( 0) :     1.478757 a.u.    40.239 eV
 391( 0) :     1.479456 a.u.    40.258 eV
 392( 0) :     1.483381 a.u.    40.365 eV
 393( 0) :     1.484581 a.u.    40.398 eV
 394( 0) :     1.486057 a.u.    40.438 eV
 395( 0) :     1.486797 a.u.    40.458 eV
 396( 0) :     1.488689 a.u.    40.509 eV
 397( 0) :     1.492894 a.u.    40.624 eV
 398( 0) :     1.494660 a.u.    40.672 eV
 399( 0) :     1.495396 a.u.    40.692 eV
 400( 0) :     1.497012 a.u.    40.736 eV
 401( 0) :     1.497561 a.u.    40.751 eV
 402( 0) :     1.498485 a.u.    40.776 eV
 403( 0) :     1.500138 a.u.    40.821 eV
 404( 0) :     1.501736 a.u.    40.864 eV
 405( 0) :     1.503078 a.u.    40.901 eV
 406( 0) :     1.503389 a.u.    40.909 eV
 407( 0) :     1.505866 a.u.    40.977 eV
 408( 0) :     1.508955 a.u.    41.061 eV
 409( 0) :     1.509178 a.u.    41.067 eV
 410( 0) :     1.509967 a.u.    41.088 eV
 411( 0) :     1.514618 a.u.    41.215 eV
 412( 0) :     1.515400 a.u.    41.236 eV
 413( 0) :     1.516028 a.u.    41.253 eV
 414( 0) :     1.517594 a.u.    41.296 eV
 415( 0) :     1.519207 a.u.    41.340 eV
 416( 0) :     1.519920 a.u.    41.359 eV
 417( 0) :     1.522411 a.u.    41.427 eV
 418( 0) :     1.524960 a.u.    41.496 eV
 419( 0) :     1.525462 a.u.    41.510 eV
 420( 0) :     1.527871 a.u.    41.575 eV
 421( 0) :     1.528298 a.u.    41.587 eV
 422( 0) :     1.531383 a.u.    41.671 eV
 423( 0) :     1.532024 a.u.    41.688 eV
 424( 0) :     1.532404 a.u.    41.699 eV
 425( 0) :     1.533291 a.u.    41.723 eV
 426( 0) :     1.535199 a.u.    41.775 eV
 427( 0) :     1.536333 a.u.    41.806 eV
 428( 0) :     1.537722 a.u.    41.844 eV
 429( 0) :     1.538924 a.u.    41.876 eV
 430( 0) :     1.541202 a.u.    41.938 eV
 431( 0) :     1.541845 a.u.    41.956 eV
 432( 0) :     1.542149 a.u.    41.964 eV
 433( 0) :     1.544995 a.u.    42.041 eV
 434( 0) :     1.545213 a.u.    42.047 eV
 435( 0) :     1.549897 a.u.    42.175 eV
 436( 0) :     1.551105 a.u.    42.208 eV
 437( 0) :     1.551784 a.u.    42.226 eV
 438( 0) :     1.554332 a.u.    42.296 eV
 439( 0) :     1.555561 a.u.    42.329 eV
 440( 0) :     1.557134 a.u.    42.372 eV
 441( 0) :     1.559443 a.u.    42.435 eV
 442( 0) :     1.561354 a.u.    42.487 eV
 443( 0) :     1.562099 a.u.    42.507 eV
 444( 0) :     1.565637 a.u.    42.603 eV
 445( 0) :     1.567304 a.u.    42.649 eV
 446( 0) :     1.573023 a.u.    42.804 eV
 447( 0) :     1.576127 a.u.    42.889 eV
 448( 0) :     1.576409 a.u.    42.896 eV
 449( 0) :     1.578382 a.u.    42.950 eV
 450( 0) :     1.579348 a.u.    42.976 eV
 451( 0) :     1.588196 a.u.    43.217 eV
 452( 0) :     1.589532 a.u.    43.253 eV
 453( 0) :     1.592110 a.u.    43.324 eV
 454( 0) :     1.595149 a.u.    43.406 eV
 455( 0) :     1.600883 a.u.    43.562 eV
 456( 0) :     1.605196 a.u.    43.680 eV
 457( 0) :     1.606510 a.u.    43.715 eV
 458( 0) :     1.608930 a.u.    43.781 eV
 459( 0) :     1.614024 a.u.    43.920 eV
 460( 0) :     1.615808 a.u.    43.968 eV
 461( 0) :     1.617907 a.u.    44.025 eV
 462( 0) :     1.620659 a.u.    44.100 eV
 463( 0) :     1.626409 a.u.    44.257 eV
 464( 0) :     1.628254 a.u.    44.307 eV
 465( 0) :     1.630313 a.u.    44.363 eV
 466( 0) :     1.633279 a.u.    44.444 eV
 467( 0) :     1.635049 a.u.    44.492 eV
 468( 0) :     1.636051 a.u.    44.519 eV
 469( 0) :     1.640489 a.u.    44.640 eV
 470( 0) :     1.649434 a.u.    44.883 eV
 471( 0) :     1.650702 a.u.    44.918 eV
 472( 0) :     1.655005 a.u.    45.035 eV
 473( 0) :     1.657508 a.u.    45.103 eV
 474( 0) :     1.665559 a.u.    45.322 eV
 475( 0) :     1.678515 a.u.    45.675 eV
 476( 0) :     1.681013 a.u.    45.743 eV
 477( 0) :     1.684144 a.u.    45.828 eV
 478( 0) :     1.697296 a.u.    46.186 eV
 479( 0) :     1.697548 a.u.    46.193 eV
 480( 0) :     1.709885 a.u.    46.528 eV
 481( 0) :     1.714884 a.u.    46.664 eV
 482( 0) :     1.719533 a.u.    46.791 eV
 483( 0) :     1.722643 a.u.    46.875 eV
 484( 0) :     1.738197 a.u.    47.299 eV
 485( 0) :     1.743723 a.u.    47.449 eV
 486( 0) :     1.746163 a.u.    47.516 eV
 487( 0) :     1.764485 a.u.    48.014 eV
 488( 0) :     1.768328 a.u.    48.119 eV
 489( 0) :     1.784917 a.u.    48.570 eV
 490( 0) :     1.805467 a.u.    49.129 eV
 491( 0) :     1.811034 a.u.    49.281 eV
 492( 0) :     1.822902 a.u.    49.604 eV
 493( 0) :     1.824255 a.u.    49.641 eV
 494( 0) :     1.836026 a.u.    49.961 eV
 495( 0) :     1.841433 a.u.    50.108 eV
 496( 0) :     1.857381 a.u.    50.542 eV
 497( 0) :     1.865181 a.u.    50.754 eV
 498( 0) :     1.900329 a.u.    51.711 eV
 499( 0) :     1.901932 a.u.    51.754 eV
 500( 0) :     1.911709 a.u.    52.020 eV
 501( 0) :     1.920184 a.u.    52.251 eV
 502( 0) :     1.954454 a.u.    53.183 eV
 503( 0) :     1.959813 a.u.    53.329 eV
 504( 0) :     1.967518 a.u.    53.539 eV
 505( 0) :     1.998910 a.u.    54.393 eV
 506( 0) :     2.010671 a.u.    54.713 eV
 507( 0) :     2.080494 a.u.    56.613 eV
 508( 0) :     2.118414 a.u.    57.645 eV
 509( 0) :     2.216712 a.u.    60.320 eV
 510( 0) :     2.226519 a.u.    60.587 eV
 511( 0) :     2.247329 a.u.    61.153 eV
 512( 0) :     2.257996 a.u.    61.443 eV
 513( 0) :     2.302657 a.u.    62.658 eV
 514( 0) :     2.315615 a.u.    63.011 eV
 515( 0) :     2.325063 a.u.    63.268 eV
 516( 0) :     2.362376 a.u.    64.284 eV
 517( 0) :     2.390202 a.u.    65.041 eV
 518( 0) :     2.425216 a.u.    65.993 eV
 519( 0) :     2.430309 a.u.    66.132 eV
 520( 0) :     2.493913 a.u.    67.863 eV
 521( 0) :     2.511506 a.u.    68.342 eV
 522( 0) :     2.513490 a.u.    68.396 eV
 523( 0) :     2.533941 a.u.    68.952 eV
 524( 0) :     2.562767 a.u.    69.736 eV
 525( 0) :     2.601378 a.u.    70.787 eV
 526( 0) :     2.610280 a.u.    71.029 eV
 527( 0) :     2.766582 a.u.    75.283 eV
 528( 0) :     2.830785 a.u.    77.030 eV
 529( 0) :     2.845420 a.u.    77.428 eV
 530( 0) :     2.846519 a.u.    77.458 eV
 531( 0) :     2.859262 a.u.    77.804 eV
 532( 0) :     2.869230 a.u.    78.076 eV
 533( 0) :     2.875107 a.u.    78.236 eV
 534( 0) :     2.899431 a.u.    78.898 eV
 535( 0) :    23.680724 a.u.   644.385 eV
 536( 0) :    23.910985 a.u.   650.651 eV
 537( 0) :    23.951374 a.u.   651.750 eV
 538( 0) :    24.100606 a.u.   655.811 eV
 539( 0) :    24.165329 a.u.   657.572 eV
 540( 0) :    24.372593 a.u.   663.212 eV
 541( 0) :    24.393703 a.u.   663.786 eV
 542( 0) :    24.496161 a.u.   666.574 eV
 543( 0) :    24.630719 a.u.   670.236 eV
 544( 0) :    24.875997 a.u.   676.910 eV
 545( 0) :    24.953724 a.u.   679.025 eV
 546( 0) :    25.315340 a.u.   688.865 eV
 547( 0) :    25.361463 a.u.   690.121 eV
 548( 0) :    25.473894 a.u.   693.180 eV
 549( 0) :    25.590449 a.u.   696.352 eV
 550( 0) :    25.706635 a.u.   699.513 eV
 551( 0) :    25.762042 a.u.   701.021 eV
 552( 0) :    25.776709 a.u.   701.420 eV
 553( 0) :    25.820351 a.u.   702.607 eV
 554( 0) :    26.122585 a.u.   710.832 eV
 555( 0) :    26.242006 a.u.   714.081 eV
 556( 0) :    26.354082 a.u.   717.131 eV
 557( 0) :    26.364467 a.u.   717.414 eV
 558( 0) :    26.436398 a.u.   719.371 eV
 559( 0) :    26.529562 a.u.   721.906 eV
 560( 0) :    26.656812 a.u.   725.369 eV
 561( 0) :    26.695297 a.u.   726.416 eV
 562( 0) :    26.717597 a.u.   727.023 eV
 563( 0) :    26.784424 a.u.   728.841 eV
 564( 0) :    26.851372 a.u.   730.663 eV
 565( 0) :    26.989139 a.u.   734.412 eV
 566( 0) :    27.281642 a.u.   742.371 eV
 567( 0) :    27.514498 a.u.   748.708 eV
 568( 0) :    27.599072 a.u.   751.009 eV
 569( 0) :    27.637157 a.u.   752.045 eV
 570( 0) :    27.848813 a.u.   757.805 eV
 571( 0) :    27.932990 a.u.   760.095 eV
 572( 0) :    27.954079 a.u.   760.669 eV
 573( 0) :    28.091717 a.u.   764.414 eV
 574( 0) :    28.372576 a.u.   772.057 eV
 575( 0) :    28.477015 a.u.   774.899 eV
 576( 0) :    29.017091 a.u.   789.595 eV
 577( 0) :    43.925277 a.u.  1195.268 eV
 578( 0) :    43.976414 a.u.  1196.659 eV
 579( 0) :    43.997388 a.u.  1197.230 eV
 580( 0) :    44.019393 a.u.  1197.829 eV
 581( 0) :    44.039485 a.u.  1198.375 eV
 582( 0) :    44.094713 a.u.  1199.878 eV
 583( 0) :    44.097173 a.u.  1199.945 eV
 584( 0) :    44.115629 a.u.  1200.447 eV
 585( 0) :    44.173461 a.u.  1202.021 eV
 586( 0) :    44.174121 a.u.  1202.039 eV
 587( 0) :    44.183228 a.u.  1202.287 eV
 588( 0) :    44.198865 a.u.  1202.712 eV
 589( 0) :    44.238468 a.u.  1203.790 eV
 590( 0) :    44.278666 a.u.  1204.884 eV
 591( 0) :   205.102206 a.u.  5581.115 eV
 592( 0) :   205.124939 a.u.  5581.733 eV
 593( 0) :   205.131194 a.u.  5581.904 eV
 594( 0) :   205.137319 a.u.  5582.070 eV
 595( 0) :   205.146134 a.u.  5582.310 eV
 596( 0) :   205.171952 a.u.  5583.013 eV
 597( 0) :   205.172402 a.u.  5583.025 eV
 598( 0) :   205.182812 a.u.  5583.308 eV
 599( 0) :   205.201675 a.u.  5583.821 eV
 600( 0) :   205.204002 a.u.  5583.885 eV
 601( 0) :   205.210842 a.u.  5584.071 eV
 602( 0) :   205.212223 a.u.  5584.108 eV
 603( 0) :   205.228195 a.u.  5584.543 eV
 604( 0) :   205.242629 a.u.  5584.936 eV
-------
TIMINGS
-------

Total SCF time: 0 days 0 hours 7 min 23 sec 

Total time                  ....     443.457 sec
Sum of individual times     ....     418.381 sec  ( 94.3%)

Fock matrix formation       ....     410.561 sec  ( 92.6%)
  Split-RI-J                ....     126.577 sec  ( 30.8% of F)
  XC integration            ....     265.758 sec  ( 64.7% of F)
    Basis function eval.    ....      32.700 sec  ( 12.3% of XC)
    Density eval.           ....     100.249 sec  ( 37.7% of XC)
    XC-Functional eval.     ....       9.338 sec  (  3.5% of XC)
    XC-Potential eval.      ....      83.052 sec  ( 31.3% of XC)
Diagonalization             ....       2.452 sec  (  0.6%)
Density matrix formation    ....       0.571 sec  (  0.1%)
Population analysis         ....       0.755 sec  (  0.2%)
Initial guess               ....       0.194 sec  (  0.0%)
Orbital Transformation      ....       0.921 sec  (  0.2%)
Orbital Orthonormalization  ....       0.160 sec  (  0.0%)
DIIS solution               ....       0.000 sec  (  0.0%)
Grid generation             ....       2.925 sec  (  0.7%)

Maximum memory used throughout the entire SCF-calculation: 585.7 MB

-------------------------   --------------------
FINAL SINGLE POINT ENERGY     -2945.834410050249
-------------------------   --------------------

                                *** OPTIMIZATION RUN DONE ***

                            ***************************************
                            *     ORCA property calculations      *
                            ***************************************

                                    ---------------------
                                    Active property flags
                                    ---------------------
   (+) Dipole Moment


------------------------------------------------------------------------------
                       ORCA ELECTRIC PROPERTIES CALCULATION
------------------------------------------------------------------------------

Dipole Moment Calculation                       ... on
Quadrupole Moment Calculation                   ... off
Polarizability Calculation                      ... off
GBWName                                         ... pbe.gbw
Electron density                                ... pbe.scfp
The origin for moment calculation is the CENTER OF MASS  = (13.178718, 13.950481 13.446424)

-------------
DIPOLE MOMENT
-------------
                                X             Y             Z
Electronic contribution:     -1.11353     -42.41959     -12.49702
Nuclear contribution   :      1.40664      42.41624      12.25690
                        -----------------------------------------
Total Dipole Moment    :      0.29311      -0.00334      -0.24012
                        -----------------------------------------
Magnitude (a.u.)       :      0.37892
Magnitude (Debye)      :      0.96315



--------------------
Rotational spectrum 
--------------------
 
Rotational constants in cm-1:     0.001018     0.000908     0.000738 
Rotational constants in MHz :    30.524801    27.224677    22.131307 

 Dipole components along the rotational axes: 
x,y,z [a.u.] :     0.173169     0.005203    -0.337000 
x,y,z [Debye]:     0.440161     0.013225    -0.856587 

 

Timings for individual modules:

Sum of individual times         ...    23163.523 sec (= 386.059 min)
GTO integral calculation        ...      393.574 sec (=   6.560 min)   1.7 %
SCF iterations                  ...    18760.856 sec (= 312.681 min)  81.0 %
SCF Gradient evaluation         ...     3989.891 sec (=  66.498 min)  17.2 %
Geometry relaxation             ...       19.201 sec (=   0.320 min)   0.1 %
                             ****ORCA TERMINATED NORMALLY****
TOTAL RUN TIME: 0 days 6 hours 26 minutes 9 seconds 664 msec
