
                                 *****************
                                 * O   R   C   A *
                                 *****************

                                            #,                                       
                                            ###                                      
                                            ####                                     
                                            #####                                    
                                            ######                                   
                                           ########,                                 
                                     ,,################,,,,,                         
                               ,,#################################,,                 
                          ,,##########################################,,             
                       ,#########################################, ''#####,          
                    ,#############################################,,   '####,        
                  ,##################################################,,,,####,       
                ,###########''''           ''''###############################       
              ,#####''   ,,,,##########,,,,          '''####'''          '####       
            ,##' ,,,,###########################,,,                        '##       
           ' ,,###''''                  '''############,,,                           
         ,,##''                                '''############,,,,        ,,,,,,###''
      ,#''                                            '''#######################'''  
     '                                                          ''''####''''         
             ,#######,   #######,   ,#######,      ##                                
            ,#'     '#,  ##    ##  ,#'     '#,    #''#        ######   ,####,        
            ##       ##  ##   ,#'  ##            #'  '#       #        #'  '#        
            ##       ##  #######   ##           ,######,      #####,   #    #        
            '#,     ,#'  ##    ##  '#,     ,#' ,#      #,         ##   #,  ,#        
             '#######'   ##     ##  '#######'  #'      '#     #####' # '####'        



                  #######################################################
                  #                        -***-                        #
                  #          Department of theory and spectroscopy      #
                  #    Directorship and core code : Frank Neese         #
                  #        Max Planck Institute fuer Kohlenforschung    #
                  #                Kaiser Wilhelm Platz 1               #
                  #                 D-45470 Muelheim/Ruhr               #
                  #                      Germany                        #
                  #                                                     #
                  #                  All rights reserved                #
                  #                        -***-                        #
                  #######################################################


                         Program Version 5.0.3 -  RELEASE  -


 With contributions from (in alphabetic order):
   Daniel Aravena         : Magnetic Suceptibility
   Michael Atanasov       : Ab Initio Ligand Field Theory (pilot matlab implementation)
   Alexander A. Auer      : GIAO ZORA, VPT2 properties, NMR spectrum
   Ute Becker             : Parallelization
   Giovanni Bistoni       : ED, misc. LED, open-shell LED, HFLD
   Martin Brehm           : Molecular dynamics
   Dmytro Bykov           : SCF Hessian
   Vijay G. Chilkuri      : MRCI spin determinant printing, contributions to CSF-ICE
   Dipayan Datta          : RHF DLPNO-CCSD density
   Achintya Kumar Dutta   : EOM-CC, STEOM-CC
   Dmitry Ganyushin       : Spin-Orbit,Spin-Spin,Magnetic field MRCI
   Miquel Garcia          : C-PCM and meta-GGA Hessian, CC/C-PCM, Gaussian charge scheme
   Yang Guo               : DLPNO-NEVPT2, F12-NEVPT2, CIM, IAO-localization
   Andreas Hansen         : Spin unrestricted coupled pair/coupled cluster methods
   Benjamin Helmich-Paris : MC-RPA, TRAH-SCF, COSX integrals
   Lee Huntington         : MR-EOM, pCC
   Robert Izsak           : Overlap fitted RIJCOSX, COSX-SCS-MP3, EOM
   Marcus Kettner         : VPT2
   Christian Kollmar      : KDIIS, OOCD, Brueckner-CCSD(T), CCSD density, CASPT2, CASPT2-K
   Simone Kossmann        : Meta GGA functionals, TD-DFT gradient, OOMP2, MP2 Hessian
   Martin Krupicka        : Initial AUTO-CI
   Lucas Lang             : DCDCAS
   Marvin Lechner         : AUTO-CI (C++ implementation), FIC-MRCC
   Dagmar Lenk            : GEPOL surface, SMD
   Dimitrios Liakos       : Extrapolation schemes; Compound Job, initial MDCI parallelization
   Dimitrios Manganas     : Further ROCIS development; embedding schemes
   Dimitrios Pantazis     : SARC Basis sets
   Anastasios Papadopoulos: AUTO-CI, single reference methods and gradients
   Taras Petrenko         : DFT Hessian,TD-DFT gradient, ASA, ECA, R-Raman, ABS, FL, XAS/XES, NRVS
   Peter Pinski           : DLPNO-MP2, DLPNO-MP2 Gradient
   Christoph Reimann      : Effective Core Potentials
   Marius Retegan         : Local ZFS, SOC
   Christoph Riplinger    : Optimizer, TS searches, QM/MM, DLPNO-CCSD(T), (RO)-DLPNO pert. Triples
   Tobias Risthaus        : Range-separated hybrids, TD-DFT gradient, RPA, STAB
   Michael Roemelt        : Original ROCIS implementation
   Masaaki Saitow         : Open-shell DLPNO-CCSD energy and density
   Barbara Sandhoefer     : DKH picture change effects
   Avijit Sen             : IP-ROCIS
   Kantharuban Sivalingam : CASSCF convergence, NEVPT2, FIC-MRCI
   Bernardo de Souza      : ESD, SOC TD-DFT
   Georgi Stoychev        : AutoAux, RI-MP2 NMR, DLPNO-MP2 response
   Willem Van den Heuvel  : Paramagnetic NMR
   Boris Wezisla          : Elementary symmetry handling
   Frank Wennmohs         : Technical directorship


 We gratefully acknowledge several colleagues who have allowed us to
 interface, adapt or use parts of their codes:
   Stefan Grimme, W. Hujo, H. Kruse, P. Pracht,  : VdW corrections, initial TS optimization,
                  C. Bannwarth, S. Ehlert          DFT functionals, gCP, sTDA/sTD-DF
   Ed Valeev, F. Pavosevic, A. Kumar             : LibInt (2-el integral package), F12 methods
   Garnet Chan, S. Sharma, J. Yang, R. Olivares  : DMRG
   Ulf Ekstrom                                   : XCFun DFT Library
   Mihaly Kallay                                 : mrcc  (arbitrary order and MRCC methods)
   Jiri Pittner, Ondrej Demel                    : Mk-CCSD
   Frank Weinhold                                : gennbo (NPA and NBO analysis)
   Christopher J. Cramer and Donald G. Truhlar   : smd solvation model
   Lars Goerigk                                  : TD-DFT with DH, B97 family of functionals
   V. Asgeirsson, H. Jonsson                     : NEB implementation
   FAccTs GmbH                                   : IRC, NEB, NEB-TS, DLPNO-Multilevel, CI-OPT
                                                   MM, QMMM, 2- and 3-layer-ONIOM, Crystal-QMMM,
                                                   LR-CPCM, SF, NACMEs, symmetry and pop. for TD-DFT,
                                                   nearIR, NL-DFT gradient (VV10), updates on ESD,
                                                   ML-optimized integration grids
   S Lehtola, MJT Oliveira, MAL Marques          : LibXC Library
   Liviu Ungur et al                             : ANISO software


 Your calculation uses the libint2 library for the computation of 2-el integrals
 For citations please refer to: http://libint.valeyev.net

 Your ORCA version has been built with support for libXC version: 5.1.0
 For citations please refer to: https://tddft.org/programs/libxc/

 This ORCA versions uses:
   CBLAS   interface :  Fast vector & matrix operations
   LAPACKE interface :  Fast linear algebra routines
   SCALAPACK package :  Parallel linear algebra routines
   Shared memory     :  Shared parallel matrices
   BLAS/LAPACK       :  OpenBLAS 0.3.15  USE64BITINT DYNAMIC_ARCH NO_AFFINITY Haswell SINGLE_THREADED
        Core in use  :  Haswell
   Copyright (c) 2011-2014, The OpenBLAS Project




***************************************
The coordinates will be read from file: pbe.xyz
***************************************


================================================================================

cite the ECPs for Au [Def2-ECP] as follows:
Ce-Yb(ecp-28): M. Dolg, H. Stoll, H.Preuss, J. Chem. Phys., 1989, 90, 1730-1734.
Y-Cd(ecp-28), Hf-Hg(ecp-46): D. Andrae,U. Haeussermann, M. Dolg, H. Stoll, H. Preuss, Theor. Chim. Acta, 1990, 77, 123-141.
In-Sb(ecp-28), Tl-Bi(ecp-46): B. Metz, H. Stoll, M. Dolg, J. Chem. Phys., 2000, 113, 2563-2569.
Te-Xe(ecp-28), Po-Rn(ecp-46): K. A. Peterson, D. Figgen, E. Goll, H. Stoll, M. Dolg, J. Chem. Phys., 2003, 119, 11113-11123.
Rb(ecp-28), Cs(ecp-46): T. Leininger, A. Nicklass, W. Kuechle, H. Stoll, M. Dolg, A. Bergner, Chem. Phys. Lett., 1996, 255, 274-280.
Sr(ecp-28), Ba(ecp-46): M. Kaupp, P. V. Schleyer, H. Stoll and H. Preuss, J. Chem. Phys., 1991, 94, 1360-1366.
La(ecp-46): M. Dolg, H. Stoll, A. Savin, H. Preuss, Theor. Chim. Acta, 1989, 75, 173-194.
Lu(ecp-28): X. Cao, M. Dolg, J. Chem. Phys., 2001, 115, 7348-7355.

ECP parameters for Au [Def2-ECP] have been obtained from:
TURBOMOLE (7.0.2)

----- Orbital basis set information -----
Your calculation utilizes the basis: def2-TZVP
   F. Weigend and R. Ahlrichs, Phys. Chem. Chem. Phys. 7, 3297 (2005).

----- AuxJ basis set information -----
Your calculation utilizes the auxiliary basis: def2/J
   F. Weigend, Phys. Chem. Chem. Phys. 8, 1057 (2006).

================================================================================
                                        WARNINGS
                       Please study these warnings very carefully!
================================================================================


WARNING: your system is open-shell and RHF/RKS was chosen
  ===> : WILL SWITCH to UHF/UKS


INFO   : the flag for use of the SHARK integral package has been found!



***************************************
The coordinates will be read from file: pbe.xyz
***************************************


================================================================================

cite the ECPs for Au [Def2-ECP] as follows:
Ce-Yb(ecp-28): M. Dolg, H. Stoll, H.Preuss, J. Chem. Phys., 1989, 90, 1730-1734.
Y-Cd(ecp-28), Hf-Hg(ecp-46): D. Andrae,U. Haeussermann, M. Dolg, H. Stoll, H. Preuss, Theor. Chim. Acta, 1990, 77, 123-141.
In-Sb(ecp-28), Tl-Bi(ecp-46): B. Metz, H. Stoll, M. Dolg, J. Chem. Phys., 2000, 113, 2563-2569.
Te-Xe(ecp-28), Po-Rn(ecp-46): K. A. Peterson, D. Figgen, E. Goll, H. Stoll, M. Dolg, J. Chem. Phys., 2003, 119, 11113-11123.
Rb(ecp-28), Cs(ecp-46): T. Leininger, A. Nicklass, W. Kuechle, H. Stoll, M. Dolg, A. Bergner, Chem. Phys. Lett., 1996, 255, 274-280.
Sr(ecp-28), Ba(ecp-46): M. Kaupp, P. V. Schleyer, H. Stoll and H. Preuss, J. Chem. Phys., 1991, 94, 1360-1366.
La(ecp-46): M. Dolg, H. Stoll, A. Savin, H. Preuss, Theor. Chim. Acta, 1989, 75, 173-194.
Lu(ecp-28): X. Cao, M. Dolg, J. Chem. Phys., 2001, 115, 7348-7355.

ECP parameters for Au [Def2-ECP] have been obtained from:
TURBOMOLE (7.0.2)

----- Orbital basis set information -----
Your calculation utilizes the basis: def2-TZVP
   F. Weigend and R. Ahlrichs, Phys. Chem. Chem. Phys. 7, 3297 (2005).

----- AuxJ basis set information -----
Your calculation utilizes the auxiliary basis: def2/J
   F. Weigend, Phys. Chem. Chem. Phys. 8, 1057 (2006).

================================================================================
                                        WARNINGS
                       Please study these warnings very carefully!
================================================================================


INFO   : the flag for use of the SHARK integral package has been found!

================================================================================
                                       INPUT FILE
================================================================================
NAME = pbeSP.inp
|  1> !PBE def2-TZVP VERYSLOWCONV
|  2> 
|  3> %scf
|  4>   AutoTRAHIter 200
|  5>   maxiter 400
|  6> end
|  7> 
|  8> 
|  9> %pal nprocs 6 end 
| 10> 
| 11> *xyzfile 0 5 pbe.xyz
| 12> 
| 13> $new_job
| 14> 
| 15> !PBE def2-TZVP VERYSLOWCONV
| 16> 
| 17> %scf
| 18>   AutoTRAHIter 200
| 19>   maxiter 400
| 20> end
| 21>  
| 22> 
| 23> %pal nprocs 6 end 
| 24> 
| 25> *xyzfile 0 3 pbe.xyz
| 26> 
| 27> 
| 28> 
| 29> 
| 30> 
| 31>                          ****END OF INPUT****
================================================================================


                 $$$$$$$$$$$$$$$$$$$$$$$$$$$$$$$$$$$$$$$$$$$$$$ 
                 $ THERE ARE  2 JOBS TO BE PROCESSED THIS RUN $
                 $$$$$$$$$$$$$$$$$$$$$$$$$$$$$$$$$$$$$$$$$$$$$$ 




                 $$$$$$$$$$$$$$$$  JOB NUMBER  1 $$$$$$$$$$$$$$


                       ****************************
                       * Single Point Calculation *
                       ****************************

---------------------------------
CARTESIAN COORDINATES (ANGSTROEM)
---------------------------------
  Au     7.638730    4.821765    8.094755
  Au    10.323856    5.676245    8.099027
  Au     9.118204    7.780623    9.212727
  Au     7.594280    9.451161    7.761217
  Au     6.795274    5.941520    4.822461
  Au     9.229742    9.061005    5.422401
  Au    11.650139    4.402472    6.075279
  Au     8.958144    4.596186    5.616001
  Au    10.753887    6.919368    5.485708
  Au     6.410251    8.515380    5.487515
  Cr     8.271005    7.003054    6.791664

----------------------------
CARTESIAN COORDINATES (A.U.)
----------------------------
  NO LB      ZA    FRAG     MASS         X           Y           Z
   0 Au   19.0000*   0   196.966   14.435108    9.111816   15.296869
   1 Au   19.0000*   0   196.966   19.509261   10.726549   15.304944
   2 Au   19.0000*   0   196.966   17.230908   14.703247   17.409532
   3 Au   19.0000*   0   196.966   14.351109   17.860106   14.666574
   4 Au   19.0000*   0   196.966   12.841207   11.227846    9.113131
   5 Au   19.0000*   0   196.966   17.441685   17.122818   10.246853
   6 Au   19.0000*   0   196.966   22.015573    8.319467   11.480614
   7 Au   19.0000*   0   196.966   16.928438    8.685533   10.612703
   8 Au   19.0000*   0   196.966   20.321901   13.075710   10.366485
   9 Au   19.0000*   0   196.966   12.113618   16.091737   10.369900
  10 Cr   24.0000    0    52.000   15.629934   13.233854   12.834385
* core charge reduced due to ECP

--------------------------------
INTERNAL COORDINATES (ANGSTROEM)
--------------------------------
 Au     0   0   0     0.000000000000     0.00000000     0.00000000
 Au     1   0   0     2.817810502101     0.00000000     0.00000000
 Au     2   1   0     2.668769873373    79.00371435     0.00000000
 Au     3   2   1     2.686991486055   121.40072296   287.60017917
 Au     1   2   3     3.559939773260    97.57271422    93.16156409
 Au     4   3   2     2.880454246253    91.85640272   327.44112868
 Au     2   1   3     2.734425427957   108.65151976   206.23410340
 Au     5   1   2     2.667889120760    51.38370194    46.02202137
 Au     6   4   3     2.629379584313   114.82784477    18.19355826
 Au     5   1   2     2.686130170428    96.18706931   279.84815897
 Cr     1   2   3     2.618365045317    61.18555210    59.84556289

---------------------------
INTERNAL COORDINATES (A.U.)
---------------------------
 Au     0   0   0     0.000000000000     0.00000000     0.00000000
 Au     1   0   0     5.324890146258     0.00000000     0.00000000
 Au     2   1   0     5.043244175135    79.00371435     0.00000000
 Au     3   2   1     5.077678032821   121.40072296   287.60017917
 Au     1   2   3     6.727311224714    97.57271422    93.16156409
 Au     4   3   2     5.443269666708    91.85640272   327.44112868
 Au     2   1   3     5.167315192470   108.65151976   206.23410340
 Au     5   1   2     5.041579793905    51.38370194    46.02202137
 Au     6   4   3     4.968807316475   114.82784477    18.19355826
 Au     5   1   2     5.076050382172    96.18706931   279.84815897
 Cr     1   2   3     4.947992854282    61.18555210    59.84556289

---------------------
BASIS SET INFORMATION
---------------------
There are 2 groups of distinct atoms

 Group   1 Type Au  : 8s7p6d1f contracted to 6s4p3d1f pattern {311111/4111/411/1}
 Group   2 Type Cr  : 17s11p7d1f contracted to 6s4p4d1f pattern {842111/6311/4111/1}

Atom   0Au   basis set group =>   1
Atom   1Au   basis set group =>   1
Atom   2Au   basis set group =>   1
Atom   3Au   basis set group =>   1
Atom   4Au   basis set group =>   1
Atom   5Au   basis set group =>   1
Atom   6Au   basis set group =>   1
Atom   7Au   basis set group =>   1
Atom   8Au   basis set group =>   1
Atom   9Au   basis set group =>   1
Atom  10Cr   basis set group =>   2
---------------------------------
AUXILIARY/J BASIS SET INFORMATION
---------------------------------
There are 2 groups of distinct atoms

 Group   1 Type Au  : 11s5p5d3f3g contracted to 8s5p5d2f3g pattern {41111111/11111/11111/21/111}
 Group   2 Type Cr  : 19s5p5d3f3g contracted to 8s5p5d2f3g pattern {121111111/11111/11111/21/111}

Atom   0Au   basis set group =>   1
Atom   1Au   basis set group =>   1
Atom   2Au   basis set group =>   1
Atom   3Au   basis set group =>   1
Atom   4Au   basis set group =>   1
Atom   5Au   basis set group =>   1
Atom   6Au   basis set group =>   1
Atom   7Au   basis set group =>   1
Atom   8Au   basis set group =>   1
Atom   9Au   basis set group =>   1
Atom  10Cr   basis set group =>   2
-------------------------
ECP PARAMETER INFORMATION
-------------------------

 Group 1, Type Au ECP Def2-ECP (replacing 60 core electrons, lmax=3)

Atom   0Au   ECP group =>   1
Atom   1Au   ECP group =>   1
Atom   2Au   ECP group =>   1
Atom   3Au   ECP group =>   1
Atom   4Au   ECP group =>   1
Atom   5Au   ECP group =>   1
Atom   6Au   ECP group =>   1
Atom   7Au   ECP group =>   1
Atom   8Au   ECP group =>   1
Atom   9Au   ECP group =>   1



           ************************************************************
           *        Program running with 6 parallel MPI-processes     *
           *              working on a common directory               *
           ************************************************************
------------------------------------------------------------------------------
                           ORCA GTO INTEGRAL CALCULATION
                           -- RI-GTO INTEGRALS CHOSEN --
------------------------------------------------------------------------------
------------------------------------------------------------------------------
                   ___                                                        
                  /   \      - P O W E R E D   B Y -                         
                 /     \                                                     
                 |  |  |   _    _      __       _____    __    __             
                 |  |  |  | |  | |    /  \     |  _  \  |  |  /  |          
                  \  \/   | |  | |   /    \    | | | |  |  | /  /          
                 / \  \   | |__| |  /  /\  \   | |_| |  |  |/  /          
                |  |  |   |  __  | /  /__\  \  |    /   |      \           
                |  |  |   | |  | | |   __   |  |    \   |  |\   \          
                \     /   | |  | | |  |  |  |  | |\  \  |  | \   \       
                 \___/    |_|  |_| |__|  |__|  |_| \__\ |__|  \__/        
                                                                              
                      - O R C A' S   B I G   F R I E N D -                    
                                      &                                       
                       - I N T E G R A L  F E E D E R -                       
                                                                              
 v1 FN, 2020, v2 2021                                                         
------------------------------------------------------------------------------


Reading SHARK input file pbeSP.SHARKINP.tmp ... ok
----------------------
SHARK INTEGRAL PACKAGE
----------------------

Number of atoms                             ...     11
Number of basis functions                   ...    445
Number of shells                            ...    155
Maximum angular momentum                    ...      3
Integral batch strategy                     ... SHARK/LIBINT Hybrid
RI-J (if used) integral strategy            ... SPLIT-RIJ (Revised 2003 algorithm where possible)
Printlevel                                  ...      1
Contraction scheme used                     ... SEGMENTED contraction
Coulomb Range Separation                    ... NOT USED
Exchange Range Separation                   ... NOT USED
Finite Nucleus Model                        ... NOT USED
Auxiliary Coulomb fitting basis             ... AVAILABLE
   # of basis functions in Aux-J            ...    979
   # of shells in Aux-J                     ...    253
   Maximum angular momentum in Aux-J        ...      4
Auxiliary J/K fitting basis                 ... NOT available
Auxiliary Correlation fitting basis         ... NOT available
Auxiliary 'external' fitting basis          ... NOT available
Integral threshold                          ...     1.000000e-10
Primitive cut-off                           ...     1.000000e-11
Primitive pair pre-selection threshold      ...     1.000000e-11

Calculating pre-screening integrals         ... done (  0.5 sec) Dimension = 155
Organizing shell pair data                  ... done (  1.0 sec)
Shell pair information
Total number of shell pairs                 ...     12090
Shell pairs after pre-screening             ...      9981
Total number of primitive shell pairs       ...     33105
Primitive shell pairs kept                  ...     20152
          la=0 lb=0:   1560 shell pairs
          la=1 lb=0:   2260 shell pairs
          la=1 lb=1:    854 shell pairs
          la=2 lb=0:   1977 shell pairs
          la=2 lb=1:   1386 shell pairs
          la=2 lb=2:    576 shell pairs
          la=3 lb=0:    546 shell pairs
          la=3 lb=1:    414 shell pairs
          la=3 lb=2:    351 shell pairs
          la=3 lb=3:     57 shell pairs

Calculating one electron integrals          ... done (  0.5 sec)
Calculating ECP integrals                   ... done ( 27.2 sec)
Calculating RI/J V-Matrix + Cholesky decomp.... done (  2.1 sec)
Calculating Nuclear repulsion               ... done (  0.0 sec) ENN=   3136.944536486620 Eh

SHARK setup successfully completed in  33.3 seconds

Maximum memory used throughout the entire GTOINT-calculation: 27.2 MB


           ************************************************************
           *        Program running with 6 parallel MPI-processes     *
           *              working on a common directory               *
           ************************************************************
-------------------------------------------------------------------------------
                                 ORCA SCF
-------------------------------------------------------------------------------

------------
SCF SETTINGS
------------
Hamiltonian:
 Density Functional     Method          .... DFT(GTOs)
 Exchange Functional    Exchange        .... PBE
   PBE kappa parameter   XKappa         ....  0.804000
   PBE mue parameter    XMuePBE         ....  0.219520
 Correlation Functional Correlation     .... PBE
   PBE beta parameter  CBetaPBE         ....  0.066725
 LDA part of GGA corr.  LDAOpt          .... PW91-LDA
 Gradients option       PostSCFGGA      .... off
   Density functional embedding theory  .... OFF
   NL short-range parameter             ....  6.400000
 RI-approximation to the Coulomb term is turned on
   Number of AuxJ basis functions       .... 979


General Settings:
 Integral files         IntName         .... pbeSP
 Hartree-Fock type      HFTyp           .... UHF
 Total Charge           Charge          ....    0
 Multiplicity           Mult            ....    5
 Number of Electrons    NEL             ....  214
 Basis Dimension        Dim             ....  445
 Nuclear Repulsion      ENuc            ....   3136.9445364866 Eh

Convergence Acceleration:
 DIIS                   CNVDIIS         .... on
   Start iteration      DIISMaxIt       ....     0
   Startup error        DIISStart       ....  0.200000
   # of expansion vecs  DIISMaxEq       ....     5
   Bias factor          DIISBfac        ....   1.050
   Max. coefficient     DIISMaxC        ....  10.000
 Trust-Rad. Augm. Hess. CNVTRAH         .... auto
   Auto Start mean grad. ratio tolernc. ....  1.125000
   Auto Start start iteration           ....   200
   Auto Start num. interpolation iter.  ....    10
   Max. Number of Micro iterations      ....    16
   Max. Number of Macro iterations      .... Maxiter - #DIIS iter
   Number of Davidson start vectors     ....     2
   Converg. threshold I  (grad. norm)   ....   5.000e-05
   Converg. threshold II (energy diff.) ....   1.000e-06
   Grad. Scal. Fac. for Micro threshold ....   0.100
   Minimum threshold for Micro iter.    ....   0.010
   NR start threshold (gradient norm)   ....   0.001
   Initial trust radius                 ....   0.400
   Minimum AH scaling param. (alpha)    ....   1.000
   Maximum AH scaling param. (alpha)    .... 1000.000
   Orbital update algorithm             .... Taylor
   White noise on init. David. guess    .... on
   Maximum white noise                  ....   0.010
   Quad. conv. algorithm                .... NR
 SOSCF                  CNVSOSCF        .... off
 Level Shifting         CNVShift        .... on
   Level shift para.    LevelShift      ....    0.2500
   Turn off err/grad.   ShiftErr        ....    0.0000
 Zerner damping         CNVZerner       .... off
 Static damping         CNVDamp         .... on
   Fraction old density DampFac         ....    0.9200
   Max. Damping (<1)    DampMax         ....    0.9800
   Min. Damping (>=0)   DampMin         ....    0.0000
   Turn off err/grad.   DampErr         ....    0.0030
 Fernandez-Rico         CNVRico         .... off

SCF Procedure:
 Maximum # iterations   MaxIter         ....   400
 SCF integral mode      SCFMode         .... Direct
   Integral package                     .... SHARK and LIBINT hybrid scheme
 Reset frequency        DirectResetFreq ....    20
 Integral Threshold     Thresh          ....  1.000e-10 Eh
 Primitive CutOff       TCut            ....  1.000e-11 Eh

Convergence Tolerance:
 Convergence Check Mode ConvCheckMode   .... Total+1el-Energy
 Convergence forced     ConvForced      .... 0
 Energy Change          TolE            ....  1.000e-06 Eh
 1-El. energy change                    ....  1.000e-03 Eh
 DIIS Error             TolErr          ....  1.000e-06


Diagonalization of the overlap matrix:
Smallest eigenvalue                        ... 2.214e-04
Time for diagonalization                   ...    0.216 sec
Threshold for overlap eigenvalues          ... 1.000e-08
Number of eigenvalues below threshold      ... 0
Time for construction of square roots      ...    0.528 sec
Total time needed                          ...    1.385 sec

Time for model grid setup =    5.243 sec

------------------------------
INITIAL GUESS: MODEL POTENTIAL
------------------------------
Loading Hartree-Fock densities                     ... done
  calling /media/Programs/ORCA501/orca pbeSP_atom79.inp > pbeSP_atom79.out in order to generate an atomic fitting density for atom 0 (Au with ECP) on-the-fly... 
    atom 0 (Au), assumed electronic state with S=2: 1s2 2s2 2p6 3s2 3p6 4s2 3d10 4p6 5s2 4d10 5p6 6s1 4f14 5d10           ... done
Calculating cut-offs                               ... done
Initializing the effective Hamiltonian             ... done
Setting up the integral package (SHARK)            ... done
Starting the Coulomb interaction                   ... done (   3.4 sec)
Reading the grid                                   ... done
Mapping shells                                     ... done
Starting the XC term evaluation                    ... done (   1.8 sec)
  promolecular density results
     # of electrons  =    814.011980533
     EX              =  -3705.416597689
     EC              =    -49.432234381
     EX+EC           =  -3754.848832070
Transforming the Hamiltonian                       ... done (   1.3 sec)
Diagonalizing the Hamiltonian                      ... done (   1.5 sec)
Back transforming the eigenvectors                 ... done (   0.1 sec)
Now organizing SCF variables                       ... done
                      ------------------
                      INITIAL GUESS DONE (  17.5 sec)
                      ------------------
-------------------
DFT GRID GENERATION
-------------------

General Integration Accuracy     IntAcc      ... 4.388
Radial Grid Type                 RadialGrid  ... OptM3 with GC (2021)
Angular Grid (max. ang.)         AngularGrid ... 4 (Lebedev-302)
Angular grid pruning method      GridPruning ... 4 (adaptive)
Weight generation scheme         WeightScheme... Becke
Basis function cutoff            BFCut       ... 1.0000e-10
Integration weight cutoff        WCut        ... 1.0000e-14
Angular grids for H and He will be reduced by one unit
Partially contracted basis set               ... off
Rotationally invariant grid construction     ... off

Total number of grid points                  ...   123409
Total number of batches                      ...     1933
Average number of points per batch           ...       63
Average number of grid points per atom       ...    11219
Time for grid setup =   12.325 sec

--------------
SCF ITERATIONS
--------------
ITER       Energy         Delta-E        Max-DP      RMS-DP      [F,P]     Damp
               ***  Starting incremental Fock matrix formation  ***
  0  -2401.1641346930   0.000000000000 0.12148871  0.00079717  0.2856316 0.9200
  1  -2401.5736516254  -0.409516932386 0.10695210  0.00075912  0.2620158 0.9200
                               ***Turning on DIIS***
  2  -2401.7846103901  -0.210958764707 0.08242044  0.00060367  0.2400116 0.9200
  3  -2401.8534030281  -0.068792637969 0.03954556  0.00038354  0.2199355 0.9200
  4  -2401.8740736682  -0.020670640115 0.01991690  0.00026876  0.2016408 0.9200
  5  -2401.9206771218  -0.046603453542 0.02598912  0.00025597  0.1848313 0.9200
  6  -2401.9625891025  -0.041911980721 0.02407028  0.00021925  0.1697142 0.9200
  7  -2401.9915893117  -0.029000209250 0.02274821  0.00020939  0.1562555 0.9200
  8  -2402.0278551991  -0.036265887398 0.02215898  0.00023072  0.1437805 0.9200
  9  -2402.0617237723  -0.033868573121 0.02626515  0.00018786  0.1321113 0.9200
 10  -2402.0902789380  -0.028555165774 0.02010226  0.00016323  0.1214371 0.9200
 11  -2402.1205901892  -0.030311251145 0.01884056  0.00015961  0.1114920 0.9200
 12  -2402.1450213296  -0.024431140441 0.01987978  0.00014706  0.1024589 0.9200
 13  -2402.1687354649  -0.023714135252 0.01650846  0.00014991  0.0942665 0.9200
 14  -2402.1929413979  -0.024205933017 0.01507842  0.00013889  0.0866936 0.9200
 15  -2402.2137718767  -0.020830478832 0.01736228  0.00011727  0.0797321 0.9200
 16  -2402.2336520303  -0.019880153546 0.01570844  0.00011553  0.0732821 0.9200
 17  -2402.2515689386  -0.017916908331 0.01847317  0.00010819  0.0672926 0.9200
 18  -2402.2679517052  -0.016382766612 0.01795770  0.00010471  0.0618875 0.9200
 19  -2402.2839938124  -0.016042107216 0.01417445  0.00010186  0.0569312 0.9200
               *** Restarting incremental Fock matrix formation ***
                                   *** Resetting DIIS ***
 20  -2402.2984411452  -0.014447332735 0.01224841  0.00008725  0.0523693 0.9200
 21  -2402.3117689889  -0.013327843795 0.01196690  0.00007829  0.0480775 0.9200
 22  -2402.3243726156  -0.012603626627 0.01273878  0.00007471  0.0441332 0.9200
 23  -2402.3360003698  -0.011627754228 0.01368978  0.00007167  0.0405523 0.9200
 24  -2402.3466796676  -0.010679297814 0.01332827  0.00006833  0.0373020 0.9200
 25  -2402.3564952784  -0.009815610797 0.01236468  0.00006406  0.0343239 0.9200
 26  -2402.3655668928  -0.009071614410 0.01118374  0.00006006  0.0315693 0.9200
 27  -2402.3740196458  -0.008452753000 0.01071279  0.00005726  0.0290203 0.9200
 28  -2402.3818071593  -0.007787513490 0.01050244  0.00005422  0.0266803 0.9200
 29  -2402.3889734684  -0.007166309049 0.00969129  0.00005076  0.0245404 0.9200
 30  -2402.3955620003  -0.006588531926 0.00864823  0.00004686  0.0225758 0.9200
 31  -2402.4016776577  -0.006115657374 0.00797351  0.00004432  0.0207620 0.9200
 32  -2402.4073391359  -0.005661478282 0.00786986  0.00004198  0.0190877 0.9200
 33  -2402.4125549205  -0.005215784560 0.00759338  0.00003948  0.0175526 0.9200
 34  -2402.4173563941  -0.004801473563 0.00688178  0.00003656  0.0161456 0.9200
 35  -2402.4217835521  -0.004427158019 0.00610734  0.00003388  0.0148515 0.9200
 36  -2402.4258861207  -0.004102568611 0.00576631  0.00003208  0.0136562 0.9200
 37  -2402.4296717699  -0.003785649197 0.00574338  0.00003023  0.0125557 0.9200
 38  -2402.4331599768  -0.003488206915 0.00549398  0.00002828  0.0115477 0.9200
 39  -2402.4363714951  -0.003211518285 0.00266652  0.00002507  0.0106228 0.9200
               *** Restarting incremental Fock matrix formation ***
                                   *** Resetting DIIS ***
 40  -2402.4393372883  -0.002965793166 0.00311933  0.00002275  0.0097702 0.9200
 41  -2402.4420810130  -0.002743724768 0.00321524  0.00002103  0.0089709 0.9200
 42  -2402.4446100736  -0.002529060564 0.00329763  0.00001974  0.0082394 0.9200
 43  -2402.4469389850  -0.002328911439 0.00325141  0.00001867  0.0075744 0.9200
 44  -2402.4490845124  -0.002145527382 0.00313200  0.00001772  0.0069669 0.9200
 45  -2402.4510630436  -0.001978531157 0.00297431  0.00001683  0.0064085 0.9200
 46  -2402.4528872879  -0.001824244331 0.00282813  0.00001593  0.0058930 0.9200
 47  -2402.4545678599  -0.001680572020 0.00261966  0.00001495  0.0054192 0.9200
 48  -2402.4561156807  -0.001547820748 0.00232480  0.00001395  0.0049845 0.9200
 49  -2402.4575421914  -0.001426510765 0.00206097  0.00001308  0.0045848 0.9200
 50  -2402.4588574630  -0.001315271595 0.00190891  0.00001234  0.0042163 0.9200
 51  -2402.4600694057  -0.001211942658 0.00180831  0.00001159  0.0038774 0.9200
 52  -2402.4611857183  -0.001116312615 0.00167043  0.00001084  0.0035663 0.9200
 53  -2402.4622139662  -0.001028247884 0.00150197  0.00001013  0.0032803 0.9200
 54  -2402.4631615983  -0.000947632135 0.00137639  0.00000954  0.0030169 0.9200
 55  -2402.4640348014  -0.000873203092 0.01653137  0.00011248  0.0027743 0.0000
 56  -2402.4741678989  -0.010133097523 0.00353075  0.00001278  0.0004660 0.0000
 57  -2402.4741545822   0.000013316713 0.00119013  0.00000607  0.0017814 0.0000
 58  -2402.4741690876  -0.000014505423 0.00064200  0.00000389  0.0009805 0.0000
 59  -2402.4741745354  -0.000005447758 0.00803366  0.00002120  0.0004493 0.0000
               *** Restarting incremental Fock matrix formation ***
                                   *** Resetting DIIS ***
 60  -2402.4741772934  -0.000002757982 0.00037415  0.00000322  0.0001936 0.0000
 61  -2402.4741773125  -0.000000019078 0.00023678  0.00000232  0.0003841 0.0000
 62  -2402.4741785669  -0.000001254464 0.00013470  0.00000189  0.0002737 0.0000
 63  -2402.4741793094  -0.000000742481 0.00015751  0.00000186  0.0002133 0.0000
 64  -2402.4741799157  -0.000000606288 0.00020450  0.00000199  0.0001397 0.0000
 65  -2402.4741804499  -0.000000534176 0.00026777  0.00000172  0.0000560 0.0000
 66  -2402.4741808119  -0.000000362011 0.00008089  0.00000149  0.0000549 0.0000
                 **** Energy Check signals convergence ****

               *****************************************************
               *                     SUCCESS                       *
               *           SCF CONVERGED AFTER  67 CYCLES          *
               *****************************************************


----------------
TOTAL SCF ENERGY
----------------

Total Energy       :        -2402.47418117 Eh          -65374.64605 eV

Components:
Nuclear Repulsion  :         3136.94453649 Eh           85360.60049 eV
Electronic Energy  :        -5539.41871765 Eh         -150735.24654 eV
One Electron Energy:       -10090.00712970 Eh         -274563.05252 eV
Two Electron Energy:         4550.58841205 Eh          123827.80598 eV

Virial components:
Potential Energy   :        -3903.06601003 Eh         -106207.82563 eV
Kinetic Energy     :         1500.59182886 Eh           40833.17958 eV
Virial Ratio       :            2.60101777


DFT components:
N(Alpha)           :      109.000008788252 electrons
N(Beta)            :      105.000006715231 electrons
N(Total)           :      214.000015503483 electrons
E(X)               :     -167.935615113897 Eh       
E(C)               :       -9.273188157561 Eh       
E(XC)              :     -177.208803271458 Eh       
DFET-embed. en.    :        0.000000000000 Eh       

---------------
SCF CONVERGENCE
---------------

  Last Energy change         ...   -3.5536e-07  Tolerance :   1.0000e-06
  Last MAX-Density change    ...    3.2509e-04  Tolerance :   1.0000e-05
  Last RMS-Density change    ...    1.6353e-06  Tolerance :   1.0000e-06
  Last DIIS Error            ...    5.5965e-05  Tolerance :   1.0000e-06

             **** THE GBW FILE WAS UPDATED (pbeSP.gbw) ****
             **** DENSITY pbeSP.scfp WAS UPDATED ****
             **** ENERGY FILE WAS UPDATED (pbeSP.en.tmp) ****
----------------------
UHF SPIN CONTAMINATION
----------------------

Warning: in a DFT calculation there is little theoretical justification to 
         calculate <S**2> as in Hartree-Fock theory. We will do it anyways
         but you should keep in mind that the values have only limited relevance

Expectation value of <S**2>     :     6.385051
Ideal value S*(S+1) for S=2.0   :     6.000000
Deviation                       :     0.385051

             **** THE GBW FILE WAS UPDATED (pbeSP.gbw) ****
             **** DENSITY pbeSP.scfp WAS UPDATED ****
----------------
ORBITAL ENERGIES
----------------
                 SPIN UP ORBITALS
  NO   OCC          E(Eh)            E(eV) 
   0   1.0000    -214.490423     -5836.5811 
   1   1.0000     -24.293069      -661.0480 
   2   1.0000     -20.658328      -562.1417 
   3   1.0000     -20.657117      -562.1087 
   4   1.0000     -20.653178      -562.0015 
   5   1.0000      -4.032753      -109.7368 
   6   1.0000      -4.032381      -109.7267 
   7   1.0000      -4.023086      -109.4737 
   8   1.0000      -4.020177      -109.3946 
   9   1.0000      -4.018017      -109.3358 
  10   1.0000      -4.017928      -109.3334 
  11   1.0000      -4.017360      -109.3179 
  12   1.0000      -4.016014      -109.2813 
  13   1.0000      -4.015816      -109.2759 
  14   1.0000      -4.014820      -109.2488 
  15   1.0000      -2.797017       -76.1107 
  16   1.0000      -2.250425       -61.2372 
  17   1.0000      -2.249899       -61.2229 
  18   1.0000      -2.245572       -61.1051 
  19   1.0000      -2.243995       -61.0622 
  20   1.0000      -2.242582       -61.0238 
  21   1.0000      -2.241922       -61.0058 
  22   1.0000      -2.241601       -60.9971 
  23   1.0000      -2.238771       -60.9201 
  24   1.0000      -2.236025       -60.8453 
  25   1.0000      -2.235175       -60.8222 
  26   1.0000      -2.234806       -60.8122 
  27   1.0000      -2.234321       -60.7990 
  28   1.0000      -2.233927       -60.7883 
  29   1.0000      -2.233792       -60.7846 
  30   1.0000      -2.233192       -60.7682 
  31   1.0000      -2.233152       -60.7671 
  32   1.0000      -2.231935       -60.7340 
  33   1.0000      -2.231020       -60.7091 
  34   1.0000      -2.230568       -60.6968 
  35   1.0000      -2.230406       -60.6924 
  36   1.0000      -2.229979       -60.6808 
  37   1.0000      -2.229813       -60.6763 
  38   1.0000      -2.228542       -60.6417 
  39   1.0000      -2.228471       -60.6398 
  40   1.0000      -2.225251       -60.5522 
  41   1.0000      -2.225007       -60.5455 
  42   1.0000      -2.224326       -60.5270 
  43   1.0000      -2.223555       -60.5060 
  44   1.0000      -2.223079       -60.4930 
  45   1.0000      -2.221342       -60.4458 
  46   1.0000      -1.789342       -48.6905 
  47   1.0000      -1.788362       -48.6638 
  48   1.0000      -1.782020       -48.4912 
  49   1.0000      -0.408385       -11.1127 
  50   1.0000      -0.378976       -10.3124 
  51   1.0000      -0.366661        -9.9773 
  52   1.0000      -0.364476        -9.9179 
  53   1.0000      -0.360585        -9.8120 
  54   1.0000      -0.355458        -9.6725 
  55   1.0000      -0.348236        -9.4760 
  56   1.0000      -0.345556        -9.4031 
  57   1.0000      -0.341778        -9.3003 
  58   1.0000      -0.337740        -9.1904 
  59   1.0000      -0.337184        -9.1752 
  60   1.0000      -0.333317        -9.0700 
  61   1.0000      -0.329270        -8.9599 
  62   1.0000      -0.327505        -8.9119 
  63   1.0000      -0.323959        -8.8154 
  64   1.0000      -0.320836        -8.7304 
  65   1.0000      -0.316390        -8.6094 
  66   1.0000      -0.312998        -8.5171 
  67   1.0000      -0.309791        -8.4298 
  68   1.0000      -0.308171        -8.3857 
  69   1.0000      -0.305785        -8.3208 
  70   1.0000      -0.302718        -8.2374 
  71   1.0000      -0.301922        -8.2157 
  72   1.0000      -0.298746        -8.1293 
  73   1.0000      -0.291415        -7.9298 
  74   1.0000      -0.290738        -7.9114 
  75   1.0000      -0.290400        -7.9022 
  76   1.0000      -0.285447        -7.7674 
  77   1.0000      -0.282815        -7.6958 
  78   1.0000      -0.280232        -7.6255 
  79   1.0000      -0.279851        -7.6151 
  80   1.0000      -0.278668        -7.5830 
  81   1.0000      -0.274742        -7.4761 
  82   1.0000      -0.272883        -7.4255 
  83   1.0000      -0.270756        -7.3676 
  84   1.0000      -0.268389        -7.3032 
  85   1.0000      -0.267560        -7.2807 
  86   1.0000      -0.266735        -7.2582 
  87   1.0000      -0.265894        -7.2353 
  88   1.0000      -0.263309        -7.1650 
  89   1.0000      -0.262219        -7.1353 
  90   1.0000      -0.260287        -7.0828 
  91   1.0000      -0.256100        -6.9688 
  92   1.0000      -0.255958        -6.9650 
  93   1.0000      -0.253398        -6.8953 
  94   1.0000      -0.252027        -6.8580 
  95   1.0000      -0.248990        -6.7754 
  96   1.0000      -0.248189        -6.7536 
  97   1.0000      -0.247575        -6.7369 
  98   1.0000      -0.237677        -6.4675 
  99   1.0000      -0.237404        -6.4601 
 100   1.0000      -0.235639        -6.4121 
 101   1.0000      -0.235035        -6.3956 
 102   1.0000      -0.231998        -6.3130 
 103   1.0000      -0.215139        -5.8542 
 104   1.0000      -0.210346        -5.7238 
 105   1.0000      -0.210144        -5.7183 
 106   1.0000      -0.206731        -5.6254 
 107   1.0000      -0.198675        -5.4062 
 108   1.0000      -0.184869        -5.0305 
 109   0.0000      -0.164004        -4.4628 
 110   0.0000      -0.162378        -4.4185 
 111   0.0000      -0.142034        -3.8649 
 112   0.0000      -0.128049        -3.4844 
 113   0.0000      -0.111459        -3.0330 
 114   0.0000      -0.102922        -2.8006 
 115   0.0000      -0.065466        -1.7814 
 116   0.0000      -0.061933        -1.6853 
 117   0.0000      -0.057534        -1.5656 
 118   0.0000      -0.054766        -1.4903 
 119   0.0000      -0.052577        -1.4307 
 120   0.0000      -0.030719        -0.8359 
 121   0.0000      -0.020150        -0.5483 
 122   0.0000      -0.018918        -0.5148 
 123   0.0000      -0.004402        -0.1198 
 124   0.0000       0.002493         0.0678 
 125   0.0000       0.014861         0.4044 
 126   0.0000       0.023130         0.6294 
 127   0.0000       0.028382         0.7723 
 128   0.0000       0.038571         1.0496 
 129   0.0000       0.046465         1.2644 
 130   0.0000       0.048805         1.3280 
 131   0.0000       0.053953         1.4681 
 132   0.0000       0.059100         1.6082 
 133   0.0000       0.059172         1.6101 
 134   0.0000       0.060807         1.6546 
 135   0.0000       0.066069         1.7978 
 136   0.0000       0.074578         2.0294 
 137   0.0000       0.085743         2.3332 
 138   0.0000       0.093218         2.5366 
 139   0.0000       0.097367         2.6495 
 140   0.0000       0.099235         2.7003 
 141   0.0000       0.103841         2.8256 
 142   0.0000       0.105020         2.8578 
 143   0.0000       0.110733         3.0132 
 144   0.0000       0.122582         3.3356 
 145   0.0000       0.132730         3.6118 
 146   0.0000       0.137438         3.7399 
 147   0.0000       0.139885         3.8065 
 148   0.0000       0.142439         3.8760 
 149   0.0000       0.154577         4.2063 
 150   0.0000       0.154757         4.2111 
 151   0.0000       0.159533         4.3411 
 152   0.0000       0.164065         4.4644 
 153   0.0000       0.167556         4.5594 
 154   0.0000       0.208307         5.6683 
 155   0.0000       0.211824         5.7640 
 156   0.0000       0.222791         6.0625 
 157   0.0000       0.226762         6.1705 
 158   0.0000       0.232212         6.3188 
 159   0.0000       0.240690         6.5495 
 160   0.0000       0.244665         6.6577 
 161   0.0000       0.246536         6.7086 
 162   0.0000       0.259615         7.0645 
 163   0.0000       0.261101         7.1049 
 164   0.0000       0.263493         7.1700 
 165   0.0000       0.277658         7.5555 
 166   0.0000       0.278913         7.5896 
 167   0.0000       0.280501         7.6328 
 168   0.0000       0.282576         7.6893 
 169   0.0000       0.291206         7.9241 
 170   0.0000       0.293827         7.9955 
 171   0.0000       0.301055         8.1921 
 172   0.0000       0.304360         8.2821 
 173   0.0000       0.309203         8.4138 
 174   0.0000       0.318168         8.6578 
 175   0.0000       0.319634         8.6977 
 176   0.0000       0.328360         8.9351 
 177   0.0000       0.333925         9.0865 
 178   0.0000       0.340322         9.2606 
 179   0.0000       0.345473         9.4008 
 180   0.0000       0.348457         9.4820 
 181   0.0000       0.351959         9.5773 
 182   0.0000       0.362883         9.8745 
 183   0.0000       0.364880         9.9289 
 184   0.0000       0.368326        10.0227 
 185   0.0000       0.369638        10.0584 
 186   0.0000       0.374415        10.1884 
 187   0.0000       0.380582        10.3562 
 188   0.0000       0.386099        10.5063 
 189   0.0000       0.387963        10.5570 
 190   0.0000       0.389441        10.5972 
 191   0.0000       0.403768        10.9871 
 192   0.0000       0.414977        11.2921 
 193   0.0000       0.426150        11.5961 
 194   0.0000       0.428362        11.6563 
 195   0.0000       0.435243        11.8436 
 196   0.0000       0.437365        11.9013 
 197   0.0000       0.441061        12.0019 
 198   0.0000       0.445909        12.1338 
 199   0.0000       0.450489        12.2584 
 200   0.0000       0.456997        12.4355 
 201   0.0000       0.460087        12.5196 
 202   0.0000       0.461420        12.5559 
 203   0.0000       0.479149        13.0383 
 204   0.0000       0.487965        13.2782 
 205   0.0000       0.495831        13.4922 
 206   0.0000       0.496257        13.5038 
 207   0.0000       0.497833        13.5467 
 208   0.0000       0.508493        13.8368 
 209   0.0000       0.514968        14.0130 
 210   0.0000       0.520633        14.1672 
 211   0.0000       0.521523        14.1914 
 212   0.0000       0.534138        14.5346 
 213   0.0000       0.536228        14.5915 
 214   0.0000       0.546382        14.8678 
 215   0.0000       0.549160        14.9434 
 216   0.0000       0.553545        15.0627 
 217   0.0000       0.562180        15.2977 
 218   0.0000       0.566359        15.4114 
 219   0.0000       0.634278        17.2596 
 220   0.0000       0.635018        17.2797 
 221   0.0000       0.636492        17.3198 
 222   0.0000       0.641483        17.4556 
 223   0.0000       0.671429        18.2705 
 224   0.0000       0.691652        18.8208 
 225   0.0000       0.701358        19.0849 
 226   0.0000       0.723831        19.6965 
 227   0.0000       0.731601        19.9079 
 228   0.0000       0.737865        20.0783 
 229   0.0000       0.738539        20.0967 
 230   0.0000       0.760452        20.6929 
 231   0.0000       0.774952        21.0875 
 232   0.0000       0.775937        21.1143 
 233   0.0000       0.785882        21.3849 
 234   0.0000       0.809444        22.0261 
 235   0.0000       0.821272        22.3480 
 236   0.0000       0.849165        23.1070 
 237   0.0000       0.852086        23.1864 
 238   0.0000       0.869615        23.6634 
 239   0.0000       0.888898        24.1881 
 240   0.0000       0.898121        24.4391 
 241   0.0000       0.913443        24.8560 
 242   0.0000       0.923117        25.1193 
 243   0.0000       0.931229        25.3400 
 244   0.0000       0.957005        26.0414 
 245   0.0000       0.967728        26.3332 
 246   0.0000       1.008353        27.4387 
 247   0.0000       1.050281        28.5796 
 248   0.0000       1.110274        30.2121 
 249   0.0000       1.214859        33.0580 
 250   0.0000       1.227264        33.3956 
 251   0.0000       1.240506        33.7559 
 252   0.0000       1.269146        34.5352 
 253   0.0000       1.271120        34.5889 
 254   0.0000       1.274122        34.6706 
 255   0.0000       1.280666        34.8487 
 256   0.0000       1.296670        35.2842 
 257   0.0000       1.308902        35.6170 
 258   0.0000       1.328084        36.1390 
 259   0.0000       1.334388        36.3105 
 260   0.0000       1.342436        36.5295 
 261   0.0000       1.360343        37.0168 
 262   0.0000       1.362860        37.0853 
 263   0.0000       1.366981        37.1975 
 264   0.0000       1.374157        37.3927 
 265   0.0000       1.381614        37.5956 
 266   0.0000       1.387049        37.7435 
 267   0.0000       1.393983        37.9322 
 268   0.0000       1.401767        38.1440 
 269   0.0000       1.405500        38.2456 
 270   0.0000       1.411355        38.4049 
 271   0.0000       1.420335        38.6493 
 272   0.0000       1.423523        38.7360 
 273   0.0000       1.427563        38.8460 
 274   0.0000       1.430867        38.9359 
 275   0.0000       1.432546        38.9816 
 276   0.0000       1.434351        39.0307 
 277   0.0000       1.442021        39.2394 
 278   0.0000       1.443592        39.2821 
 279   0.0000       1.446966        39.3740 
 280   0.0000       1.448145        39.4060 
 281   0.0000       1.450355        39.4662 
 282   0.0000       1.454534        39.5799 
 283   0.0000       1.459297        39.7095 
 284   0.0000       1.462528        39.7974 
 285   0.0000       1.464130        39.8410 
 286   0.0000       1.467611        39.9357 
 287   0.0000       1.469033        39.9744 
 288   0.0000       1.475149        40.1408 
 289   0.0000       1.481109        40.3030 
 290   0.0000       1.483679        40.3730 
 291   0.0000       1.487153        40.4675 
 292   0.0000       1.488433        40.5023 
 293   0.0000       1.490223        40.5510 
 294   0.0000       1.495063        40.6827 
 295   0.0000       1.495422        40.6925 
 296   0.0000       1.496139        40.7120 
 297   0.0000       1.499575        40.8055 
 298   0.0000       1.500283        40.8248 
 299   0.0000       1.502137        40.8752 
 300   0.0000       1.503574        40.9143 
 301   0.0000       1.504979        40.9526 
 302   0.0000       1.508113        41.0378 
 303   0.0000       1.508861        41.0582 
 304   0.0000       1.509494        41.0754 
 305   0.0000       1.514133        41.2017 
 306   0.0000       1.516646        41.2700 
 307   0.0000       1.517232        41.2860 
 308   0.0000       1.519927        41.3593 
 309   0.0000       1.523947        41.4687 
 310   0.0000       1.524817        41.4924 
 311   0.0000       1.526502        41.5382 
 312   0.0000       1.528015        41.5794 
 313   0.0000       1.531403        41.6716 
 314   0.0000       1.532822        41.7102 
 315   0.0000       1.535464        41.7821 
 316   0.0000       1.538113        41.8542 
 317   0.0000       1.540381        41.9159 
 318   0.0000       1.546134        42.0725 
 319   0.0000       1.548829        42.1458 
 320   0.0000       1.549668        42.1686 
 321   0.0000       1.552918        42.2570 
 322   0.0000       1.553716        42.2788 
 323   0.0000       1.557660        42.3861 
 324   0.0000       1.559285        42.4303 
 325   0.0000       1.562881        42.5281 
 326   0.0000       1.564377        42.5689 
 327   0.0000       1.566278        42.6206 
 328   0.0000       1.568647        42.6851 
 329   0.0000       1.569539        42.7093 
 330   0.0000       1.573036        42.8045 
 331   0.0000       1.573694        42.8224 
 332   0.0000       1.576726        42.9049 
 333   0.0000       1.580492        43.0074 
 334   0.0000       1.583784        43.0969 
 335   0.0000       1.586929        43.1825 
 336   0.0000       1.593391        43.3584 
 337   0.0000       1.595628        43.4193 
 338   0.0000       1.598568        43.4992 
 339   0.0000       1.598796        43.5054 
 340   0.0000       1.600872        43.5620 
 341   0.0000       1.606002        43.7015 
 342   0.0000       1.607396        43.7395 
 343   0.0000       1.609868        43.8067 
 344   0.0000       1.610993        43.8374 
 345   0.0000       1.614290        43.9271 
 346   0.0000       1.618778        44.0492 
 347   0.0000       1.628480        44.3132 
 348   0.0000       1.643011        44.7086 
 349   0.0000       1.651193        44.9312 
 350   0.0000       1.653674        44.9988 
 351   0.0000       1.661139        45.2019 
 352   0.0000       1.666862        45.3576 
 353   0.0000       1.675508        45.5929 
 354   0.0000       1.681031        45.7432 
 355   0.0000       1.705627        46.4125 
 356   0.0000       1.723072        46.8872 
 357   0.0000       1.751700        47.6662 
 358   0.0000       1.764256        48.0079 
 359   0.0000       1.775632        48.3174 
 360   0.0000       1.788475        48.6669 
 361   0.0000       1.816364        49.4258 
 362   0.0000       1.828615        49.7592 
 363   0.0000       1.833319        49.8871 
 364   0.0000       1.850603        50.3575 
 365   0.0000       1.851161        50.3727 
 366   0.0000       1.900470        51.7144 
 367   0.0000       1.918845        52.2144 
 368   0.0000       1.937138        52.7122 
 369   0.0000       1.946840        52.9762 
 370   0.0000       1.952480        53.1297 
 371   0.0000       2.074190        56.4416 
 372   0.0000       2.149385        58.4877 
 373   0.0000       2.163404        58.8692 
 374   0.0000       2.240352        60.9631 
 375   0.0000       2.252155        61.2843 
 376   0.0000       2.288448        62.2718 
 377   0.0000       2.322343        63.1942 
 378   0.0000       2.342224        63.7352 
 379   0.0000       2.370373        64.5011 
 380   0.0000       2.395498        65.1848 
 381   0.0000       2.425667        66.0058 
 382   0.0000       2.454951        66.8026 
 383   0.0000       2.467979        67.1571 
 384   0.0000       2.482390        67.5493 
 385   0.0000       2.511845        68.3508 
 386   0.0000       2.622350        71.3578 
 387   0.0000       2.807854        76.4056 
 388   0.0000       2.822690        76.8093 
 389   0.0000       2.842777        77.3559 
 390   0.0000       2.846843        77.4665 
 391   0.0000       2.847467        77.4835 
 392   0.0000       2.869957        78.0955 
 393   0.0000       2.891483        78.6813 
 394   0.0000       2.912027        79.2403 
 395   0.0000      23.396893       636.6618 
 396   0.0000      23.782951       647.1670 
 397   0.0000      23.837234       648.6441 
 398   0.0000      23.984834       652.6605 
 399   0.0000      24.047181       654.3571 
 400   0.0000      24.149141       657.1315 
 401   0.0000      24.682640       671.6488 
 402   0.0000      24.748148       673.4313 
 403   0.0000      24.995371       680.1586 
 404   0.0000      25.122576       683.6201 
 405   0.0000      25.243434       686.9087 
 406   0.0000      25.548740       695.2166 
 407   0.0000      25.562513       695.5913 
 408   0.0000      25.706733       699.5158 
 409   0.0000      25.873653       704.0579 
 410   0.0000      26.222953       713.5628 
 411   0.0000      26.392319       718.1715 
 412   0.0000      26.475269       720.4287 
 413   0.0000      26.523636       721.7448 
 414   0.0000      26.762376       728.2413 
 415   0.0000      26.990914       734.4601 
 416   0.0000      27.188219       739.8291 
 417   0.0000      27.402150       745.6504 
 418   0.0000      27.506709       748.4956 
 419   0.0000      27.622334       751.6419 
 420   0.0000      27.814554       756.8725 
 421   0.0000      27.916058       759.6346 
 422   0.0000      28.286452       769.7135 
 423   0.0000      28.439221       773.8705 
 424   0.0000      28.809974       783.9592 
 425   0.0000      43.899617      1194.5693 
 426   0.0000      43.962019      1196.2673 
 427   0.0000      43.969831      1196.4799 
 428   0.0000      44.025295      1197.9892 
 429   0.0000      44.059366      1198.9163 
 430   0.0000      44.094864      1199.8823 
 431   0.0000      44.108843      1200.2626 
 432   0.0000      44.131957      1200.8916 
 433   0.0000      44.154037      1201.4924 
 434   0.0000      44.188084      1202.4189 
 435   0.0000     205.093085      5580.8666 
 436   0.0000     205.118440      5581.5565 
 437   0.0000     205.121907      5581.6509 
 438   0.0000     205.142037      5582.1986 
 439   0.0000     205.158894      5582.6573 
 440   0.0000     205.175823      5583.1180 
 441   0.0000     205.178901      5583.2018 
 442   0.0000     205.184658      5583.3584 
 443   0.0000     205.200653      5583.7937 
 444   0.0000     205.206394      5583.9499 

                 SPIN DOWN ORBITALS
  NO   OCC          E(Eh)            E(eV) 
   0   1.0000    -214.489970     -5836.5688 
   1   1.0000     -24.246235      -659.7736 
   2   1.0000     -20.624331      -561.2166 
   3   1.0000     -20.622373      -561.1633 
   4   1.0000     -20.614540      -560.9502 
   5   1.0000      -4.031054      -109.6906 
   6   1.0000      -4.030647      -109.6795 
   7   1.0000      -4.021620      -109.4338 
   8   1.0000      -4.019479      -109.3756 
   9   1.0000      -4.016753      -109.3014 
  10   1.0000      -4.016426      -109.2925 
  11   1.0000      -4.016213      -109.2867 
  12   1.0000      -4.014869      -109.2502 
  13   1.0000      -4.014676      -109.2449 
  14   1.0000      -4.014185      -109.2315 
  15   1.0000      -2.670435       -72.6662 
  16   1.0000      -2.248276       -61.1787 
  17   1.0000      -2.247688       -61.1627 
  18   1.0000      -2.243666       -61.0533 
  19   1.0000      -2.242097       -61.0106 
  20   1.0000      -2.240979       -60.9801 
  21   1.0000      -2.240325       -60.9623 
  22   1.0000      -2.239490       -60.9396 
  23   1.0000      -2.237095       -60.8744 
  24   1.0000      -2.234744       -60.8105 
  25   1.0000      -2.233714       -60.7824 
  26   1.0000      -2.233314       -60.7716 
  27   1.0000      -2.232982       -60.7625 
  28   1.0000      -2.232626       -60.7529 
  29   1.0000      -2.232504       -60.7495 
  30   1.0000      -2.232067       -60.7376 
  31   1.0000      -2.231846       -60.7316 
  32   1.0000      -2.230759       -60.7020 
  33   1.0000      -2.229881       -60.6782 
  34   1.0000      -2.229753       -60.6747 
  35   1.0000      -2.228899       -60.6514 
  36   1.0000      -2.228725       -60.6467 
  37   1.0000      -2.228473       -60.6398 
  38   1.0000      -2.227824       -60.6222 
  39   1.0000      -2.227389       -60.6103 
  40   1.0000      -2.224093       -60.5206 
  41   1.0000      -2.223838       -60.5137 
  42   1.0000      -2.223228       -60.4971 
  43   1.0000      -2.222570       -60.4792 
  44   1.0000      -2.222216       -60.4696 
  45   1.0000      -2.220836       -60.4320 
  46   1.0000      -1.670247       -45.4497 
  47   1.0000      -1.666972       -45.3606 
  48   1.0000      -1.648206       -44.8500 
  49   1.0000      -0.402157       -10.9432 
  50   1.0000      -0.373680       -10.1683 
  51   1.0000      -0.363658        -9.8956 
  52   1.0000      -0.361892        -9.8476 
  53   1.0000      -0.357512        -9.7284 
  54   1.0000      -0.350736        -9.5440 
  55   1.0000      -0.343722        -9.3531 
  56   1.0000      -0.340502        -9.2655 
  57   1.0000      -0.340316        -9.2605 
  58   1.0000      -0.334900        -9.1131 
  59   1.0000      -0.334464        -9.1012 
  60   1.0000      -0.330529        -8.9941 
  61   1.0000      -0.326264        -8.8781 
  62   1.0000      -0.323506        -8.8030 
  63   1.0000      -0.318969        -8.6796 
  64   1.0000      -0.318047        -8.6545 
  65   1.0000      -0.311814        -8.4849 
  66   1.0000      -0.310403        -8.4465 
  67   1.0000      -0.306882        -8.3507 
  68   1.0000      -0.304857        -8.2956 
  69   1.0000      -0.303669        -8.2633 
  70   1.0000      -0.299014        -8.1366 
  71   1.0000      -0.297707        -8.1010 
  72   1.0000      -0.295323        -8.0361 
  73   1.0000      -0.290287        -7.8991 
  74   1.0000      -0.288546        -7.8517 
  75   1.0000      -0.286602        -7.7988 
  76   1.0000      -0.284172        -7.7327 
  77   1.0000      -0.280645        -7.6368 
  78   1.0000      -0.278607        -7.5813 
  79   1.0000      -0.278436        -7.5766 
  80   1.0000      -0.276650        -7.5280 
  81   1.0000      -0.272880        -7.4255 
  82   1.0000      -0.270855        -7.3703 
  83   1.0000      -0.269636        -7.3372 
  84   1.0000      -0.267490        -7.2788 
  85   1.0000      -0.266038        -7.2393 
  86   1.0000      -0.265808        -7.2330 
  87   1.0000      -0.264590        -7.1999 
  88   1.0000      -0.262176        -7.1342 
  89   1.0000      -0.261075        -7.1042 
  90   1.0000      -0.259350        -7.0573 
  91   1.0000      -0.254531        -6.9261 
  92   1.0000      -0.253351        -6.8940 
  93   1.0000      -0.252642        -6.8747 
  94   1.0000      -0.250047        -6.8041 
  95   1.0000      -0.247772        -6.7422 
  96   1.0000      -0.246829        -6.7166 
  97   1.0000      -0.246332        -6.7030 
  98   1.0000      -0.236273        -6.4293 
  99   1.0000      -0.235390        -6.4053 
 100   1.0000      -0.234823        -6.3899 
 101   1.0000      -0.232193        -6.3183 
 102   1.0000      -0.230844        -6.2816 
 103   1.0000      -0.203734        -5.5439 
 104   1.0000      -0.189880        -5.1669 
 105   0.0000      -0.192265        -5.2318 
 106   0.0000      -0.146832        -3.9955 
 107   0.0000      -0.134307        -3.6547 
 108   0.0000      -0.122420        -3.3312 
 109   0.0000      -0.106108        -2.8873 
 110   0.0000      -0.105553        -2.8723 
 111   0.0000      -0.098137        -2.6705 
 112   0.0000      -0.097562        -2.6548 
 113   0.0000      -0.093805        -2.5526 
 114   0.0000      -0.087107        -2.3703 
 115   0.0000      -0.060253        -1.6396 
 116   0.0000      -0.054502        -1.4831 
 117   0.0000      -0.051333        -1.3968 
 118   0.0000      -0.050733        -1.3805 
 119   0.0000      -0.049714        -1.3528 
 120   0.0000      -0.025487        -0.6935 
 121   0.0000      -0.015951        -0.4340 
 122   0.0000      -0.009977        -0.2715 
 123   0.0000      -0.001052        -0.0286 
 124   0.0000       0.003516         0.0957 
 125   0.0000       0.017746         0.4829 
 126   0.0000       0.027338         0.7439 
 127   0.0000       0.030684         0.8350 
 128   0.0000       0.043107         1.1730 
 129   0.0000       0.047779         1.3001 
 130   0.0000       0.049875         1.3572 
 131   0.0000       0.054416         1.4807 
 132   0.0000       0.060516         1.6467 
 133   0.0000       0.061295         1.6679 
 134   0.0000       0.065356         1.7784 
 135   0.0000       0.066858         1.8193 
 136   0.0000       0.073908         2.0111 
 137   0.0000       0.087307         2.3758 
 138   0.0000       0.093615         2.5474 
 139   0.0000       0.100149         2.7252 
 140   0.0000       0.100859         2.7445 
 141   0.0000       0.104178         2.8348 
 142   0.0000       0.106600         2.9007 
 143   0.0000       0.112920         3.0727 
 144   0.0000       0.131258         3.5717 
 145   0.0000       0.136611         3.7174 
 146   0.0000       0.142008         3.8642 
 147   0.0000       0.143102         3.8940 
 148   0.0000       0.147054         4.0015 
 149   0.0000       0.158078         4.3015 
 150   0.0000       0.159534         4.3411 
 151   0.0000       0.166966         4.5434 
 152   0.0000       0.167869         4.5680 
 153   0.0000       0.172838         4.7032 
 154   0.0000       0.212364         5.7787 
 155   0.0000       0.213076         5.7981 
 156   0.0000       0.226717         6.1693 
 157   0.0000       0.229872         6.2551 
 158   0.0000       0.233740         6.3604 
 159   0.0000       0.245378         6.6771 
 160   0.0000       0.246173         6.6987 
 161   0.0000       0.249737         6.7957 
 162   0.0000       0.261342         7.1115 
 163   0.0000       0.262089         7.1318 
 164   0.0000       0.264596         7.2000 
 165   0.0000       0.277186         7.5426 
 166   0.0000       0.279585         7.6079 
 167   0.0000       0.282562         7.6889 
 168   0.0000       0.284836         7.7508 
 169   0.0000       0.290417         7.9026 
 170   0.0000       0.295703         8.0465 
 171   0.0000       0.302862         8.2413 
 172   0.0000       0.305069         8.3014 
 173   0.0000       0.312108         8.4929 
 174   0.0000       0.318785         8.6746 
 175   0.0000       0.320902         8.7322 
 176   0.0000       0.328553         8.9404 
 177   0.0000       0.334620         9.1055 
 178   0.0000       0.340450         9.2641 
 179   0.0000       0.346278         9.4227 
 180   0.0000       0.351336         9.5603 
 181   0.0000       0.353869         9.6293 
 182   0.0000       0.365068         9.9340 
 183   0.0000       0.366994         9.9864 
 184   0.0000       0.370870        10.0919 
 185   0.0000       0.371599        10.1117 
 186   0.0000       0.376503        10.2452 
 187   0.0000       0.380559        10.3555 
 188   0.0000       0.387161        10.5352 
 189   0.0000       0.390953        10.6384 
 190   0.0000       0.394369        10.7313 
 191   0.0000       0.405665        11.0387 
 192   0.0000       0.419976        11.4281 
 193   0.0000       0.426077        11.5942 
 194   0.0000       0.429214        11.6795 
 195   0.0000       0.438527        11.9329 
 196   0.0000       0.439690        11.9646 
 197   0.0000       0.445270        12.1164 
 198   0.0000       0.447044        12.1647 
 199   0.0000       0.453346        12.3362 
 200   0.0000       0.459588        12.5060 
 201   0.0000       0.464798        12.6478 
 202   0.0000       0.468079        12.7371 
 203   0.0000       0.481271        13.0960 
 204   0.0000       0.489889        13.3306 
 205   0.0000       0.502140        13.6639 
 206   0.0000       0.503033        13.6882 
 207   0.0000       0.505342        13.7510 
 208   0.0000       0.513635        13.9767 
 209   0.0000       0.518692        14.1143 
 210   0.0000       0.525138        14.2897 
 211   0.0000       0.527631        14.3576 
 212   0.0000       0.540559        14.7093 
 213   0.0000       0.542086        14.7509 
 214   0.0000       0.549947        14.9648 
 215   0.0000       0.555000        15.1023 
 216   0.0000       0.555957        15.1284 
 217   0.0000       0.566189        15.4068 
 218   0.0000       0.574779        15.6405 
 219   0.0000       0.635762        17.3000 
 220   0.0000       0.639410        17.3992 
 221   0.0000       0.642297        17.4778 
 222   0.0000       0.646427        17.5902 
 223   0.0000       0.677611        18.4387 
 224   0.0000       0.695222        18.9179 
 225   0.0000       0.707952        19.2644 
 226   0.0000       0.723888        19.6980 
 227   0.0000       0.735812        20.0225 
 228   0.0000       0.740635        20.1537 
 229   0.0000       0.742328        20.1998 
 230   0.0000       0.766708        20.8632 
 231   0.0000       0.775074        21.0908 
 232   0.0000       0.775835        21.1115 
 233   0.0000       0.786826        21.4106 
 234   0.0000       0.813001        22.1229 
 235   0.0000       0.824995        22.4493 
 236   0.0000       0.850638        23.1470 
 237   0.0000       0.862131        23.4598 
 238   0.0000       0.871701        23.7202 
 239   0.0000       0.892066        24.2743 
 240   0.0000       0.903587        24.5879 
 241   0.0000       0.921674        25.0800 
 242   0.0000       0.924390        25.1539 
 243   0.0000       0.935903        25.4672 
 244   0.0000       0.967348        26.3229 
 245   0.0000       0.981531        26.7088 
 246   0.0000       1.017742        27.6942 
 247   0.0000       1.053663        28.6716 
 248   0.0000       1.113828        30.3088 
 249   0.0000       1.216374        33.0992 
 250   0.0000       1.229128        33.4463 
 251   0.0000       1.241652        33.7871 
 252   0.0000       1.271200        34.5911 
 253   0.0000       1.273804        34.6620 
 254   0.0000       1.276501        34.7354 
 255   0.0000       1.281568        34.8732 
 256   0.0000       1.296940        35.2915 
 257   0.0000       1.317054        35.8389 
 258   0.0000       1.332088        36.2480 
 259   0.0000       1.336724        36.3741 
 260   0.0000       1.343916        36.5698 
 261   0.0000       1.365374        37.1537 
 262   0.0000       1.367444        37.2100 
 263   0.0000       1.371918        37.3318 
 264   0.0000       1.379983        37.5513 
 265   0.0000       1.382472        37.6190 
 266   0.0000       1.390242        37.8304 
 267   0.0000       1.397322        38.0231 
 268   0.0000       1.402338        38.1595 
 269   0.0000       1.406732        38.2791 
 270   0.0000       1.416249        38.5381 
 271   0.0000       1.424477        38.7620 
 272   0.0000       1.426125        38.8068 
 273   0.0000       1.429624        38.9021 
 274   0.0000       1.433474        39.0068 
 275   0.0000       1.435268        39.0556 
 276   0.0000       1.436880        39.0995 
 277   0.0000       1.444052        39.2947 
 278   0.0000       1.447503        39.3886 
 279   0.0000       1.449294        39.4373 
 280   0.0000       1.450952        39.4824 
 281   0.0000       1.453072        39.5401 
 282   0.0000       1.457618        39.6638 
 283   0.0000       1.461305        39.7641 
 284   0.0000       1.465827        39.8872 
 285   0.0000       1.467653        39.9369 
 286   0.0000       1.469745        39.9938 
 287   0.0000       1.471033        40.0288 
 288   0.0000       1.476747        40.1843 
 289   0.0000       1.483791        40.3760 
 290   0.0000       1.486009        40.4364 
 291   0.0000       1.487639        40.4807 
 292   0.0000       1.491302        40.5804 
 293   0.0000       1.493917        40.6516 
 294   0.0000       1.495391        40.6917 
 295   0.0000       1.497365        40.7454 
 296   0.0000       1.498554        40.7777 
 297   0.0000       1.501084        40.8466 
 298   0.0000       1.502260        40.8786 
 299   0.0000       1.504558        40.9411 
 300   0.0000       1.504960        40.9520 
 301   0.0000       1.506743        41.0006 
 302   0.0000       1.510563        41.1045 
 303   0.0000       1.510811        41.1112 
 304   0.0000       1.513241        41.1774 
 305   0.0000       1.516392        41.2631 
 306   0.0000       1.518544        41.3217 
 307   0.0000       1.520004        41.3614 
 308   0.0000       1.520974        41.3878 
 309   0.0000       1.526151        41.5287 
 310   0.0000       1.527117        41.5550 
 311   0.0000       1.528538        41.5936 
 312   0.0000       1.530595        41.6496 
 313   0.0000       1.533700        41.7341 
 314   0.0000       1.535007        41.7697 
 315   0.0000       1.539456        41.8907 
 316   0.0000       1.540419        41.9169 
 317   0.0000       1.541995        41.9598 
 318   0.0000       1.547473        42.1089 
 319   0.0000       1.550768        42.1985 
 320   0.0000       1.551821        42.2272 
 321   0.0000       1.553884        42.2833 
 322   0.0000       1.554883        42.3105 
 323   0.0000       1.559935        42.4480 
 324   0.0000       1.560572        42.4653 
 325   0.0000       1.564079        42.5608 
 326   0.0000       1.567980        42.6669 
 327   0.0000       1.569058        42.6962 
 328   0.0000       1.570494        42.7353 
 329   0.0000       1.572377        42.7866 
 330   0.0000       1.574071        42.8327 
 331   0.0000       1.575137        42.8616 
 332   0.0000       1.578641        42.9570 
 333   0.0000       1.583165        43.0801 
 334   0.0000       1.584893        43.1271 
 335   0.0000       1.589492        43.2523 
 336   0.0000       1.596719        43.4489 
 337   0.0000       1.597851        43.4797 
 338   0.0000       1.600928        43.5635 
 339   0.0000       1.602422        43.6041 
 340   0.0000       1.602504        43.6063 
 341   0.0000       1.608731        43.7758 
 342   0.0000       1.611395        43.8483 
 343   0.0000       1.613486        43.9052 
 344   0.0000       1.614395        43.9299 
 345   0.0000       1.621620        44.1265 
 346   0.0000       1.621953        44.1356 
 347   0.0000       1.631519        44.3959 
 348   0.0000       1.644980        44.7622 
 349   0.0000       1.657580        45.1051 
 350   0.0000       1.663470        45.2653 
 351   0.0000       1.667009        45.3616 
 352   0.0000       1.668213        45.3944 
 353   0.0000       1.680240        45.7217 
 354   0.0000       1.685482        45.8643 
 355   0.0000       1.709534        46.5188 
 356   0.0000       1.728038        47.0223 
 357   0.0000       1.758987        47.8645 
 358   0.0000       1.782663        48.5087 
 359   0.0000       1.788493        48.6674 
 360   0.0000       1.796140        48.8754 
 361   0.0000       1.827381        49.7256 
 362   0.0000       1.842063        50.1251 
 363   0.0000       1.845626        50.2220 
 364   0.0000       1.855592        50.4932 
 365   0.0000       1.860031        50.6140 
 366   0.0000       1.912139        52.0320 
 367   0.0000       1.926518        52.4232 
 368   0.0000       1.954279        53.1786 
 369   0.0000       1.956525        53.2398 
 370   0.0000       1.961387        53.3721 
 371   0.0000       2.098011        57.0898 
 372   0.0000       2.181444        59.3601 
 373   0.0000       2.236802        60.8665 
 374   0.0000       2.249586        61.2143 
 375   0.0000       2.263875        61.6032 
 376   0.0000       2.297928        62.5298 
 377   0.0000       2.347269        63.8724 
 378   0.0000       2.372255        64.5523 
 379   0.0000       2.384354        64.8816 
 380   0.0000       2.400016        65.3077 
 381   0.0000       2.461287        66.9750 
 382   0.0000       2.463977        67.0482 
 383   0.0000       2.479768        67.4779 
 384   0.0000       2.499151        68.0054 
 385   0.0000       2.562206        69.7212 
 386   0.0000       2.668430        72.6117 
 387   0.0000       2.892043        78.6965 
 388   0.0000       2.938421        79.9585 
 389   0.0000       2.948686        80.2378 
 390   0.0000       2.964324        80.6634 
 391   0.0000       2.965323        80.6906 
 392   0.0000       2.977093        81.0108 
 393   0.0000       2.990935        81.3875 
 394   0.0000       3.010938        81.9318 
 395   0.0000      23.397625       636.6817 
 396   0.0000      23.783440       647.1803 
 397   0.0000      23.838069       648.6668 
 398   0.0000      23.986085       652.6946 
 399   0.0000      24.047732       654.3721 
 400   0.0000      24.150424       657.1665 
 401   0.0000      24.683866       671.6821 
 402   0.0000      24.748917       673.4523 
 403   0.0000      24.996918       680.2007 
 404   0.0000      25.122853       683.6276 
 405   0.0000      25.244330       686.9331 
 406   0.0000      25.550009       695.2511 
 407   0.0000      25.563411       695.6158 
 408   0.0000      25.707852       699.5462 
 409   0.0000      25.874162       704.0717 
 410   0.0000      26.224062       713.5930 
 411   0.0000      26.393014       718.1904 
 412   0.0000      26.475949       720.4472 
 413   0.0000      26.525030       721.7828 
 414   0.0000      26.763305       728.2666 
 415   0.0000      26.992203       734.4952 
 416   0.0000      27.189346       739.8597 
 417   0.0000      27.403429       745.6852 
 418   0.0000      27.507468       748.5162 
 419   0.0000      27.623068       751.6619 
 420   0.0000      27.816594       756.9280 
 421   0.0000      27.916662       759.6510 
 422   0.0000      28.288215       769.7615 
 423   0.0000      28.441256       773.9259 
 424   0.0000      28.811777       784.0083 
 425   0.0000      43.900152      1194.5839 
 426   0.0000      43.962447      1196.2790 
 427   0.0000      43.970312      1196.4930 
 428   0.0000      44.026024      1198.0090 
 429   0.0000      44.059981      1198.9330 
 430   0.0000      44.095151      1199.8901 
 431   0.0000      44.109196      1200.2722 
 432   0.0000      44.132393      1200.9035 
 433   0.0000      44.154488      1201.5047 
 434   0.0000      44.188603      1202.4330 
 435   0.0000     205.093496      5580.8778 
 436   0.0000     205.118760      5581.5652 
 437   0.0000     205.122283      5581.6611 
 438   0.0000     205.142443      5582.2097 
 439   0.0000     205.159298      5582.6683 
 440   0.0000     205.176151      5583.1269 
 441   0.0000     205.179223      5583.2105 
 442   0.0000     205.185085      5583.3700 
 443   0.0000     205.200988      5583.8028 
 444   0.0000     205.206838      5583.9619 

                    ********************************
                    * MULLIKEN POPULATION ANALYSIS *
                    ********************************

--------------------------------------------
MULLIKEN ATOMIC CHARGES AND SPIN POPULATIONS
--------------------------------------------
   0 Au:    0.426808    0.193377
   1 Au:    0.226594   -0.037803
   2 Au:    0.285358    0.081618
   3 Au:    0.287828   -0.013286
   4 Au:    0.272300    0.085273
   5 Au:    0.245169    0.032635
   6 Au:    0.348038    0.125818
   7 Au:    0.240657   -0.043797
   8 Au:    0.035404    0.018764
   9 Au:    0.285564   -0.016514
  10 Cr:   -2.653718    3.573915
Sum of atomic charges         :   -0.0000000
Sum of atomic spin populations:    4.0000000

-----------------------------------------------------
MULLIKEN REDUCED ORBITAL CHARGES AND SPIN POPULATIONS
-----------------------------------------------------
CHARGE
  0 Aus       :     2.788274  s :     2.788274
      pz      :     2.036447  p :     6.054449
      px      :     2.021276
      py      :     1.996726
      dz2     :     1.957697  d :     9.727708
      dxz     :     1.963732
      dyz     :     1.921936
      dx2y2   :     1.922924
      dxy     :     1.961420
      f0      :     0.000383  f :     0.002761
      f+1     :     0.000607
      f-1     :     0.000320
[...]
      f-1     :     0.000014
      f+2     :     0.000019
      f-2     :     0.000019
      f+3     :     0.000019
      f-3     :     0.000038
  8 Aus       :    -0.043738  s :    -0.043738
      pz      :     0.002096  p :    -0.004486
      px      :     0.000772
      py      :    -0.007354
      dz2     :     0.000441  d :     0.018785
      dxz     :     0.010583
      dyz     :    -0.003086
      dx2y2   :     0.009615
      dxy     :     0.001232
      f0      :     0.000019  f :     0.000188
      f+1     :     0.000038
      f-1     :    -0.000003
      f+2     :     0.000071
      f-2     :    -0.000000
      f+3     :     0.000073
      f-3     :    -0.000009
  9 Aus       :    -0.158123  s :    -0.158123
      pz      :    -0.005220  p :    -0.016449
      px      :    -0.004653
      py      :    -0.006576
      dz2     :     0.003863  d :     0.001616
      dxz     :     0.001579
      dyz     :    -0.001239
      dx2y2   :     0.002555
      dxy     :    -0.005142
      f0      :     0.000028  f :     0.000229
      f+1     :     0.000025
      f-1     :     0.000025
      f+2     :     0.000009
      f-2     :     0.000069
      f+3     :     0.000011
      f-3     :     0.000062
 10 Crs       :    -0.038036  s :    -0.038036
      pz      :     0.032132  p :     0.087392
      px      :     0.025020
      py      :     0.030240
      dz2     :     0.751937  d :     2.998900
      dxz     :     0.645632
      dyz     :     0.401483
      dx2y2   :     0.676785
      dxy     :     0.523064
      f0      :     0.000008  f :     0.000080
      f+1     :     0.000009
      f-1     :     0.000014
      f+2     :     0.000014
      f-2     :     0.000016
      f+3     :     0.000007
      f-3     :     0.000012


                     *******************************
                     * LOEWDIN POPULATION ANALYSIS *
                     *******************************

-------------------------------------------
LOEWDIN ATOMIC CHARGES AND SPIN POPULATIONS
-------------------------------------------
   0 Au:    0.177272   -0.067970
   1 Au:   -0.003570   -0.109388
   2 Au:    0.129567   -0.098406
   3 Au:    0.091691   -0.141601
   4 Au:    0.130498   -0.098652
   5 Au:    0.120716   -0.082411
   6 Au:    0.152432   -0.115781
   7 Au:   -0.003461   -0.109837
   8 Au:    0.051101   -0.028574
   9 Au:    0.090163   -0.144999
  10 Cr:   -0.936409    2.997621

----------------------------------------------------
LOEWDIN REDUCED ORBITAL CHARGES AND SPIN POPULATIONS
----------------------------------------------------
CHARGE
  0 Aus       :     2.694888  s :     2.694888
      pz      :     2.121711  p :     6.287139
      px      :     2.092869
      py      :     2.072559
      dz2     :     1.987717  d :     9.837154
      dxz     :     1.985250
      dyz     :     1.948478
      dx2y2   :     1.944333
      dxy     :     1.971376
      f0      :     0.000460  f :     0.003546
      f+1     :     0.000826
      f-1     :     0.000419
      f+2     :     0.000484
      f-2     :     0.000375
      f+3     :     0.000472
      f-3     :     0.000510
  1 Aus       :     2.544093  s :     2.544093
      pz      :     2.200708  p :     6.580606
      px      :     2.196095
      py      :     2.183803
      dz2     :     1.996286  d :     9.872017
      dxz     :     1.945733
      dyz     :     1.961343
      dx2y2   :     1.984896
      dxy     :     1.983758
      f0      :     0.000755  f :     0.006855
      f+1     :     0.000951
      f-1     :     0.001137
      f+2     :     0.000772
      f-2     :     0.001281
      f+3     :     0.001096
      f-3     :     0.000863
  2 Aus       :     2.689219  s :     2.689219
      pz      :     2.069263  p :     6.338094
      px      :     2.093410
      py      :     2.175422
      dz2     :     1.950697  d :     9.838354
      dxz     :     1.969032
      dyz     :     1.975723
      dx2y2   :     1.979068
      dxy     :     1.963835
      f0      :     0.000615  f :     0.004766
      f+1     :     0.000509
      f-1     :     0.000739
      f+2     :     0.000584
      f-2     :     0.001025
      f+3     :     0.000756
      f-3     :     0.000537
  3 Aus       :     2.659446  s :     2.659446
      pz      :     2.198364  p :     6.393336
      px      :     2.116432
      py      :     2.078539
      dz2     :     1.972512  d :     9.850355
      dxz     :     1.969284
      dyz     :     1.964711
      dx2y2   :     1.961096
      dxy     :     1.982752
      f0      :     0.000676  f :     0.005172
      f+1     :     0.000989
      f-1     :     0.000733
      f+2     :     0.000716
      f-2     :     0.001060
      f+3     :     0.000539
      f-3     :     0.000460
  4 Aus       :     2.692352  s :     2.692352
      pz      :     2.070837  p :     6.334378
      px      :     2.094393
      py      :     2.169147
      dz2     :     1.959866  d :     9.838007
      dxz     :     1.963844
      dyz     :     1.974828
      dx2y2   :     1.983591
      dxy     :     1.955879
      f0      :     0.000530  f :     0.004765
      f+1     :     0.000479
      f-1     :     0.000581
      f+2     :     0.000767
      f-2     :     0.000638
      f+3     :     0.000786
      f-3     :     0.000983
  5 Aus       :     2.636538  s :     2.636538
      pz      :     2.097717  p :     6.390925
      px      :     2.194391
      py      :     2.098818
      dz2     :     1.982842  d :     9.846798
      dxz     :     1.986873
      dyz     :     1.957158
      dx2y2   :     1.982756
      dxy     :     1.937169
      f0      :     0.000496  f :     0.005023
      f+1     :     0.000859
      f-1     :     0.000593
      f+2     :     0.000482
      f-2     :     0.000667
      f+3     :     0.001033
      f-3     :     0.000895
  6 Aus       :     2.719208  s :     2.719208
      pz      :     2.072937  p :     6.244434
      px      :     2.083623
      py      :     2.087875
      dz2     :     1.972915  d :     9.879431
      dxz     :     1.982412
      dyz     :     1.975263
      dx2y2   :     1.964084
      dxy     :     1.984757
      f0      :     0.000481  f :     0.004495
      f+1     :     0.000602
      f-1     :     0.000544
      f+2     :     0.000610
      f-2     :     0.000583
      f+3     :     0.000979
      f-3     :     0.000697
  7 Aus       :     2.545981  s :     2.545981
      pz      :     2.170712  p :     6.579704
      px      :     2.297223
      py      :     2.111769
      dz2     :     2.006089  d :     9.870980
      dxz     :     1.975020
      dyz     :     1.964107
      dx2y2   :     1.943051
      dxy     :     1.982713
      f0      :     0.000779  f :     0.006796
      f+1     :     0.001294
      f-1     :     0.000664
      f+2     :     0.000764
      f-2     :     0.000799
      f+3     :     0.001364
      f-3     :     0.001132
  8 Aus       :     2.594468  s :     2.594468
      pz      :     2.094284  p :     6.474341
      px      :     2.112120
      py      :     2.267937
      dz2     :     1.989109  d :     9.873779
      dxz     :     1.967962
      dyz     :     1.985975
      dx2y2   :     1.960810
      dxy     :     1.969923
      f0      :     0.000668  f :     0.006311
      f+1     :     0.000590
      f-1     :     0.001087
      f+2     :     0.000543
      f-2     :     0.000659
      f+3     :     0.001639
      f-3     :     0.001126
  9 Aus       :     2.657937  s :     2.657937
      pz      :     2.119085  p :     6.393927
      px      :     2.110799
      py      :     2.164043
      dz2     :     1.983247  d :     9.852792
      dxz     :     1.975006
      dyz     :     1.955349
      dx2y2   :     1.983574
      dxy     :     1.955616
      f0      :     0.000570  f :     0.005181
      f+1     :     0.000887
      f-1     :     0.000690
      f+2     :     0.000679
      f-2     :     0.000587
      f+3     :     0.000933
      f-3     :     0.000834
 10 Crs       :     6.308224  s :     6.308224
      pz      :     4.214890  p :    12.632096
      px      :     4.182344
      py      :     4.234863
      dz2     :     1.141556  d :     5.994143
      dxz     :     1.225956
      dyz     :     1.310423
      dx2y2   :     1.258735
      dxy     :     1.057472
      f0      :     0.000285  f :     0.001945
      f+1     :     0.000205
      f-1     :     0.000253
      f+2     :     0.000332
      f-2     :     0.000379
      f+3     :     0.000248
      f-3     :     0.000244

SPIN
  0 Aus       :    -0.065106  s :    -0.065106
      pz      :    -0.008383  p :    -0.013468
      px      :     0.000545
      py      :    -0.005630
      dz2     :     0.000057  d :     0.010011
      dxz     :    -0.000247
      dyz     :     0.005024
      dx2y2   :     0.000469
      dxy     :     0.004709
      f0      :     0.000040  f :     0.000592
      f+1     :    -0.000013
      f-1     :     0.000161
      f+2     :     0.000111
      f-2     :     0.000113
      f+3     :     0.000118
      f-3     :     0.000061
  1 Aus       :    -0.056615  s :    -0.056615
      pz      :    -0.011472  p :    -0.044361
      px      :    -0.009993
      py      :    -0.022896
      dz2     :     0.000742  d :    -0.008646
      dxz     :    -0.005571
      dyz     :    -0.004858
      dx2y2   :     0.002207
      dxy     :    -0.001165
      f0      :     0.000046  f :     0.000233
      f+1     :     0.000012
      f-1     :    -0.000028
      f+2     :     0.000024
      f-2     :     0.000099
      f+3     :     0.000020
      f-3     :     0.000060
  2 Aus       :    -0.062011  s :    -0.062011
      pz      :    -0.002356  p :    -0.051716
      px      :    -0.013864
      py      :    -0.035495
      dz2     :     0.007692  d :     0.014844
      dxz     :     0.002149
      dyz     :     0.002083
      dx2y2   :    -0.000182
      dxy     :     0.003102
      f0      :     0.000188  f :     0.000477
      f+1     :     0.000109
      f-1     :     0.000099
      f+2     :     0.000031
      f-2     :     0.000107
      f+3     :    -0.000060
      f-3     :     0.000002
  3 Aus       :    -0.101804  s :    -0.101804
      pz      :    -0.031902  p :    -0.048116
      px      :    -0.010140
      py      :    -0.006074
      dz2     :     0.000267  d :     0.007916
      dxz     :    -0.002667
      dyz     :     0.001452
      dx2y2   :     0.005282
      dxy     :     0.003581
      f0      :     0.000058  f :     0.000403
      f+1     :    -0.000020
      f-1     :     0.000054
      f+2     :     0.000059
      f-2     :     0.000057
      f+3     :     0.000087
      f-3     :     0.000108
  4 Aus       :    -0.062008  s :    -0.062008
      pz      :    -0.003802  p :    -0.051920
      px      :    -0.014773
      py      :    -0.033345
      dz2     :     0.013681  d :     0.014800
      dxz     :     0.003532
      dyz     :     0.000515
      dx2y2   :    -0.003747
      dxy     :     0.000819
      f0      :     0.000100  f :     0.000476
      f+1     :     0.000112
      f-1     :     0.000051
      f+2     :     0.000058
      f-2     :     0.000116
      f+3     :    -0.000019
      f-3     :     0.000056
  5 Aus       :    -0.043550  s :    -0.043550
      pz      :    -0.005485  p :    -0.037495
      px      :    -0.025463
      py      :    -0.006547
      dz2     :     0.003078  d :    -0.001857
      dxz     :    -0.004292
      dyz     :     0.003589
      dx2y2   :    -0.000108
      dxy     :    -0.004124
      f0      :     0.000036  f :     0.000491
      f+1     :    -0.000005
      f-1     :     0.000154
      f+2     :     0.000076
      f-2     :     0.000102
      f+3     :     0.000111
      f-3     :     0.000017
  6 Aus       :    -0.058764  s :    -0.058764
      pz      :    -0.016015  p :    -0.036059
      px      :    -0.006791
      py      :    -0.013253
      dz2     :    -0.005783  d :    -0.020883
      dxz     :    -0.005692
      dyz     :    -0.001078
      dx2y2   :    -0.006554
      dxy     :    -0.001776
      f0      :    -0.000001  f :    -0.000075
      f+1     :    -0.000025
      f-1     :    -0.000010
      f+2     :    -0.000009
      f-2     :    -0.000003
      f+3     :    -0.000021
      f-3     :    -0.000006
  7 Aus       :    -0.056238  s :    -0.056238
      pz      :    -0.021759  p :    -0.044533
      px      :    -0.009527
      py      :    -0.013247
      dz2     :    -0.002070  d :    -0.009304
      dxz     :    -0.003827
      dyz     :     0.002386
      dx2y2   :    -0.009688
      dxy     :     0.003894
      f0      :     0.000052  f :     0.000238
      f+1     :    -0.000005
      f-1     :     0.000039
      f+2     :     0.000020
      f-2     :     0.000039
      f+3     :     0.000029
      f-3     :     0.000064
  8 Aus       :    -0.023502  s :    -0.023502
      pz      :    -0.001540  p :    -0.023266
      px      :     0.001138
      py      :    -0.022864
      dz2     :    -0.001256  d :     0.017856
      dxz     :     0.013293
      dyz     :    -0.005163
      dx2y2   :     0.010231
      dxy     :     0.000751
      f0      :     0.000039  f :     0.000337
      f+1     :     0.000075
      f-1     :    -0.000013
      f+2     :     0.000129
      f-2     :    -0.000001
      f+3     :     0.000121
      f-3     :    -0.000013
  9 Aus       :    -0.103942  s :    -0.103942
      pz      :    -0.014100  p :    -0.048726
      px      :    -0.013067
      py      :    -0.021559
      dz2     :     0.004858  d :     0.007280
      dxz     :     0.002657
      dyz     :     0.000427
      dx2y2   :     0.002820
      dxy     :    -0.003483
      f0      :     0.000048  f :     0.000390
      f+1     :     0.000051
      f-1     :     0.000035
      f+2     :     0.000005
      f-2     :     0.000117
      f+3     :     0.000031
      f-3     :     0.000103
 10 Crs       :     0.021405  s :     0.021405
      pz      :     0.014699  p :     0.038938
      px      :     0.011638
      py      :     0.012601
      dz2     :     0.742300  d :     2.937240
      dxz     :     0.620911
      dyz     :     0.395735
      dx2y2   :     0.673305
      dxy     :     0.504989
      f0      :    -0.000000  f :     0.000039
      f+1     :     0.000004
      f-1     :     0.000010
      f+2     :     0.000007
      f-2     :     0.000008
      f+3     :     0.000001
      f-3     :     0.000008


                      *****************************
                      * MAYER POPULATION ANALYSIS *
                      *****************************

  NA   - Mulliken gross atomic population
  ZA   - Total nuclear charge
  QA   - Mulliken gross atomic charge
  VA   - Mayer's total valence
  BVA  - Mayer's bonded valence
  FA   - Mayer's free valence

  ATOM       NA         ZA         QA         VA         BVA        FA
  0 Au    18.5990    19.0000     0.4010     1.5465     1.5361     0.0104
  1 Au    18.7567    19.0000     0.2433     2.0034     1.9895     0.0139
  2 Au    18.7608    19.0000     0.2392     1.6392     1.6280     0.0112
  3 Au    18.6738    19.0000     0.3262     1.6582     1.6277     0.0304
  4 Au    18.7734    19.0000     0.2266     1.6373     1.6261     0.0111
  5 Au    18.7517    19.0000     0.2483     1.7664     1.7567     0.0097
  6 Au    18.6014    19.0000     0.3986     1.4099     1.4002     0.0098
  7 Au    18.7440    19.0000     0.2560     1.9957     1.9821     0.0136
  8 Au    18.9697    19.0000     0.0303     1.8948     1.8902     0.0045
  9 Au    18.6724    19.0000     0.3276     1.6513     1.6194     0.0319
 10 Cr    26.6971    24.0000    -2.6971     8.8178     6.2957     2.5220

  Mayer bond orders larger than 0.100000
B(  0-Au,  1-Au) :   0.1755 B(  0-Au,  7-Au) :   0.1798 B(  0-Au, 10-Cr) :   0.8903 
B(  1-Au,  2-Au) :   0.3710 B(  1-Au,  6-Au) :   0.3587 B(  1-Au,  7-Au) :   0.1107 
B(  1-Au,  8-Au) :   0.2082 B(  1-Au, 10-Cr) :   0.5989 B(  2-Au,  3-Au) :   0.3416 
B(  2-Au, 10-Cr) :   0.7036 B(  3-Au,  5-Au) :   0.1203 B(  3-Au,  9-Au) :   0.2510 
B(  3-Au, 10-Cr) :   0.6587 B(  4-Au,  7-Au) :   0.3703 B(  4-Au,  9-Au) :   0.3438 
B(  4-Au, 10-Cr) :   0.7044 B(  5-Au,  8-Au) :   0.5190 B(  5-Au,  9-Au) :   0.1199 
B(  5-Au, 10-Cr) :   0.8090 B(  6-Au,  7-Au) :   0.3521 B(  6-Au,  8-Au) :   0.3615 
B(  6-Au, 10-Cr) :   0.1940 B(  7-Au,  8-Au) :   0.1957 B(  7-Au, 10-Cr) :   0.6054 
B(  8-Au, 10-Cr) :   0.4818 B(  9-Au, 10-Cr) :   0.6496 

-------
TIMINGS
-------

Total SCF time: 0 days 0 hours 19 min 51 sec 

Total time                  ....    1191.520 sec
Sum of individual times     ....    1100.917 sec  ( 92.4%)

Fock matrix formation       ....     433.826 sec  ( 36.4%)
  Split-RI-J                ....     153.508 sec  ( 35.4% of F)
  XC integration            ....     165.569 sec  ( 38.2% of F)
    Basis function eval.    ....      21.585 sec  ( 13.0% of XC)
    Density eval.           ....      49.453 sec  ( 29.9% of XC)
    XC-Functional eval.     ....       3.865 sec  (  2.3% of XC)
    XC-Potential eval.      ....      54.852 sec  ( 33.1% of XC)
Diagonalization             ....     261.357 sec  ( 21.9%)
Density matrix formation    ....      12.594 sec  (  1.1%)
Population analysis         ....       4.240 sec  (  0.4%)
Initial guess               ....       0.836 sec  (  0.1%)
Orbital Transformation      ....       0.000 sec  (  0.0%)
Orbital Orthonormalization  ....       0.415 sec  (  0.0%)
DIIS solution               ....     379.293 sec  ( 31.8%)
Grid generation             ....       8.771 sec  (  0.7%)

Maximum memory used throughout the entire SCF-calculation: 63.6 MB

-------------------------   --------------------
FINAL SINGLE POINT ENERGY     -2402.480795907018
-------------------------   --------------------


                            ***************************************
                            *     ORCA property calculations      *
                            ***************************************

                                    ---------------------
                                    Active property flags
                                    ---------------------
   (+) Dipole Moment


------------------------------------------------------------------------------
                       ORCA ELECTRIC PROPERTIES CALCULATION
------------------------------------------------------------------------------

Dipole Moment Calculation                       ... on
Quadrupole Moment Calculation                   ... off
Polarizability Calculation                      ... off
GBWName                                         ... pbeSP_job2.gbw
Electron density                                ... pbeSP_job2.scfp
The origin for moment calculation is the CENTER OF MASS  = (16.690872, 12.706408 12.495702)

-------------
DIPOLE MOMENT
-------------
                                X             Y             Z
Electronic contribution:     20.38298     -10.25157      -6.45295
Nuclear contribution   :    -20.14076      10.01300       6.42954
                        -----------------------------------------
Total Dipole Moment    :      0.24222      -0.23856      -0.02341
                        -----------------------------------------
Magnitude (a.u.)       :      0.34078
Magnitude (Debye)      :      0.86620



--------------------
Rotational spectrum 
--------------------
 
Rotational constants in cm-1:     0.002151     0.001469     0.001354 
Rotational constants in MHz :    64.480668    44.026810    40.602947 

 Dipole components along the rotational axes: 
x,y,z [a.u.] :     0.336941     0.002107    -0.050966 
x,y,z [Debye]:     0.856437     0.005355    -0.129546 

 

Timings for individual modules:

Sum of individual times         ...     1222.463 sec (=  20.374 min)
GTO integral calculation        ...       29.360 sec (=   0.489 min)   2.4 %
SCF iterations                  ...     1193.102 sec (=  19.885 min)  97.6 %



                             ****ORCA TERMINATED NORMALLY****
TOTAL RUN TIME: 0 days 1 hours 0 minutes 7 seconds 865 msec
