
                                 *****************
                                 * O   R   C   A *
                                 *****************

                                            #,                                       
                                            ###                                      
                                            ####                                     
                                            #####                                    
                                            ######                                   
                                           ########,                                 
                                     ,,################,,,,,                         
                               ,,#################################,,                 
                          ,,##########################################,,             
                       ,#########################################, ''#####,          
                    ,#############################################,,   '####,        
                  ,##################################################,,,,####,       
                ,###########''''           ''''###############################       
              ,#####''   ,,,,##########,,,,          '''####'''          '####       
            ,##' ,,,,###########################,,,                        '##       
           ' ,,###''''                  '''############,,,                           
         ,,##''                                '''############,,,,        ,,,,,,###''
      ,#''                                            '''#######################'''  
     '                                                          ''''####''''         
             ,#######,   #######,   ,#######,      ##                                
            ,#'     '#,  ##    ##  ,#'     '#,    #''#        ######   ,####,        
            ##       ##  ##   ,#'  ##            #'  '#       #        #'  '#        
            ##       ##  #######   ##           ,######,      #####,   #    #        
            '#,     ,#'  ##    ##  '#,     ,#' ,#      #,         ##   #,  ,#        
             '#######'   ##     ##  '#######'  #'      '#     #####' # '####'        



                  #######################################################
                  #                        -***-                        #
                  #          Department of theory and spectroscopy      #
                  #    Directorship and core code : Frank Neese         #
                  #        Max Planck Institute fuer Kohlenforschung    #
                  #                Kaiser Wilhelm Platz 1               #
                  #                 D-45470 Muelheim/Ruhr               #
                  #                      Germany                        #
                  #                                                     #
                  #                  All rights reserved                #
                  #                        -***-                        #
                  #######################################################


                         Program Version 5.0.3 -  RELEASE  -


 With contributions from (in alphabetic order):
   Daniel Aravena         : Magnetic Suceptibility
   Michael Atanasov       : Ab Initio Ligand Field Theory (pilot matlab implementation)
   Alexander A. Auer      : GIAO ZORA, VPT2 properties, NMR spectrum
   Ute Becker             : Parallelization
   Giovanni Bistoni       : ED, misc. LED, open-shell LED, HFLD
   Martin Brehm           : Molecular dynamics
   Dmytro Bykov           : SCF Hessian
   Vijay G. Chilkuri      : MRCI spin determinant printing, contributions to CSF-ICE
   Dipayan Datta          : RHF DLPNO-CCSD density
   Achintya Kumar Dutta   : EOM-CC, STEOM-CC
   Dmitry Ganyushin       : Spin-Orbit,Spin-Spin,Magnetic field MRCI
   Miquel Garcia          : C-PCM and meta-GGA Hessian, CC/C-PCM, Gaussian charge scheme
   Yang Guo               : DLPNO-NEVPT2, F12-NEVPT2, CIM, IAO-localization
   Andreas Hansen         : Spin unrestricted coupled pair/coupled cluster methods
   Benjamin Helmich-Paris : MC-RPA, TRAH-SCF, COSX integrals
   Lee Huntington         : MR-EOM, pCC
   Robert Izsak           : Overlap fitted RIJCOSX, COSX-SCS-MP3, EOM
   Marcus Kettner         : VPT2
   Christian Kollmar      : KDIIS, OOCD, Brueckner-CCSD(T), CCSD density, CASPT2, CASPT2-K
   Simone Kossmann        : Meta GGA functionals, TD-DFT gradient, OOMP2, MP2 Hessian
   Martin Krupicka        : Initial AUTO-CI
   Lucas Lang             : DCDCAS
   Marvin Lechner         : AUTO-CI (C++ implementation), FIC-MRCC
   Dagmar Lenk            : GEPOL surface, SMD
   Dimitrios Liakos       : Extrapolation schemes; Compound Job, initial MDCI parallelization
   Dimitrios Manganas     : Further ROCIS development; embedding schemes
   Dimitrios Pantazis     : SARC Basis sets
   Anastasios Papadopoulos: AUTO-CI, single reference methods and gradients
   Taras Petrenko         : DFT Hessian,TD-DFT gradient, ASA, ECA, R-Raman, ABS, FL, XAS/XES, NRVS
   Peter Pinski           : DLPNO-MP2, DLPNO-MP2 Gradient
   Christoph Reimann      : Effective Core Potentials
   Marius Retegan         : Local ZFS, SOC
   Christoph Riplinger    : Optimizer, TS searches, QM/MM, DLPNO-CCSD(T), (RO)-DLPNO pert. Triples
   Tobias Risthaus        : Range-separated hybrids, TD-DFT gradient, RPA, STAB
   Michael Roemelt        : Original ROCIS implementation
   Masaaki Saitow         : Open-shell DLPNO-CCSD energy and density
   Barbara Sandhoefer     : DKH picture change effects
   Avijit Sen             : IP-ROCIS
   Kantharuban Sivalingam : CASSCF convergence, NEVPT2, FIC-MRCI
   Bernardo de Souza      : ESD, SOC TD-DFT
   Georgi Stoychev        : AutoAux, RI-MP2 NMR, DLPNO-MP2 response
   Willem Van den Heuvel  : Paramagnetic NMR
   Boris Wezisla          : Elementary symmetry handling
   Frank Wennmohs         : Technical directorship


 We gratefully acknowledge several colleagues who have allowed us to
 interface, adapt or use parts of their codes:
   Stefan Grimme, W. Hujo, H. Kruse, P. Pracht,  : VdW corrections, initial TS optimization,
                  C. Bannwarth, S. Ehlert          DFT functionals, gCP, sTDA/sTD-DF
   Ed Valeev, F. Pavosevic, A. Kumar             : LibInt (2-el integral package), F12 methods
   Garnet Chan, S. Sharma, J. Yang, R. Olivares  : DMRG
   Ulf Ekstrom                                   : XCFun DFT Library
   Mihaly Kallay                                 : mrcc  (arbitrary order and MRCC methods)
   Jiri Pittner, Ondrej Demel                    : Mk-CCSD
   Frank Weinhold                                : gennbo (NPA and NBO analysis)
   Christopher J. Cramer and Donald G. Truhlar   : smd solvation model
   Lars Goerigk                                  : TD-DFT with DH, B97 family of functionals
   V. Asgeirsson, H. Jonsson                     : NEB implementation
   FAccTs GmbH                                   : IRC, NEB, NEB-TS, DLPNO-Multilevel, CI-OPT
                                                   MM, QMMM, 2- and 3-layer-ONIOM, Crystal-QMMM,
                                                   LR-CPCM, SF, NACMEs, symmetry and pop. for TD-DFT,
                                                   nearIR, NL-DFT gradient (VV10), updates on ESD,
                                                   ML-optimized integration grids
   S Lehtola, MJT Oliveira, MAL Marques          : LibXC Library
   Liviu Ungur et al                             : ANISO software


 Your calculation uses the libint2 library for the computation of 2-el integrals
 For citations please refer to: http://libint.valeyev.net

 Your ORCA version has been built with support for libXC version: 5.1.0
 For citations please refer to: https://tddft.org/programs/libxc/

 This ORCA versions uses:
   CBLAS   interface :  Fast vector & matrix operations
   LAPACKE interface :  Fast linear algebra routines
   SCALAPACK package :  Parallel linear algebra routines
   Shared memory     :  Shared parallel matrices
   BLAS/LAPACK       :  OpenBLAS 0.3.15  USE64BITINT DYNAMIC_ARCH NO_AFFINITY Haswell SINGLE_THREADED
        Core in use  :  Haswell
   Copyright (c) 2011-2014, The OpenBLAS Project




***************************************
The coordinates will be read from file: pbe.xyz
***************************************


================================================================================

cite the ECPs for Au [Def2-ECP] as follows:
Ce-Yb(ecp-28): M. Dolg, H. Stoll, H.Preuss, J. Chem. Phys., 1989, 90, 1730-1734.
Y-Cd(ecp-28), Hf-Hg(ecp-46): D. Andrae,U. Haeussermann, M. Dolg, H. Stoll, H. Preuss, Theor. Chim. Acta, 1990, 77, 123-141.
In-Sb(ecp-28), Tl-Bi(ecp-46): B. Metz, H. Stoll, M. Dolg, J. Chem. Phys., 2000, 113, 2563-2569.
Te-Xe(ecp-28), Po-Rn(ecp-46): K. A. Peterson, D. Figgen, E. Goll, H. Stoll, M. Dolg, J. Chem. Phys., 2003, 119, 11113-11123.
Rb(ecp-28), Cs(ecp-46): T. Leininger, A. Nicklass, W. Kuechle, H. Stoll, M. Dolg, A. Bergner, Chem. Phys. Lett., 1996, 255, 274-280.
Sr(ecp-28), Ba(ecp-46): M. Kaupp, P. V. Schleyer, H. Stoll and H. Preuss, J. Chem. Phys., 1991, 94, 1360-1366.
La(ecp-46): M. Dolg, H. Stoll, A. Savin, H. Preuss, Theor. Chim. Acta, 1989, 75, 173-194.
Lu(ecp-28): X. Cao, M. Dolg, J. Chem. Phys., 2001, 115, 7348-7355.

ECP parameters for Au [Def2-ECP] have been obtained from:
TURBOMOLE (7.0.2)

----- Orbital basis set information -----
Your calculation utilizes the basis: def2-TZVP
   F. Weigend and R. Ahlrichs, Phys. Chem. Chem. Phys. 7, 3297 (2005).

----- AuxJ basis set information -----
Your calculation utilizes the auxiliary basis: def2/J
   F. Weigend, Phys. Chem. Chem. Phys. 8, 1057 (2006).

================================================================================
                                        WARNINGS
                       Please study these warnings very carefully!
================================================================================

Using LibXC functional ID 497 : Re-regularized SCAN exchange by Furness et al
[ 1]  J. W. Furness, A. D. Kaplan, J. Ning, J. P. Perdew, and J. Sun, J. Phys. Chem. Lett. 11, 8208 (2020)
[ 2]  J. W. Furness, A. D. Kaplan, J. Ning, J. P. Perdew, and J. Sun, J. Phys. Chem. Lett. 11, 9248 (2020)
Using LibXC functional ID 498 : Re-regularized SCAN correlation by Furness et al
[ 1]  J. W. Furness, A. D. Kaplan, J. Ning, J. P. Perdew, and J. Sun, J. Phys. Chem. Lett. 11, 8208 (2020)
[ 2]  J. W. Furness, A. D. Kaplan, J. Ning, J. P. Perdew, and J. Sun, J. Phys. Chem. Lett. 11, 9248 (2020)
Using LibXC functional ID 497 : Re-regularized SCAN exchange by Furness et al
[ 1]  J. W. Furness, A. D. Kaplan, J. Ning, J. P. Perdew, and J. Sun, J. Phys. Chem. Lett. 11, 8208 (2020)
[ 2]  J. W. Furness, A. D. Kaplan, J. Ning, J. P. Perdew, and J. Sun, J. Phys. Chem. Lett. 11, 9248 (2020)
Using LibXC functional ID 498 : Re-regularized SCAN correlation by Furness et al
[ 1]  J. W. Furness, A. D. Kaplan, J. Ning, J. P. Perdew, and J. Sun, J. Phys. Chem. Lett. 11, 8208 (2020)
[ 2]  J. W. Furness, A. D. Kaplan, J. Ning, J. P. Perdew, and J. Sun, J. Phys. Chem. Lett. 11, 9248 (2020)

WARNING: your system is open-shell and RHF/RKS was chosen
  ===> : WILL SWITCH to UHF/UKS


INFO   : the flag for use of the SHARK integral package has been found!



***************************************
The coordinates will be read from file: pbe.xyz
***************************************


================================================================================

cite the ECPs for Au [Def2-ECP] as follows:
Ce-Yb(ecp-28): M. Dolg, H. Stoll, H.Preuss, J. Chem. Phys., 1989, 90, 1730-1734.
Y-Cd(ecp-28), Hf-Hg(ecp-46): D. Andrae,U. Haeussermann, M. Dolg, H. Stoll, H. Preuss, Theor. Chim. Acta, 1990, 77, 123-141.
In-Sb(ecp-28), Tl-Bi(ecp-46): B. Metz, H. Stoll, M. Dolg, J. Chem. Phys., 2000, 113, 2563-2569.
Te-Xe(ecp-28), Po-Rn(ecp-46): K. A. Peterson, D. Figgen, E. Goll, H. Stoll, M. Dolg, J. Chem. Phys., 2003, 119, 11113-11123.
Rb(ecp-28), Cs(ecp-46): T. Leininger, A. Nicklass, W. Kuechle, H. Stoll, M. Dolg, A. Bergner, Chem. Phys. Lett., 1996, 255, 274-280.
Sr(ecp-28), Ba(ecp-46): M. Kaupp, P. V. Schleyer, H. Stoll and H. Preuss, J. Chem. Phys., 1991, 94, 1360-1366.
La(ecp-46): M. Dolg, H. Stoll, A. Savin, H. Preuss, Theor. Chim. Acta, 1989, 75, 173-194.
Lu(ecp-28): X. Cao, M. Dolg, J. Chem. Phys., 2001, 115, 7348-7355.

ECP parameters for Au [Def2-ECP] have been obtained from:
TURBOMOLE (7.0.2)

----- Orbital basis set information -----
Your calculation utilizes the basis: def2-TZVP
   F. Weigend and R. Ahlrichs, Phys. Chem. Chem. Phys. 7, 3297 (2005).

----- AuxJ basis set information -----
Your calculation utilizes the auxiliary basis: def2/J
   F. Weigend, Phys. Chem. Chem. Phys. 8, 1057 (2006).

================================================================================
                                        WARNINGS
                       Please study these warnings very carefully!
================================================================================

Using LibXC functional ID 497 : Re-regularized SCAN exchange by Furness et al
[ 1]  J. W. Furness, A. D. Kaplan, J. Ning, J. P. Perdew, and J. Sun, J. Phys. Chem. Lett. 11, 8208 (2020)
[ 2]  J. W. Furness, A. D. Kaplan, J. Ning, J. P. Perdew, and J. Sun, J. Phys. Chem. Lett. 11, 9248 (2020)
Using LibXC functional ID 498 : Re-regularized SCAN correlation by Furness et al
[ 1]  J. W. Furness, A. D. Kaplan, J. Ning, J. P. Perdew, and J. Sun, J. Phys. Chem. Lett. 11, 8208 (2020)
[ 2]  J. W. Furness, A. D. Kaplan, J. Ning, J. P. Perdew, and J. Sun, J. Phys. Chem. Lett. 11, 9248 (2020)
Using LibXC functional ID 497 : Re-regularized SCAN exchange by Furness et al
[ 1]  J. W. Furness, A. D. Kaplan, J. Ning, J. P. Perdew, and J. Sun, J. Phys. Chem. Lett. 11, 8208 (2020)
[ 2]  J. W. Furness, A. D. Kaplan, J. Ning, J. P. Perdew, and J. Sun, J. Phys. Chem. Lett. 11, 9248 (2020)
Using LibXC functional ID 498 : Re-regularized SCAN correlation by Furness et al
[ 1]  J. W. Furness, A. D. Kaplan, J. Ning, J. P. Perdew, and J. Sun, J. Phys. Chem. Lett. 11, 8208 (2020)
[ 2]  J. W. Furness, A. D. Kaplan, J. Ning, J. P. Perdew, and J. Sun, J. Phys. Chem. Lett. 11, 9248 (2020)

INFO   : the flag for use of the SHARK integral package has been found!

================================================================================
                                       INPUT FILE
================================================================================
NAME = scan.inp
|  1> !R2SCAN def2-TZVP VERYSLOWCONV
|  2> !KDIIS
|  3> %scf
|  4>   AutoTRAHIter 200
|  5>   maxiter 400
|  6> end
|  7> 
|  8> %pal nprocs 6 end 
|  9> 
| 10> *xyzfile 0 5 pbe.xyz
| 11> 
| 12> $new_job
| 13> 
| 14> !R2SCAN def2-TZVP VERYSLOWCONV
| 15> !KDIIS
| 16> %scf
| 17>   AutoTRAHIter 200
| 18>   maxiter 400
| 19> end
| 20> 
| 21> 
| 22> %pal nprocs 6 end 
| 23> 
| 24> *xyzfile 0 3 pbe.xyz
| 25> 
| 26> 
| 27> 
| 28> 
| 29> 
| 30>                          ****END OF INPUT****
================================================================================


                 $$$$$$$$$$$$$$$$$$$$$$$$$$$$$$$$$$$$$$$$$$$$$$ 
                 $ THERE ARE  2 JOBS TO BE PROCESSED THIS RUN $
                 $$$$$$$$$$$$$$$$$$$$$$$$$$$$$$$$$$$$$$$$$$$$$$ 




                 $$$$$$$$$$$$$$$$  JOB NUMBER  1 $$$$$$$$$$$$$$


                       ****************************
                       * Single Point Calculation *
                       ****************************

---------------------------------
CARTESIAN COORDINATES (ANGSTROEM)
---------------------------------
  Au     7.638730    4.821765    8.094755
  Au    10.323856    5.676245    8.099027
  Au     9.118204    7.780623    9.212727
  Au     7.594280    9.451161    7.761217
  Au     6.795274    5.941520    4.822461
  Au     9.229742    9.061005    5.422401
  Au    11.650139    4.402472    6.075279
  Au     8.958144    4.596186    5.616001
  Au    10.753887    6.919368    5.485708
  Au     6.410251    8.515380    5.487515
  Cr     8.271005    7.003054    6.791664

----------------------------
CARTESIAN COORDINATES (A.U.)
----------------------------
  NO LB      ZA    FRAG     MASS         X           Y           Z
   0 Au   19.0000*   0   196.966   14.435108    9.111816   15.296869
   1 Au   19.0000*   0   196.966   19.509261   10.726549   15.304944
   2 Au   19.0000*   0   196.966   17.230908   14.703247   17.409532
   3 Au   19.0000*   0   196.966   14.351109   17.860106   14.666574
   4 Au   19.0000*   0   196.966   12.841207   11.227846    9.113131
   5 Au   19.0000*   0   196.966   17.441685   17.122818   10.246853
   6 Au   19.0000*   0   196.966   22.015573    8.319467   11.480614
   7 Au   19.0000*   0   196.966   16.928438    8.685533   10.612703
   8 Au   19.0000*   0   196.966   20.321901   13.075710   10.366485
   9 Au   19.0000*   0   196.966   12.113618   16.091737   10.369900
  10 Cr   24.0000    0    52.000   15.629934   13.233854   12.834385
* core charge reduced due to ECP

--------------------------------
INTERNAL COORDINATES (ANGSTROEM)
--------------------------------
 Au     0   0   0     0.000000000000     0.00000000     0.00000000
 Au     1   0   0     2.817810502101     0.00000000     0.00000000
 Au     2   1   0     2.668769873373    79.00371435     0.00000000
 Au     3   2   1     2.686991486055   121.40072296   287.60017917
 Au     1   2   3     3.559939773260    97.57271422    93.16156409
 Au     4   3   2     2.880454246253    91.85640272   327.44112868
 Au     2   1   3     2.734425427957   108.65151976   206.23410340
 Au     5   1   2     2.667889120760    51.38370194    46.02202137
 Au     6   4   3     2.629379584313   114.82784477    18.19355826
 Au     5   1   2     2.686130170428    96.18706931   279.84815897
 Cr     1   2   3     2.618365045317    61.18555210    59.84556289

---------------------------
INTERNAL COORDINATES (A.U.)
---------------------------
 Au     0   0   0     0.000000000000     0.00000000     0.00000000
 Au     1   0   0     5.324890146258     0.00000000     0.00000000
 Au     2   1   0     5.043244175135    79.00371435     0.00000000
 Au     3   2   1     5.077678032821   121.40072296   287.60017917
 Au     1   2   3     6.727311224714    97.57271422    93.16156409
 Au     4   3   2     5.443269666708    91.85640272   327.44112868
 Au     2   1   3     5.167315192470   108.65151976   206.23410340
 Au     5   1   2     5.041579793905    51.38370194    46.02202137
 Au     6   4   3     4.968807316475   114.82784477    18.19355826
 Au     5   1   2     5.076050382172    96.18706931   279.84815897
 Cr     1   2   3     4.947992854282    61.18555210    59.84556289

---------------------
BASIS SET INFORMATION
---------------------
There are 2 groups of distinct atoms

 Group   1 Type Au  : 8s7p6d1f contracted to 6s4p3d1f pattern {311111/4111/411/1}
 Group   2 Type Cr  : 17s11p7d1f contracted to 6s4p4d1f pattern {842111/6311/4111/1}

Atom   0Au   basis set group =>   1
Atom   1Au   basis set group =>   1
Atom   2Au   basis set group =>   1
Atom   3Au   basis set group =>   1
Atom   4Au   basis set group =>   1
Atom   5Au   basis set group =>   1
Atom   6Au   basis set group =>   1
Atom   7Au   basis set group =>   1
Atom   8Au   basis set group =>   1
Atom   9Au   basis set group =>   1
Atom  10Cr   basis set group =>   2
---------------------------------
AUXILIARY/J BASIS SET INFORMATION
---------------------------------
There are 2 groups of distinct atoms

 Group   1 Type Au  : 11s5p5d3f3g contracted to 8s5p5d2f3g pattern {41111111/11111/11111/21/111}
 Group   2 Type Cr  : 19s5p5d3f3g contracted to 8s5p5d2f3g pattern {121111111/11111/11111/21/111}

Atom   0Au   basis set group =>   1
Atom   1Au   basis set group =>   1
Atom   2Au   basis set group =>   1
Atom   3Au   basis set group =>   1
Atom   4Au   basis set group =>   1
Atom   5Au   basis set group =>   1
Atom   6Au   basis set group =>   1
Atom   7Au   basis set group =>   1
Atom   8Au   basis set group =>   1
Atom   9Au   basis set group =>   1
Atom  10Cr   basis set group =>   2
-------------------------
ECP PARAMETER INFORMATION
-------------------------

 Group 1, Type Au ECP Def2-ECP (replacing 60 core electrons, lmax=3)

Atom   0Au   ECP group =>   1
Atom   1Au   ECP group =>   1
Atom   2Au   ECP group =>   1
Atom   3Au   ECP group =>   1
Atom   4Au   ECP group =>   1
Atom   5Au   ECP group =>   1
Atom   6Au   ECP group =>   1
Atom   7Au   ECP group =>   1
Atom   8Au   ECP group =>   1
Atom   9Au   ECP group =>   1



           ************************************************************
           *        Program running with 6 parallel MPI-processes     *
           *              working on a common directory               *
           ************************************************************
------------------------------------------------------------------------------
                           ORCA GTO INTEGRAL CALCULATION
                           -- RI-GTO INTEGRALS CHOSEN --
------------------------------------------------------------------------------
------------------------------------------------------------------------------
                   ___                                                        
                  /   \      - P O W E R E D   B Y -                         
                 /     \                                                     
                 |  |  |   _    _      __       _____    __    __             
                 |  |  |  | |  | |    /  \     |  _  \  |  |  /  |          
                  \  \/   | |  | |   /    \    | | | |  |  | /  /          
                 / \  \   | |__| |  /  /\  \   | |_| |  |  |/  /          
                |  |  |   |  __  | /  /__\  \  |    /   |      \           
                |  |  |   | |  | | |   __   |  |    \   |  |\   \          
                \     /   | |  | | |  |  |  |  | |\  \  |  | \   \       
                 \___/    |_|  |_| |__|  |__|  |_| \__\ |__|  \__/        
                                                                              
                      - O R C A' S   B I G   F R I E N D -                    
                                      &                                       
                       - I N T E G R A L  F E E D E R -                       
                                                                              
 v1 FN, 2020, v2 2021                                                         
------------------------------------------------------------------------------


Reading SHARK input file scan.SHARKINP.tmp ... ok
----------------------
SHARK INTEGRAL PACKAGE
----------------------

Number of atoms                             ...     11
Number of basis functions                   ...    445
Number of shells                            ...    155
Maximum angular momentum                    ...      3
Integral batch strategy                     ... SHARK/LIBINT Hybrid
RI-J (if used) integral strategy            ... SPLIT-RIJ (Revised 2003 algorithm where possible)
Printlevel                                  ...      1
Contraction scheme used                     ... SEGMENTED contraction
Coulomb Range Separation                    ... NOT USED
Exchange Range Separation                   ... NOT USED
Finite Nucleus Model                        ... NOT USED
Auxiliary Coulomb fitting basis             ... AVAILABLE
   # of basis functions in Aux-J            ...    979
   # of shells in Aux-J                     ...    253
   Maximum angular momentum in Aux-J        ...      4
Auxiliary J/K fitting basis                 ... NOT available
Auxiliary Correlation fitting basis         ... NOT available
Auxiliary 'external' fitting basis          ... NOT available
Integral threshold                          ...     1.000000e-10
Primitive cut-off                           ...     1.000000e-11
Primitive pair pre-selection threshold      ...     1.000000e-11

Calculating pre-screening integrals         ... done (  0.1 sec) Dimension = 155
Organizing shell pair data                  ... done (  0.2 sec)
Shell pair information
Total number of shell pairs                 ...     12090
Shell pairs after pre-screening             ...      9981
Total number of primitive shell pairs       ...     33105
Primitive shell pairs kept                  ...     20152
          la=0 lb=0:   1560 shell pairs
          la=1 lb=0:   2260 shell pairs
          la=1 lb=1:    854 shell pairs
          la=2 lb=0:   1977 shell pairs
          la=2 lb=1:   1386 shell pairs
          la=2 lb=2:    576 shell pairs
          la=3 lb=0:    546 shell pairs
          la=3 lb=1:    414 shell pairs
          la=3 lb=2:    351 shell pairs
          la=3 lb=3:     57 shell pairs

Calculating one electron integrals          ... done (  0.0 sec)
Calculating ECP integrals                   ... done (  6.3 sec)
Calculating RI/J V-Matrix + Cholesky decomp.... done (  0.2 sec)
Calculating Nuclear repulsion               ... done (  0.0 sec) ENN=   3136.944536486620 Eh

SHARK setup successfully completed in   7.5 seconds

Maximum memory used throughout the entire GTOINT-calculation: 27.2 MB


           ************************************************************
           *        Program running with 6 parallel MPI-processes     *
           *              working on a common directory               *
           ************************************************************
-------------------------------------------------------------------------------
                                 ORCA SCF
-------------------------------------------------------------------------------

------------
SCF SETTINGS
------------
Hamiltonian:
 Density Functional     Method          .... DFT(GTOs)
  Functional kind                       .... Exchange
  Functional name                       .... Re-regularized SCAN exchange by Furness et al
  Functional family                     .... MGGA
  Functional refs                              
    [ 0] J. W. Furness, A. D. Kaplan, J. Ning, J. P. Perdew, and J. Sun, J. Phys. Chem. Lett. 11, 8208 (2020)
    [ 1] J. W. Furness, A. D. Kaplan, J. Ning, J. P. Perdew, and J. Sun, J. Phys. Chem. Lett. 11, 9248 (2020)
  Functional external parameters         .... 8
 Parameter  0 :         c1 parameter
 Parameter  1 :         c2 parameter
 Parameter  2 :          d parameter
 Parameter  3 :         k1 parameter
 Parameter  4 :       taur parameter
 Parameter  5 :     alphar parameter
 Parameter  6 :        eta parameter
 Parameter  7 :        dp2 parameter
  Functional kind                       .... Correlation
  Functional name                       .... Re-regularized SCAN correlation by Furness et al
  Functional family                     .... MGGA
  Functional refs                              
    [ 0] J. W. Furness, A. D. Kaplan, J. Ning, J. P. Perdew, and J. Sun, J. Phys. Chem. Lett. 11, 8208 (2020)
    [ 1] J. W. Furness, A. D. Kaplan, J. Ning, J. P. Perdew, and J. Sun, J. Phys. Chem. Lett. 11, 9248 (2020)
  Functional external parameters         .... 0
 Gradients option       PostSCFGGA      .... off
   Density functional embedding theory  .... OFF
   NL short-range parameter             .... 12.300000
 RI-approximation to the Coulomb term is turned on
   Number of AuxJ basis functions       .... 979


General Settings:
 Integral files         IntName         .... scan
 Hartree-Fock type      HFTyp           .... UHF
 Total Charge           Charge          ....    0
 Multiplicity           Mult            ....    5
 Number of Electrons    NEL             ....  214
 Basis Dimension        Dim             ....  445
 Nuclear Repulsion      ENuc            ....   3136.9445364866 Eh

Convergence Acceleration:
 DIIS                   CNVDIIS         .... off
 Trust-Rad. Augm. Hess. CNVTRAH         .... auto
   Auto Start mean grad. ratio tolernc. ....  1.125000
   Auto Start start iteration           ....   200
   Auto Start num. interpolation iter.  ....    10
   Max. Number of Micro iterations      ....    16
   Max. Number of Macro iterations      .... Maxiter - #DIIS iter
   Number of Davidson start vectors     ....     2
   Converg. threshold I  (grad. norm)   ....   5.000e-05
   Converg. threshold II (energy diff.) ....   1.000e-06
   Grad. Scal. Fac. for Micro threshold ....   0.100
   Minimum threshold for Micro iter.    ....   0.010
   NR start threshold (gradient norm)   ....   0.001
   Initial trust radius                 ....   0.400
   Minimum AH scaling param. (alpha)    ....   1.000
   Maximum AH scaling param. (alpha)    .... 1000.000
   Orbital update algorithm             .... Taylor
   White noise on init. David. guess    .... on
   Maximum white noise                  ....   0.010
   Quad. conv. algorithm                .... NR
 SOSCF                  CNVSOSCF        .... off
 Level Shifting         CNVShift        .... off
 Zerner damping         CNVZerner       .... off
 Static damping         CNVDamp         .... off
 Fernandez-Rico         CNVRico         .... off

SCF Procedure:
 Maximum # iterations   MaxIter         ....   400
 SCF integral mode      SCFMode         .... Direct
   Integral package                     .... SHARK and LIBINT hybrid scheme
 Reset frequency        DirectResetFreq ....    20
 Integral Threshold     Thresh          ....  1.000e-10 Eh
 Primitive CutOff       TCut            ....  1.000e-11 Eh

Convergence Tolerance:
 Convergence Check Mode ConvCheckMode   .... All-Criteria
 Convergence forced     ConvForced      .... 0
 Energy Change          TolE            ....  1.000e-06 Eh
 Max Density Change     TolMaxP         ....  1.000e-05
 RMS Density Change     TolRMSP         ....  1.000e-06


Diagonalization of the overlap matrix:
Smallest eigenvalue                        ... 2.214e-04
Time for diagonalization                   ...    0.040 sec
Threshold for overlap eigenvalues          ... 1.000e-08
Number of eigenvalues below threshold      ... 0
Time for construction of square roots      ...    0.061 sec
Total time needed                          ...    0.101 sec

Time for model grid setup =    0.539 sec

------------------------------
INITIAL GUESS: MODEL POTENTIAL
------------------------------
Loading Hartree-Fock densities                     ... done
  calling /media/Programs/ORCA501/orca scan_atom79.inp > scan_atom79.out in order to generate an atomic fitting density for atom 0 (Au with ECP) on-the-fly... 
    atom 0 (Au), assumed electronic state with S=2: 1s2 2s2 2p6 3s2 3p6 4s2 3d10 4p6 5s2 4d10 5p6 6s1 4f14 5d10           ... done
Calculating cut-offs                               ... done
Initializing the effective Hamiltonian             ... done
Setting up the integral package (SHARK)            ... done
Starting the Coulomb interaction                   ... done (   1.1 sec)
Reading the grid                                   ... done
Mapping shells                                     ... done
Starting the XC term evaluation                    ... done (   0.3 sec)
  promolecular density results
     # of electrons  =    814.011980533
     EX              =  -3705.416597689
     EC              =    -49.432234381
     EX+EC           =  -3754.848832070
Transforming the Hamiltonian                       ... done (   0.0 sec)
Diagonalizing the Hamiltonian                      ... done (   0.5 sec)
Back transforming the eigenvectors                 ... done (   0.0 sec)
Now organizing SCF variables                       ... done
                      ------------------
                      INITIAL GUESS DONE (   3.3 sec)
                      ------------------
-------------------
DFT GRID GENERATION
-------------------

General Integration Accuracy     IntAcc      ... 4.388
Radial Grid Type                 RadialGrid  ... OptM3 with GC (2021)
Angular Grid (max. ang.)         AngularGrid ... 4 (Lebedev-302)
Angular grid pruning method      GridPruning ... 4 (adaptive)
Weight generation scheme         WeightScheme... Becke
Basis function cutoff            BFCut       ... 1.0000e-10
Integration weight cutoff        WCut        ... 1.0000e-14
Angular grids for H and He will be reduced by one unit
Partially contracted basis set               ... off
Rotationally invariant grid construction     ... off

Total number of grid points                  ...   123409
Total number of batches                      ...     1933
Average number of points per batch           ...       63
Average number of grid points per atom       ...    11219
Time for grid setup =    1.633 sec

--------------
SCF ITERATIONS
--------------
ITER       Energy         Delta-E        Max-DP      RMS-DP      [F,P]   Gradient Norm
               ***  Starting incremental Fock matrix formation  ***
                             ****Resetting KDIIS****
                             ****Turning on KDIIS(Cayley)****
  0  -2401.4926617339   0.000000000000 0.32492598  0.00155191  0.4028403   0.210003133
  1  -2402.1798852452  -0.687223511327 0.22457045  0.00145845  0.3607170   0.168116685
  2  -2402.5317136442  -0.351828399015 0.11288207  0.00130705  0.2854125   0.127459057
  3  -2402.7379508700  -0.206237225814 0.35065482  0.00188767  0.1676376   0.073834974
  4  -2402.8110263404  -0.073075470337 0.10780333  0.00063546  0.0407290   0.019465862
  5  -2402.8398874596  -0.028861119180 0.05463232  0.00036915  0.0224738   0.004936112
  6  -2402.8496145971  -0.009727137505 0.03020566  0.00040953  0.0235131   0.003342427
  7  -2402.8561525827  -0.006537985670 0.04481056  0.00029230  0.0129206   0.004386580
  8  -2402.8590574743  -0.002904891549 0.04764160  0.00018898  0.0124190   0.004940930
  9  -2402.8613985394  -0.002341065090 0.01904409  0.00020257  0.0100624   0.002011183
 10  -2402.8630629258  -0.001664386428 0.01150966  0.00008391  0.0058865   0.001809244
 11  -2402.8635573298  -0.000494403978 0.00834594  0.00010529  0.0032730   0.001025650
 12  -2402.8640548500  -0.000497520170 0.00918514  0.00005659  0.0020777   0.000811765
 13  -2402.8642203485  -0.000165498598 0.00329121  0.00004880  0.0028941   0.000813513
 14  -2402.8643420534  -0.000121704833 0.00559085  0.00004978  0.0019923   0.000553990
 15  -2402.8644499933  -0.000107939903 0.00279072  0.00003006  0.0027487   0.000618218
 16  -2402.8644004009   0.000049592361 0.00487585  0.00003673  0.0014402   0.000520569
 17  -2402.8644921546  -0.000091753642 0.00234003  0.00001703  0.0012601   0.000437860
 18  -2402.8645015350  -0.000009380440 0.00145804  0.00001655  0.0013622   0.000308457
 19  -2402.8645111384  -0.000009603426 0.00088327  0.00001454  0.0007151   0.000331402
               *** Restarting incremental Fock matrix formation ***
                             ****Resetting KDIIS****
 20  -2402.8645282778  -0.000017139377 0.00026930  0.00000239  0.0008796   0.000221274
 21  -2402.8645311629  -0.000002885091 0.00024690  0.00000221  0.0008589   0.000159255
 22  -2402.8645342182  -0.000003055253 0.00059325  0.00000786  0.0008219   0.000137124
 23  -2402.8645454511  -0.000011232961 0.00274411  0.00003872  0.0007111   0.000123365
 24  -2402.8645814392  -0.000035988131 0.00097220  0.00000488  0.0001674   0.000090102
 25  -2402.8645825040  -0.000001064715 0.00188102  0.00000579  0.0001531   0.000031095
 26  -2402.8645852558  -0.000002751864 0.00026885  0.00000195  0.0002108   0.000070710
                          ***Energy convergence achieved***
 27  -2402.8645850607   0.000000195132 0.00019520  0.00000324  0.0001202   0.000020060
 28  -2402.8645865790  -0.000001518325 0.00034082  0.00000348  0.0001222   0.000027302
 29  -2402.8645883820  -0.000001802985 0.00009168  0.00000109  0.0001244   0.000014456
                          ***Energy convergence achieved***
                           ***RMSP convergence achieved***
 30  -2402.8645883736   0.000000008366 0.00005278  0.00000093  0.0001253   0.000016955
 31  -2402.8645886167  -0.000000243066 0.00010381  0.00000098  0.0001263   0.000014525
 32  -2402.8645887057  -0.000000089048 0.00010067  0.00000166  0.0001271   0.000012939
                           ***RMSP convergence achieved***

            ***Energy convergence in two consecutive cycles with***
                    ***'reasonable' density convergence***
                       *** signaling convergence ***

                    *** KDIIS BlockDiag ( 0.167 sec) ***

               *****************************************************
               *                     SUCCESS                       *
               *           SCF CONVERGED AFTER  33 CYCLES          *
               *****************************************************


----------------
TOTAL SCF ENERGY
----------------

Total Energy       :        -2402.86458881 Eh          -65385.26958 eV

Components:
Nuclear Repulsion  :         3136.94453649 Eh           85360.60049 eV
Electronic Energy  :        -5539.80912530 Eh         -150745.87007 eV
One Electron Energy:       -10092.70997052 Eh         -274636.60055 eV
Two Electron Energy:         4552.90084522 Eh          123890.73048 eV

Virial components:
Potential Energy   :        -3904.52683897 Eh         -106247.57681 eV
Kinetic Energy     :         1501.66225016 Eh           40862.30723 eV
Virial Ratio       :            2.60013651


DFT components:
N(Alpha)           :      109.000009041339 electrons
N(Beta)            :      105.000006537574 electrons
N(Total)           :      214.000015578913 electrons
E(X)               :     -169.054060466640 Eh       
E(C)               :       -8.841801846176 Eh       
E(XC)              :     -177.895862312816 Eh       
DFET-embed. en.    :        0.000000000000 Eh       

---------------
SCF CONVERGENCE
---------------

  Last Energy change         ...   -1.0473e-07  Tolerance :   1.0000e-06
  Last MAX-Density change    ...    5.1660e-05  Tolerance :   1.0000e-05
  Last RMS-Density change    ...    8.4166e-07  Tolerance :   1.0000e-06

             **** THE GBW FILE WAS UPDATED (scan.gbw) ****
             **** DENSITY scan.scfp WAS UPDATED ****
             **** ENERGY FILE WAS UPDATED (scan.en.tmp) ****
----------------------
UHF SPIN CONTAMINATION
----------------------

Warning: in a DFT calculation there is little theoretical justification to 
         calculate <S**2> as in Hartree-Fock theory. We will do it anyways
         but you should keep in mind that the values have only limited relevance

Expectation value of <S**2>     :     6.509278
Ideal value S*(S+1) for S=2.0   :     6.000000
Deviation                       :     0.509278

             **** THE GBW FILE WAS UPDATED (scan.gbw) ****
             **** DENSITY scan.scfp WAS UPDATED ****
----------------
ORBITAL ENERGIES
----------------
                 SPIN UP ORBITALS
  NO   OCC          E(Eh)            E(eV) 
   0   1.0000    -215.285973     -5858.2291 
   1   1.0000     -24.588727      -669.0933 
   2   1.0000     -20.856177      -567.5254 
   3   1.0000     -20.855529      -567.5078 
   4   1.0000     -20.852279      -567.4194 
   5   1.0000      -4.122925      -112.1905 
   6   1.0000      -4.122532      -112.1798 
   7   1.0000      -4.114409      -111.9588 
   8   1.0000      -4.110639      -111.8562 
   9   1.0000      -4.108617      -111.8012 
  10   1.0000      -4.108010      -111.7846 
  11   1.0000      -4.107948      -111.7830 
  12   1.0000      -4.106122      -111.7332 
  13   1.0000      -4.105902      -111.7273 
  14   1.0000      -4.105237      -111.7092 
  15   1.0000      -2.910171       -79.1898 
  16   1.0000      -2.313405       -62.9510 
  17   1.0000      -2.312836       -62.9355 
  18   1.0000      -2.308869       -62.8275 
  19   1.0000      -2.307141       -62.7805 
  20   1.0000      -2.306097       -62.7521 
  21   1.0000      -2.305272       -62.7296 
  22   1.0000      -2.304957       -62.7211 
  23   1.0000      -2.301775       -62.6345 
  24   1.0000      -2.298965       -62.5580 
  25   1.0000      -2.298430       -62.5435 
  26   1.0000      -2.297977       -62.5311 
  27   1.0000      -2.297942       -62.5302 
  28   1.0000      -2.297609       -62.5211 
  29   1.0000      -2.297444       -62.5166 
  30   1.0000      -2.297131       -62.5081 
  31   1.0000      -2.296052       -62.4788 
  32   1.0000      -2.294933       -62.4483 
  33   1.0000      -2.293946       -62.4214 
  34   1.0000      -2.293451       -62.4080 
  35   1.0000      -2.293205       -62.4013 
  36   1.0000      -2.293078       -62.3978 
  37   1.0000      -2.292739       -62.3886 
  38   1.0000      -2.291408       -62.3524 
  39   1.0000      -2.291296       -62.3493 
  40   1.0000      -2.288807       -62.2816 
  41   1.0000      -2.288270       -62.2670 
  42   1.0000      -2.288019       -62.2602 
  43   1.0000      -2.286709       -62.2245 
  44   1.0000      -2.286263       -62.2124 
  45   1.0000      -2.284675       -62.1692 
  46   1.0000      -1.858280       -50.5664 
  47   1.0000      -1.857968       -50.5579 
  48   1.0000      -1.854487       -50.4631 
  49   1.0000      -0.413225       -11.2444 
  50   1.0000      -0.386138       -10.5074 
  51   1.0000      -0.374516       -10.1911 
  52   1.0000      -0.370917       -10.0932 
  53   1.0000      -0.369023       -10.0416 
  54   1.0000      -0.363920        -9.9028 
  55   1.0000      -0.356907        -9.7119 
  56   1.0000      -0.353909        -9.6304 
  57   1.0000      -0.350785        -9.5454 
  58   1.0000      -0.346890        -9.4394 
  59   1.0000      -0.346326        -9.4240 
  60   1.0000      -0.341627        -9.2962 
  61   1.0000      -0.337839        -9.1931 
  62   1.0000      -0.336357        -9.1527 
  63   1.0000      -0.332174        -9.0389 
  64   1.0000      -0.329620        -8.9694 
  65   1.0000      -0.324345        -8.8259 
  66   1.0000      -0.321862        -8.7583 
  67   1.0000      -0.318602        -8.6696 
  68   1.0000      -0.316976        -8.6253 
  69   1.0000      -0.314492        -8.5578 
  70   1.0000      -0.311069        -8.4646 
  71   1.0000      -0.310549        -8.4505 
  72   1.0000      -0.306923        -8.3518 
  73   1.0000      -0.300259        -8.1705 
  74   1.0000      -0.299093        -8.1387 
  75   1.0000      -0.298650        -8.1267 
  76   1.0000      -0.293491        -7.9863 
  77   1.0000      -0.291953        -7.9444 
  78   1.0000      -0.288598        -7.8532 
  79   1.0000      -0.287861        -7.8331 
  80   1.0000      -0.287091        -7.8121 
  81   1.0000      -0.282707        -7.6929 
  82   1.0000      -0.280628        -7.6363 
  83   1.0000      -0.278590        -7.5808 
  84   1.0000      -0.276479        -7.5234 
  85   1.0000      -0.275475        -7.4961 
  86   1.0000      -0.274084        -7.4582 
  87   1.0000      -0.273787        -7.4501 
  88   1.0000      -0.271403        -7.3853 
  89   1.0000      -0.269899        -7.3443 
  90   1.0000      -0.268020        -7.2932 
  91   1.0000      -0.264092        -7.1863 
  92   1.0000      -0.263954        -7.1826 
  93   1.0000      -0.261036        -7.1031 
  94   1.0000      -0.259257        -7.0547 
  95   1.0000      -0.256019        -6.9666 
  96   1.0000      -0.255030        -6.9397 
  97   1.0000      -0.254575        -6.9273 
  98   1.0000      -0.244101        -6.6423 
  99   1.0000      -0.243871        -6.6361 
 100   1.0000      -0.241538        -6.5726 
 101   1.0000      -0.240358        -6.5405 
 102   1.0000      -0.236593        -6.4380 
 103   1.0000      -0.223695        -6.0870 
 104   1.0000      -0.222201        -6.0464 
 105   1.0000      -0.213550        -5.8110 
 106   1.0000      -0.210354        -5.7240 
 107   1.0000      -0.207422        -5.6442 
 108   1.0000      -0.188583        -5.1316 
 109   0.0000      -0.161844        -4.4040 
 110   0.0000      -0.159450        -4.3389 
 111   0.0000      -0.138604        -3.7716 
 112   0.0000      -0.122653        -3.3375 
 113   0.0000      -0.105896        -2.8816 
 114   0.0000      -0.095304        -2.5933 
 115   0.0000      -0.058986        -1.6051 
 116   0.0000      -0.053438        -1.4541 
 117   0.0000      -0.047025        -1.2796 
 118   0.0000      -0.045070        -1.2264 
 119   0.0000      -0.042601        -1.1592 
 120   0.0000      -0.019234        -0.5234 
 121   0.0000      -0.009917        -0.2699 
 122   0.0000      -0.009355        -0.2546 
 123   0.0000       0.006339         0.1725 
 124   0.0000       0.013196         0.3591 
 125   0.0000       0.026111         0.7105 
 126   0.0000       0.035122         0.9557 
 127   0.0000       0.041215         1.1215 
 128   0.0000       0.052839         1.4378 
 129   0.0000       0.060354         1.6423 
 130   0.0000       0.062587         1.7031 
 131   0.0000       0.067027         1.8239 
 132   0.0000       0.073193         1.9917 
 133   0.0000       0.074796         2.0353 
 134   0.0000       0.077657         2.1132 
 135   0.0000       0.080742         2.1971 
 136   0.0000       0.089268         2.4291 
 137   0.0000       0.100358         2.7309 
 138   0.0000       0.107813         2.9337 
 139   0.0000       0.113063         3.0766 
 140   0.0000       0.113458         3.0873 
 141   0.0000       0.119030         3.2390 
 142   0.0000       0.119694         3.2570 
 143   0.0000       0.125570         3.4169 
 144   0.0000       0.138423         3.7667 
 145   0.0000       0.146573         3.9885 
 146   0.0000       0.152595         4.1523 
 147   0.0000       0.155415         4.2291 
 148   0.0000       0.157249         4.2790 
 149   0.0000       0.169090         4.6012 
 150   0.0000       0.169967         4.6250 
 151   0.0000       0.175166         4.7665 
 152   0.0000       0.179090         4.8733 
 153   0.0000       0.183881         5.0037 
 154   0.0000       0.224814         6.1175 
 155   0.0000       0.228834         6.2269 
 156   0.0000       0.240464         6.5434 
 157   0.0000       0.244129         6.6431 
 158   0.0000       0.251089         6.8325 
 159   0.0000       0.258227         7.0267 
 160   0.0000       0.263137         7.1603 
 161   0.0000       0.265929         7.2363 
 162   0.0000       0.277994         7.5646 
 163   0.0000       0.279004         7.5921 
 164   0.0000       0.282511         7.6875 
 165   0.0000       0.296210         8.0603 
 166   0.0000       0.298394         8.1197 
 167   0.0000       0.299876         8.1600 
 168   0.0000       0.303447         8.2572 
 169   0.0000       0.311007         8.4629 
 170   0.0000       0.314458         8.5568 
 171   0.0000       0.321695         8.7538 
 172   0.0000       0.324624         8.8335 
 173   0.0000       0.330354         8.9894 
 174   0.0000       0.339570         9.2402 
 175   0.0000       0.341570         9.2946 
 176   0.0000       0.349356         9.5065 
 177   0.0000       0.356251         9.6941 
 178   0.0000       0.362692         9.8693 
 179   0.0000       0.368469        10.0266 
 180   0.0000       0.370787        10.0896 
 181   0.0000       0.375521        10.2184 
 182   0.0000       0.385795        10.4980 
 183   0.0000       0.387586        10.5468 
 184   0.0000       0.391343        10.6490 
 185   0.0000       0.393371        10.7042 
 186   0.0000       0.397963        10.8291 
 187   0.0000       0.403826        10.9887 
 188   0.0000       0.409480        11.1425 
 189   0.0000       0.411560        11.1991 
 190   0.0000       0.414018        11.2660 
 191   0.0000       0.428314        11.6550 
 192   0.0000       0.439054        11.9473 
 193   0.0000       0.451191        12.2775 
 194   0.0000       0.453920        12.3518 
 195   0.0000       0.460850        12.5404 
 196   0.0000       0.463234        12.6052 
 197   0.0000       0.467227        12.7139 
 198   0.0000       0.472054        12.8452 
 199   0.0000       0.477141        12.9837 
 200   0.0000       0.483599        13.1594 
 201   0.0000       0.485488        13.2108 
 202   0.0000       0.487611        13.2686 
 203   0.0000       0.506787        13.7904 
 204   0.0000       0.516078        14.0432 
 205   0.0000       0.523384        14.2420 
 206   0.0000       0.523764        14.2523 
 207   0.0000       0.524553        14.2738 
 208   0.0000       0.536064        14.5870 
 209   0.0000       0.543352        14.7854 
 210   0.0000       0.549453        14.9514 
 211   0.0000       0.550346        14.9757 
 212   0.0000       0.563262        15.3271 
 213   0.0000       0.564947        15.3730 
 214   0.0000       0.576017        15.6742 
 215   0.0000       0.579396        15.7662 
 216   0.0000       0.583501        15.8779 
 217   0.0000       0.592458        16.1216 
 218   0.0000       0.596875        16.2418 
 219   0.0000       0.668598        18.1935 
 220   0.0000       0.668940        18.2028 
 221   0.0000       0.670370        18.2417 
 222   0.0000       0.675109        18.3707 
 223   0.0000       0.706699        19.2303 
 224   0.0000       0.727646        19.8002 
 225   0.0000       0.738168        20.0866 
 226   0.0000       0.761210        20.7136 
 227   0.0000       0.769230        20.9318 
 228   0.0000       0.776091        21.1185 
 229   0.0000       0.776512        21.1300 
 230   0.0000       0.799485        21.7551 
 231   0.0000       0.814312        22.1586 
 232   0.0000       0.815885        22.2014 
 233   0.0000       0.825574        22.4650 
 234   0.0000       0.851094        23.1594 
 235   0.0000       0.863143        23.4873 
 236   0.0000       0.892594        24.2887 
 237   0.0000       0.894476        24.3399 
 238   0.0000       0.913587        24.8600 
 239   0.0000       0.932875        25.3848 
 240   0.0000       0.943589        25.6764 
 241   0.0000       0.959303        26.1040 
 242   0.0000       0.969485        26.3810 
 243   0.0000       0.978618        26.6295 
 244   0.0000       1.004337        27.3294 
 245   0.0000       1.015182        27.6245 
 246   0.0000       1.057471        28.7752 
 247   0.0000       1.100332        29.9416 
 248   0.0000       1.163479        31.6599 
 249   0.0000       1.266938        34.4751 
 250   0.0000       1.280065        34.8323 
 251   0.0000       1.293870        35.2080 
 252   0.0000       1.323853        36.0239 
 253   0.0000       1.326501        36.0959 
 254   0.0000       1.328761        36.1574 
 255   0.0000       1.335704        36.3464 
 256   0.0000       1.351867        36.7862 
 257   0.0000       1.364342        37.1256 
 258   0.0000       1.384636        37.6779 
 259   0.0000       1.391554        37.8661 
 260   0.0000       1.400170        38.1006 
 261   0.0000       1.417756        38.5791 
 262   0.0000       1.420985        38.6670 
 263   0.0000       1.426801        38.8252 
 264   0.0000       1.432286        38.9745 
 265   0.0000       1.440516        39.1984 
 266   0.0000       1.445820        39.3428 
 267   0.0000       1.453355        39.5478 
 268   0.0000       1.460876        39.7525 
 269   0.0000       1.465509        39.8785 
 270   0.0000       1.470761        40.0214 
 271   0.0000       1.480343        40.2822 
 272   0.0000       1.483892        40.3788 
 273   0.0000       1.487918        40.4883 
 274   0.0000       1.491389        40.5828 
 275   0.0000       1.493133        40.6302 
 276   0.0000       1.494777        40.6749 
 277   0.0000       1.503207        40.9043 
 278   0.0000       1.504663        40.9440 
 279   0.0000       1.508394        41.0455 
 280   0.0000       1.509459        41.0745 
 281   0.0000       1.511627        41.1335 
 282   0.0000       1.516123        41.2558 
 283   0.0000       1.521182        41.3935 
 284   0.0000       1.524462        41.4827 
 285   0.0000       1.526341        41.5339 
 286   0.0000       1.530245        41.6401 
 287   0.0000       1.531609        41.6772 
 288   0.0000       1.538497        41.8646 
 289   0.0000       1.543682        42.0057 
 290   0.0000       1.547145        42.0999 
 291   0.0000       1.550703        42.1968 
 292   0.0000       1.551459        42.2173 
 293   0.0000       1.554515        42.3005 
 294   0.0000       1.559116        42.4257 
 295   0.0000       1.559918        42.4475 
 296   0.0000       1.560059        42.4514 
 297   0.0000       1.563824        42.5538 
 298   0.0000       1.564625        42.5756 
 299   0.0000       1.566233        42.6194 
 300   0.0000       1.567952        42.6662 
 301   0.0000       1.569593        42.7108 
 302   0.0000       1.573645        42.8211 
 303   0.0000       1.573851        42.8267 
 304   0.0000       1.574434        42.8425 
 305   0.0000       1.579017        42.9672 
 306   0.0000       1.581535        43.0358 
 307   0.0000       1.582648        43.0660 
 308   0.0000       1.585201        43.1355 
 309   0.0000       1.589156        43.2431 
 310   0.0000       1.590019        43.2666 
 311   0.0000       1.591958        43.3194 
 312   0.0000       1.593606        43.3642 
 313   0.0000       1.596456        43.4418 
 314   0.0000       1.598916        43.5087 
 315   0.0000       1.600905        43.5628 
 316   0.0000       1.604028        43.6478 
 317   0.0000       1.606070        43.7034 
 318   0.0000       1.612179        43.8696 
 319   0.0000       1.614881        43.9431 
 320   0.0000       1.615676        43.9648 
 321   0.0000       1.619167        44.0598 
 322   0.0000       1.619528        44.0696 
 323   0.0000       1.623834        44.1868 
 324   0.0000       1.625827        44.2410 
 325   0.0000       1.629460        44.3399 
 326   0.0000       1.631062        44.3834 
 327   0.0000       1.632903        44.4335 
 328   0.0000       1.635893        44.5149 
 329   0.0000       1.637069        44.5469 
 330   0.0000       1.640490        44.6400 
 331   0.0000       1.640695        44.6456 
 332   0.0000       1.644117        44.7387 
 333   0.0000       1.647872        44.8409 
 334   0.0000       1.651629        44.9431 
 335   0.0000       1.654593        45.0238 
 336   0.0000       1.661390        45.2087 
 337   0.0000       1.663196        45.2579 
 338   0.0000       1.666174        45.3389 
 339   0.0000       1.666920        45.3592 
 340   0.0000       1.669148        45.4198 
 341   0.0000       1.673615        45.5414 
 342   0.0000       1.675992        45.6060 
 343   0.0000       1.677730        45.6534 
 344   0.0000       1.679846        45.7109 
 345   0.0000       1.683053        45.7982 
 346   0.0000       1.687311        45.9141 
 347   0.0000       1.697707        46.1970 
 348   0.0000       1.712783        46.6072 
 349   0.0000       1.720472        46.8164 
 350   0.0000       1.723388        46.8958 
 351   0.0000       1.730743        47.0959 
 352   0.0000       1.735360        47.2215 
 353   0.0000       1.746365        47.5210 
 354   0.0000       1.752179        47.6792 
 355   0.0000       1.777747        48.3750 
 356   0.0000       1.795836        48.8672 
 357   0.0000       1.824481        49.6466 
 358   0.0000       1.837591        50.0034 
 359   0.0000       1.848584        50.3025 
 360   0.0000       1.863361        50.7046 
 361   0.0000       1.892182        51.4889 
 362   0.0000       1.904468        51.8232 
 363   0.0000       1.910691        51.9925 
 364   0.0000       1.927731        52.4562 
 365   0.0000       1.928384        52.4740 
 366   0.0000       1.978107        53.8270 
 367   0.0000       1.998604        54.3848 
 368   0.0000       2.017598        54.9016 
 369   0.0000       2.028082        55.1869 
 370   0.0000       2.034553        55.3630 
 371   0.0000       2.157203        58.7005 
 372   0.0000       2.237592        60.8880 
 373   0.0000       2.246689        61.1355 
 374   0.0000       2.336540        63.5805 
 375   0.0000       2.348424        63.9039 
 376   0.0000       2.384363        64.8818 
 377   0.0000       2.415697        65.7345 
 378   0.0000       2.441370        66.4331 
 379   0.0000       2.471012        67.2396 
 380   0.0000       2.496892        67.9439 
 381   0.0000       2.522025        68.6278 
 382   0.0000       2.557554        69.5946 
 383   0.0000       2.571340        69.9697 
 384   0.0000       2.587703        70.4150 
 385   0.0000       2.612289        71.0840 
 386   0.0000       2.728459        74.2451 
 387   0.0000       2.891741        78.6883 
 388   0.0000       2.903812        79.0168 
 389   0.0000       2.926790        79.6420 
 390   0.0000       2.929796        79.7238 
 391   0.0000       2.931836        79.7793 
 392   0.0000       2.957686        80.4827 
 393   0.0000       2.979231        81.0690 
 394   0.0000       3.003050        81.7171 
 395   0.0000      23.693175       644.7241 
 396   0.0000      24.082878       655.3284 
 397   0.0000      24.137909       656.8259 
 398   0.0000      24.286711       660.8750 
 399   0.0000      24.350726       662.6169 
 400   0.0000      24.453193       665.4052 
 401   0.0000      24.992573       680.0825 
 402   0.0000      25.057472       681.8485 
 403   0.0000      25.307782       688.6598 
 404   0.0000      25.436741       692.1689 
 405   0.0000      25.559213       695.5016 
 406   0.0000      25.867071       703.8788 
 407   0.0000      25.880542       704.2454 
 408   0.0000      26.027194       708.2360 
 409   0.0000      26.195017       712.8026 
 410   0.0000      26.548652       722.4255 
 411   0.0000      26.719456       727.0734 
 412   0.0000      26.803357       729.3564 
 413   0.0000      26.853133       730.7109 
 414   0.0000      27.091592       737.1997 
 415   0.0000      27.322720       743.4890 
 416   0.0000      27.524090       748.9686 
 417   0.0000      27.736131       754.7385 
 418   0.0000      27.844291       757.6817 
 419   0.0000      27.961881       760.8815 
 420   0.0000      28.154479       766.1223 
 421   0.0000      28.258741       768.9594 
 422   0.0000      28.625885       778.9499 
 423   0.0000      28.785185       783.2847 
 424   0.0000      29.158879       793.4534 
 425   0.0000      44.393225      1208.0011 
 426   0.0000      44.456214      1209.7151 
 427   0.0000      44.463906      1209.9244 
 428   0.0000      44.521197      1211.4834 
 429   0.0000      44.554513      1212.3899 
 430   0.0000      44.590041      1213.3567 
 431   0.0000      44.604501      1213.7502 
 432   0.0000      44.626248      1214.3419 
 433   0.0000      44.649921      1214.9861 
 434   0.0000      44.683489      1215.8996 
 435   0.0000     205.258616      5585.3709 
 436   0.0000     205.284038      5586.0627 
 437   0.0000     205.287501      5586.1569 
 438   0.0000     205.307494      5586.7009 
 439   0.0000     205.324400      5587.1610 
 440   0.0000     205.341723      5587.6324 
 441   0.0000     205.344832      5587.7170 
 442   0.0000     205.350463      5587.8702 
 443   0.0000     205.366610      5588.3096 
 444   0.0000     205.372236      5588.4627 

                 SPIN DOWN ORBITALS
  NO   OCC          E(Eh)            E(eV) 
   0   1.0000    -215.285340     -5858.2119 
   1   1.0000     -24.525976      -667.3857 
   2   1.0000     -20.809863      -566.2652 
   3   1.0000     -20.808465      -566.2271 
   4   1.0000     -20.800688      -566.0155 
   5   1.0000      -4.121277      -112.1457 
   6   1.0000      -4.120845      -112.1339 
   7   1.0000      -4.112828      -111.9158 
   8   1.0000      -4.109895      -111.8359 
   9   1.0000      -4.107389      -111.7677 
  10   1.0000      -4.106746      -111.7503 
  11   1.0000      -4.106326      -111.7388 
  12   1.0000      -4.105069      -111.7046 
  13   1.0000      -4.104849      -111.6986 
  14   1.0000      -4.104741      -111.6957 
  15   1.0000      -2.745655       -74.7131 
  16   1.0000      -2.311058       -62.8871 
  17   1.0000      -2.310395       -62.8690 
  18   1.0000      -2.306901       -62.7740 
  19   1.0000      -2.305170       -62.7269 
  20   1.0000      -2.304431       -62.7068 
  21   1.0000      -2.303451       -62.6801 
  22   1.0000      -2.303027       -62.6685 
  23   1.0000      -2.299842       -62.5819 
  24   1.0000      -2.297567       -62.5200 
  25   1.0000      -2.296972       -62.5038 
  26   1.0000      -2.296573       -62.4929 
  27   1.0000      -2.296484       -62.4905 
  28   1.0000      -2.296115       -62.4805 
  29   1.0000      -2.295952       -62.4760 
  30   1.0000      -2.295638       -62.4675 
  31   1.0000      -2.294899       -62.4474 
  32   1.0000      -2.293795       -62.4173 
  33   1.0000      -2.293032       -62.3966 
  34   1.0000      -2.292730       -62.3883 
  35   1.0000      -2.291591       -62.3574 
  36   1.0000      -2.291503       -62.3550 
  37   1.0000      -2.291049       -62.3426 
  38   1.0000      -2.290544       -62.3289 
  39   1.0000      -2.289922       -62.3120 
  40   1.0000      -2.287509       -62.2463 
  41   1.0000      -2.286994       -62.2323 
  42   1.0000      -2.286795       -62.2269 
  43   1.0000      -2.285670       -62.1962 
  44   1.0000      -2.285411       -62.1892 
  45   1.0000      -2.284178       -62.1557 
  46   1.0000      -1.700071       -46.2613 
  47   1.0000      -1.697863       -46.2012 
  48   1.0000      -1.679760       -45.7086 
  49   1.0000      -0.406659       -11.0657 
  50   1.0000      -0.380493       -10.3537 
  51   1.0000      -0.371362       -10.1053 
  52   1.0000      -0.368419       -10.0252 
  53   1.0000      -0.365593        -9.9483 
  54   1.0000      -0.358808        -9.7637 
  55   1.0000      -0.351852        -9.5744 
  56   1.0000      -0.349097        -9.4994 
  57   1.0000      -0.347944        -9.4680 
  58   1.0000      -0.343588        -9.3495 
  59   1.0000      -0.343095        -9.3361 
  60   1.0000      -0.339120        -9.2279 
  61   1.0000      -0.334842        -9.1115 
  62   1.0000      -0.331986        -9.0338 
  63   1.0000      -0.327828        -8.9206 
  64   1.0000      -0.326406        -8.8819 
  65   1.0000      -0.320223        -8.7137 
  66   1.0000      -0.318788        -8.6746 
  67   1.0000      -0.315597        -8.5878 
  68   1.0000      -0.313513        -8.5311 
  69   1.0000      -0.312069        -8.4918 
  70   1.0000      -0.307296        -8.3620 
  71   1.0000      -0.305976        -8.3260 
  72   1.0000      -0.302977        -8.2444 
  73   1.0000      -0.299220        -8.1422 
  74   1.0000      -0.296293        -8.0625 
  75   1.0000      -0.294540        -8.0148 
  76   1.0000      -0.292417        -7.9571 
  77   1.0000      -0.289356        -7.8738 
  78   1.0000      -0.287245        -7.8163 
  79   1.0000      -0.286303        -7.7907 
  80   1.0000      -0.284735        -7.7480 
  81   1.0000      -0.280104        -7.6220 
  82   1.0000      -0.278931        -7.5901 
  83   1.0000      -0.276989        -7.5373 
  84   1.0000      -0.275523        -7.4974 
  85   1.0000      -0.273971        -7.4551 
  86   1.0000      -0.273690        -7.4475 
  87   1.0000      -0.272570        -7.4170 
  88   1.0000      -0.270373        -7.3572 
  89   1.0000      -0.268807        -7.3146 
  90   1.0000      -0.267227        -7.2716 
  91   1.0000      -0.262163        -7.1338 
  92   1.0000      -0.260558        -7.0901 
  93   1.0000      -0.260226        -7.0811 
  94   1.0000      -0.256812        -6.9882 
  95   1.0000      -0.254737        -6.9318 
  96   1.0000      -0.253847        -6.9075 
  97   1.0000      -0.252402        -6.8682 
  98   1.0000      -0.242829        -6.6077 
  99   1.0000      -0.241441        -6.5699 
 100   1.0000      -0.241217        -6.5638 
 101   1.0000      -0.236036        -6.4229 
 102   1.0000      -0.235509        -6.4085 
 103   1.0000      -0.205218        -5.5843 
 104   1.0000      -0.190531        -5.1846 
 105   0.0000      -0.189827        -5.1655 
 106   0.0000      -0.142283        -3.8717 
 107   0.0000      -0.127301        -3.4640 
 108   0.0000      -0.114242        -3.1087 
 109   0.0000      -0.086907        -2.3649 
 110   0.0000      -0.085553        -2.3280 
 111   0.0000      -0.084869        -2.3094 
 112   0.0000      -0.081771        -2.2251 
 113   0.0000      -0.073709        -2.0057 
 114   0.0000      -0.067030        -1.8240 
 115   0.0000      -0.052466        -1.4277 
 116   0.0000      -0.042604        -1.1593 
 117   0.0000      -0.041281        -1.1233 
 118   0.0000      -0.039119        -1.0645 
 119   0.0000      -0.037219        -1.0128 
 120   0.0000      -0.013757        -0.3743 
 121   0.0000      -0.005234        -0.1424 
 122   0.0000       0.004309         0.1173 
 123   0.0000       0.010516         0.2861 
 124   0.0000       0.014187         0.3860 
 125   0.0000       0.030560         0.8316 
 126   0.0000       0.040338         1.0977 
 127   0.0000       0.043597         1.1863 
 128   0.0000       0.059341         1.6147 
 129   0.0000       0.063049         1.7157 
 130   0.0000       0.063971         1.7407 
 131   0.0000       0.067779         1.8444 
 132   0.0000       0.075229         2.0471 
 133   0.0000       0.076323         2.0769 
 134   0.0000       0.080320         2.1856 
 135   0.0000       0.082884         2.2554 
 136   0.0000       0.089905         2.4464 
 137   0.0000       0.101917         2.7733 
 138   0.0000       0.108540         2.9535 
 139   0.0000       0.115401         3.1402 
 140   0.0000       0.116110         3.1595 
 141   0.0000       0.120080         3.2675 
 142   0.0000       0.121701         3.3117 
 143   0.0000       0.128803         3.5049 
 144   0.0000       0.147046         4.0013 
 145   0.0000       0.150585         4.0976 
 146   0.0000       0.158687         4.3181 
 147   0.0000       0.159460         4.3391 
 148   0.0000       0.163246         4.4422 
 149   0.0000       0.174608         4.7513 
 150   0.0000       0.175821         4.7843 
 151   0.0000       0.183343         4.9890 
 152   0.0000       0.184525         5.0212 
 153   0.0000       0.189842         5.1659 
 154   0.0000       0.229966         6.2577 
 155   0.0000       0.230679         6.2771 
 156   0.0000       0.244589         6.6556 
 157   0.0000       0.247895         6.7456 
 158   0.0000       0.253043         6.8856 
 159   0.0000       0.264480         7.1969 
 160   0.0000       0.265485         7.2242 
 161   0.0000       0.268916         7.3176 
 162   0.0000       0.279991         7.6189 
 163   0.0000       0.280819         7.6415 
 164   0.0000       0.284338         7.7372 
 165   0.0000       0.296324         8.0634 
 166   0.0000       0.299027         8.1369 
 167   0.0000       0.302697         8.2368 
 168   0.0000       0.305861         8.3229 
 169   0.0000       0.310277         8.4431 
 170   0.0000       0.316949         8.6246 
 171   0.0000       0.323979         8.8159 
 172   0.0000       0.326001         8.8709 
 173   0.0000       0.333156         9.0656 
 174   0.0000       0.340143         9.2558 
 175   0.0000       0.342397         9.3171 
 176   0.0000       0.349985         9.5236 
 177   0.0000       0.357172         9.7191 
 178   0.0000       0.363197         9.8831 
 179   0.0000       0.369580        10.0568 
 180   0.0000       0.374869        10.2007 
 181   0.0000       0.377770        10.2797 
 182   0.0000       0.387852        10.5540 
 183   0.0000       0.390058        10.6140 
 184   0.0000       0.394825        10.7437 
 185   0.0000       0.395447        10.7607 
 186   0.0000       0.400223        10.8906 
 187   0.0000       0.404310        11.0018 
 188   0.0000       0.411054        11.1854 
 189   0.0000       0.415599        11.3090 
 190   0.0000       0.420069        11.4306 
 191   0.0000       0.430333        11.7100 
 192   0.0000       0.445813        12.1312 
 193   0.0000       0.451322        12.2811 
 194   0.0000       0.455218        12.3871 
 195   0.0000       0.465394        12.6640 
 196   0.0000       0.466366        12.6905 
 197   0.0000       0.472419        12.8552 
 198   0.0000       0.474325        12.9070 
 199   0.0000       0.480323        13.0703 
 200   0.0000       0.487386        13.2624 
 201   0.0000       0.491478        13.3738 
 202   0.0000       0.495810        13.4917 
 203   0.0000       0.509593        13.8667 
 204   0.0000       0.518295        14.1035 
 205   0.0000       0.531071        14.4512 
 206   0.0000       0.531847        14.4723 
 207   0.0000       0.534710        14.5502 
 208   0.0000       0.543043        14.7770 
 209   0.0000       0.547944        14.9103 
 210   0.0000       0.554693        15.0940 
 211   0.0000       0.559079        15.2133 
 212   0.0000       0.570355        15.5201 
 213   0.0000       0.572158        15.5692 
 214   0.0000       0.580423        15.7941 
 215   0.0000       0.586353        15.9555 
 216   0.0000       0.587462        15.9857 
 217   0.0000       0.597634        16.2624 
 218   0.0000       0.605241        16.4694 
 219   0.0000       0.669754        18.2249 
 220   0.0000       0.675295        18.3757 
 221   0.0000       0.677320        18.4308 
 222   0.0000       0.682887        18.5823 
 223   0.0000       0.714772        19.4499 
 224   0.0000       0.732281        19.9264 
 225   0.0000       0.747386        20.3374 
 226   0.0000       0.761930        20.7332 
 227   0.0000       0.774058        21.0632 
 228   0.0000       0.780657        21.2428 
 229   0.0000       0.781794        21.2737 
 230   0.0000       0.807400        21.9705 
 231   0.0000       0.815529        22.1917 
 232   0.0000       0.817147        22.2357 
 233   0.0000       0.826875        22.5004 
 234   0.0000       0.856014        23.2933 
 235   0.0000       0.869023        23.6473 
 236   0.0000       0.894613        24.3437 
 237   0.0000       0.907859        24.7041 
 238   0.0000       0.916294        24.9336 
 239   0.0000       0.937542        25.5118 
 240   0.0000       0.951401        25.8889 
 241   0.0000       0.970473        26.4079 
 242   0.0000       0.972947        26.4752 
 243   0.0000       0.985059        26.8048 
 244   0.0000       1.018288        27.7090 
 245   0.0000       1.032678        28.1006 
 246   0.0000       1.068868        29.0854 
 247   0.0000       1.105153        30.0727 
 248   0.0000       1.168944        31.8086 
 249   0.0000       1.269039        34.5323 
 250   0.0000       1.281924        34.8829 
 251   0.0000       1.294890        35.2358 
 252   0.0000       1.327588        36.1255 
 253   0.0000       1.330490        36.2045 
 254   0.0000       1.332547        36.2604 
 255   0.0000       1.337444        36.3937 
 256   0.0000       1.352999        36.8170 
 257   0.0000       1.375480        37.4287 
 258   0.0000       1.390527        37.8382 
 259   0.0000       1.395721        37.9795 
 260   0.0000       1.402248        38.1571 
 261   0.0000       1.425227        38.7824 
 262   0.0000       1.427401        38.8416 
 263   0.0000       1.432488        38.9800 
 264   0.0000       1.440336        39.1935 
 265   0.0000       1.442214        39.2446 
 266   0.0000       1.450733        39.4765 
 267   0.0000       1.458191        39.6794 
 268   0.0000       1.462164        39.7875 
 269   0.0000       1.467103        39.9219 
 270   0.0000       1.477105        40.1941 
 271   0.0000       1.486557        40.4513 
 272   0.0000       1.487435        40.4752 
 273   0.0000       1.491126        40.5756 
 274   0.0000       1.494726        40.6736 
 275   0.0000       1.497338        40.7446 
 276   0.0000       1.498832        40.7853 
 277   0.0000       1.506135        40.9840 
 278   0.0000       1.509863        41.0854 
 279   0.0000       1.511749        41.1368 
 280   0.0000       1.513350        41.1803 
 281   0.0000       1.515707        41.2445 
 282   0.0000       1.520711        41.3806 
 283   0.0000       1.524298        41.4782 
 284   0.0000       1.529281        41.6139 
 285   0.0000       1.531307        41.6690 
 286   0.0000       1.532688        41.7066 
 287   0.0000       1.534717        41.7618 
 288   0.0000       1.540561        41.9208 
 289   0.0000       1.547832        42.1187 
 290   0.0000       1.550080        42.1798 
 291   0.0000       1.551948        42.2307 
 292   0.0000       1.555452        42.3260 
 293   0.0000       1.559281        42.4302 
 294   0.0000       1.560930        42.4751 
 295   0.0000       1.561696        42.4959 
 296   0.0000       1.563781        42.5526 
 297   0.0000       1.565974        42.6123 
 298   0.0000       1.567232        42.6466 
 299   0.0000       1.569801        42.7165 
 300   0.0000       1.569954        42.7206 
 301   0.0000       1.571802        42.7709 
 302   0.0000       1.576386        42.8956 
 303   0.0000       1.576529        42.8995 
 304   0.0000       1.578419        42.9510 
 305   0.0000       1.582320        43.0571 
 306   0.0000       1.584566        43.1182 
 307   0.0000       1.586053        43.1587 
 308   0.0000       1.586630        43.1744 
 309   0.0000       1.592614        43.3372 
 310   0.0000       1.593206        43.3534 
 311   0.0000       1.594899        43.3994 
 312   0.0000       1.597245        43.4633 
 313   0.0000       1.600200        43.5437 
 314   0.0000       1.602571        43.6082 
 315   0.0000       1.605990        43.7012 
 316   0.0000       1.607405        43.7397 
 317   0.0000       1.608776        43.7770 
 318   0.0000       1.614465        43.9318 
 319   0.0000       1.617999        44.0280 
 320   0.0000       1.618834        44.0507 
 321   0.0000       1.621078        44.1118 
 322   0.0000       1.621631        44.1268 
 323   0.0000       1.626864        44.2692 
 324   0.0000       1.628295        44.3081 
 325   0.0000       1.631937        44.4073 
 326   0.0000       1.636275        44.5253 
 327   0.0000       1.637790        44.5665 
 328   0.0000       1.638888        44.5964 
 329   0.0000       1.641020        44.6544 
 330   0.0000       1.642442        44.6931 
 331   0.0000       1.643588        44.7243 
 332   0.0000       1.647231        44.8234 
 333   0.0000       1.652000        44.9532 
 334   0.0000       1.654074        45.0096 
 335   0.0000       1.658003        45.1165 
 336   0.0000       1.666643        45.3517 
 337   0.0000       1.667299        45.3695 
 338   0.0000       1.669763        45.4366 
 339   0.0000       1.671768        45.4911 
 340   0.0000       1.672415        45.5087 
 341   0.0000       1.678272        45.6681 
 342   0.0000       1.681294        45.7503 
 343   0.0000       1.683609        45.8133 
 344   0.0000       1.684647        45.8416 
 345   0.0000       1.692191        46.0468 
 346   0.0000       1.692996        46.0688 
 347   0.0000       1.702053        46.3152 
 348   0.0000       1.715284        46.6753 
 349   0.0000       1.729047        47.0498 
 350   0.0000       1.736441        47.2510 
 351   0.0000       1.738048        47.2947 
 352   0.0000       1.741744        47.3953 
 353   0.0000       1.752896        47.6987 
 354   0.0000       1.758323        47.8464 
 355   0.0000       1.783538        48.5325 
 356   0.0000       1.803044        49.0633 
 357   0.0000       1.834962        49.9319 
 358   0.0000       1.859523        50.6002 
 359   0.0000       1.869587        50.8741 
 360   0.0000       1.874190        50.9993 
 361   0.0000       1.908096        51.9219 
 362   0.0000       1.922215        52.3061 
 363   0.0000       1.929165        52.4952 
 364   0.0000       1.936674        52.6996 
 365   0.0000       1.942079        52.8467 
 366   0.0000       1.994433        54.2713 
 367   0.0000       2.010663        54.7129 
 368   0.0000       2.039317        55.4926 
 369   0.0000       2.042497        55.5792 
 370   0.0000       2.051289        55.8184 
 371   0.0000       2.191705        59.6393 
 372   0.0000       2.281391        62.0798 
 373   0.0000       2.339328        63.6564 
 374   0.0000       2.348911        63.9171 
 375   0.0000       2.368441        64.4486 
 376   0.0000       2.397318        65.2343 
 377   0.0000       2.449574        66.6563 
 378   0.0000       2.476423        67.3869 
 379   0.0000       2.492785        67.8321 
 380   0.0000       2.505058        68.1661 
 381   0.0000       2.568089        69.8813 
 382   0.0000       2.572847        70.0107 
 383   0.0000       2.588045        70.4243 
 384   0.0000       2.611381        71.0593 
 385   0.0000       2.682718        73.0005 
 386   0.0000       2.790808        75.9418 
 387   0.0000       3.005550        81.7852 
 388   0.0000       3.061263        83.3012 
 389   0.0000       3.071633        83.5834 
 390   0.0000       3.086876        83.9982 
 391   0.0000       3.089027        84.0567 
 392   0.0000       3.100030        84.3561 
 393   0.0000       3.115186        84.7685 
 394   0.0000       3.133832        85.2759 
 395   0.0000      23.695419       644.7851 
 396   0.0000      24.084652       655.3767 
 397   0.0000      24.140186       656.8879 
 398   0.0000      24.288259       660.9171 
 399   0.0000      24.352636       662.6689 
 400   0.0000      24.454480       665.4402 
 401   0.0000      24.995262       680.1556 
 402   0.0000      25.060286       681.9251 
 403   0.0000      25.310546       688.7350 
 404   0.0000      25.439366       692.2404 
 405   0.0000      25.561702       695.5693 
 406   0.0000      25.870156       703.9627 
 407   0.0000      25.884540       704.3541 
 408   0.0000      26.029092       708.2876 
 409   0.0000      26.198408       712.8949 
 410   0.0000      26.550310       722.4707 
 411   0.0000      26.722506       727.1563 
 412   0.0000      26.805615       729.4179 
 413   0.0000      26.854780       730.7557 
 414   0.0000      27.094700       737.2843 
 415   0.0000      27.326612       743.5949 
 416   0.0000      27.524973       748.9926 
 417   0.0000      27.741235       754.8774 
 418   0.0000      27.848997       757.8097 
 419   0.0000      27.964816       760.9613 
 420   0.0000      28.157646       766.2085 
 421   0.0000      28.262203       769.0536 
 422   0.0000      28.630669       779.0801 
 423   0.0000      28.789867       783.4121 
 424   0.0000      29.163616       793.5823 
 425   0.0000      44.395778      1208.0705 
 426   0.0000      44.458875      1209.7875 
 427   0.0000      44.466543      1209.9962 
 428   0.0000      44.520996      1211.4779 
 429   0.0000      44.555708      1212.4225 
 430   0.0000      44.594404      1213.4754 
 431   0.0000      44.607703      1213.8373 
 432   0.0000      44.631910      1214.4960 
 433   0.0000      44.653053      1215.0713 
 434   0.0000      44.687732      1216.0150 
 435   0.0000     205.259003      5585.3814 
 436   0.0000     205.284436      5586.0735 
 437   0.0000     205.287895      5586.1676 
 438   0.0000     205.307619      5586.7043 
 439   0.0000     205.324665      5587.1682 
 440   0.0000     205.342330      5587.6489 
 441   0.0000     205.345246      5587.7282 
 442   0.0000     205.351095      5587.8874 
 443   0.0000     205.366998      5588.3201 
 444   0.0000     205.372833      5588.4789 

                    ********************************
                    * MULLIKEN POPULATION ANALYSIS *
                    ********************************

--------------------------------------------
MULLIKEN ATOMIC CHARGES AND SPIN POPULATIONS
--------------------------------------------
   0 Au:    0.401697    0.206167
   1 Au:    0.201290   -0.082479
   2 Au:    0.272088    0.085422
   3 Au:    0.241704   -0.054592
   4 Au:    0.260104    0.087851
   5 Au:    0.219707    0.009932
   6 Au:    0.298435    0.120805
   7 Au:    0.212424   -0.088716
   8 Au:    0.036638    0.010937
   9 Au:    0.238518   -0.060831
  10 Cr:   -2.382604    3.765502
Sum of atomic charges         :   -0.0000000
Sum of atomic spin populations:    4.0000000

-----------------------------------------------------
MULLIKEN REDUCED ORBITAL CHARGES AND SPIN POPULATIONS
-----------------------------------------------------
CHARGE
[...]
      f+1     :     0.000006
      f-1     :     0.000018
      f+2     :     0.000019
      f-2     :     0.000023
      f+3     :     0.000022
      f-3     :     0.000043
  8 Aus       :    -0.037044  s :    -0.037044
      pz      :     0.003260  p :    -0.000431
      px      :     0.000062
      py      :    -0.003752
      dz2     :    -0.000200  d :     0.014580
      dxz     :     0.008808
      dyz     :    -0.002669
      dx2y2   :     0.007780
      dxy     :     0.000862
      f0      :     0.000016  f :     0.000172
      f+1     :     0.000036
      f-1     :    -0.000003
      f+2     :     0.000067
      f-2     :    -0.000001
      f+3     :     0.000069
      f-3     :    -0.000011
  9 Aus       :    -0.218887  s :    -0.218887
      pz      :    -0.003807  p :    -0.010812
      px      :    -0.000869
      py      :    -0.006136
      dz2     :     0.002604  d :    -0.001755
      dxz     :    -0.000062
      dyz     :    -0.000481
      dx2y2   :     0.002485
      dxy     :    -0.006302
      f0      :     0.000032  f :     0.000259
      f+1     :     0.000029
      f-1     :     0.000028
      f+2     :     0.000007
      f-2     :     0.000080
      f+3     :     0.000015
      f-3     :     0.000069
 10 Crs       :     0.013211  s :     0.013211
      pz      :     0.037216  p :     0.100748
      px      :     0.025332
      py      :     0.038200
      dz2     :     0.790918  d :     3.267636
      dxz     :     0.688495
      dyz     :     0.475060
      dx2y2   :     0.732190
      dxy     :     0.580973
      f0      :     0.000012  f :     0.000119
      f+1     :     0.000012
      f-1     :     0.000020
      f+2     :     0.000020
      f-2     :     0.000023
      f+3     :     0.000013
      f-3     :     0.000019


                     *******************************
                     * LOEWDIN POPULATION ANALYSIS *
                     *******************************

-------------------------------------------
LOEWDIN ATOMIC CHARGES AND SPIN POPULATIONS
-------------------------------------------
   0 Au:    0.167611   -0.097702
   1 Au:   -0.007348   -0.128779
   2 Au:    0.122969   -0.126186
   3 Au:    0.087038   -0.175390
   4 Au:    0.123913   -0.126413
   5 Au:    0.118025   -0.101652
   6 Au:    0.153637   -0.132562
   7 Au:   -0.007347   -0.129342
   8 Au:    0.046554   -0.038284
   9 Au:    0.085596   -0.178914
  10 Cr:   -0.890647    3.235226

----------------------------------------------------
LOEWDIN REDUCED ORBITAL CHARGES AND SPIN POPULATIONS
----------------------------------------------------
CHARGE
  0 Aus       :     2.700632  s :     2.700632
      pz      :     2.117795  p :     6.277091
      px      :     2.088955
      py      :     2.070341
      dz2     :     1.989073  d :     9.851220
      dxz     :     1.986532
      dyz     :     1.952408
      dx2y2   :     1.948444
      dxy     :     1.974764
      f0      :     0.000449  f :     0.003446
      f+1     :     0.000801
      f-1     :     0.000401
      f+2     :     0.000478
      f-2     :     0.000365
      f+3     :     0.000457
      f-3     :     0.000495
  1 Aus       :     2.541307  s :     2.541307
      pz      :     2.196916  p :     6.568336
      px      :     2.193403
      py      :     2.178016
      dz2     :     1.998590  d :     9.891011
      dxz     :     1.953056
      dyz     :     1.966296
      dx2y2   :     1.987061
      dxy     :     1.986008
      f0      :     0.000731  f :     0.006694
      f+1     :     0.000925
      f-1     :     0.001113
      f+2     :     0.000753
      f-2     :     0.001263
      f+3     :     0.001070
      f-3     :     0.000840
  2 Aus       :     2.689718  s :     2.689718
      pz      :     2.067273  p :     6.328633
      px      :     2.090079
      py      :     2.171281
      dz2     :     1.956247  d :     9.854003
      dxz     :     1.971455
      dyz     :     1.976996
      dx2y2   :     1.981107
      dxy     :     1.968197
      f0      :     0.000599  f :     0.004677
      f+1     :     0.000506
      f-1     :     0.000729
      f+2     :     0.000572
      f-2     :     0.001002
      f+3     :     0.000744
      f-3     :     0.000525
  3 Aus       :     2.659613  s :     2.659613
      pz      :     2.193724  p :     6.381549
      px      :     2.111509
      py      :     2.076316
      dz2     :     1.974907  d :     9.866734
      dxz     :     1.973510
      dyz     :     1.969484
      dx2y2   :     1.964817
      dxy     :     1.984016
      f0      :     0.000662  f :     0.005066
      f+1     :     0.000970
      f-1     :     0.000714
      f+2     :     0.000710
      f-2     :     0.001032
      f+3     :     0.000529
      f-3     :     0.000449
  4 Aus       :     2.692990  s :     2.692990
      pz      :     2.068646  p :     6.324912
      px      :     2.091009
      py      :     2.165256
      dz2     :     1.965266  d :     9.853510
      dxz     :     1.966326
      dyz     :     1.976913
      dx2y2   :     1.983753
      dxy     :     1.961252
      f0      :     0.000514  f :     0.004676
      f+1     :     0.000468
      f-1     :     0.000572
      f+2     :     0.000748
      f-2     :     0.000630
      f+3     :     0.000777
      f-3     :     0.000967
  5 Aus       :     2.638822  s :     2.638822
      pz      :     2.094087  p :     6.378333
      px      :     2.189358
      py      :     2.094888
      dz2     :     1.984702  d :     9.859925
      dxz     :     1.987969
      dyz     :     1.960405
      dx2y2   :     1.984728
      dxy     :     1.942121
      f0      :     0.000485  f :     0.004895
      f+1     :     0.000834
      f-1     :     0.000565
      f+2     :     0.000472
      f-2     :     0.000661
      f+3     :     0.001001
      f-3     :     0.000876
  6 Aus       :     2.720645  s :     2.720645
      pz      :     2.069743  p :     6.233442
      px      :     2.080377
      py      :     2.083322
      dz2     :     1.975242  d :     9.887899
      dxz     :     1.983887
      dyz     :     1.977033
      dx2y2   :     1.966052
      dxy     :     1.985685
      f0      :     0.000472  f :     0.004377
      f+1     :     0.000589
      f-1     :     0.000530
      f+2     :     0.000599
      f-2     :     0.000564
      f+3     :     0.000945
      f-3     :     0.000678
  7 Aus       :     2.543211  s :     2.543211
      pz      :     2.166972  p :     6.567441
      px      :     2.293618
      py      :     2.106851
      dz2     :     2.006967  d :     9.890057
      dxz     :     1.978209
      dyz     :     1.969181
      dx2y2   :     1.949730
      dxy     :     1.985969
      f0      :     0.000758  f :     0.006638
      f+1     :     0.001267
      f-1     :     0.000642
      f+2     :     0.000750
      f-2     :     0.000776
      f+3     :     0.001344
      f-3     :     0.001100
  8 Aus       :     2.592162  s :     2.592162
      pz      :     2.090896  p :     6.465474
      px      :     2.108515
      py      :     2.266063
      dz2     :     1.990775  d :     9.889660
      dxz     :     1.971947
      dyz     :     1.987954
      dx2y2   :     1.965170
      dxy     :     1.973815
      f0      :     0.000651  f :     0.006150
      f+1     :     0.000569
      f-1     :     0.001060
      f+2     :     0.000524
      f-2     :     0.000643
      f+3     :     0.001598
      f-3     :     0.001104
  9 Aus       :     2.657722  s :     2.657722
      pz      :     2.115525  p :     6.382315
      px      :     2.107488
      py      :     2.159302
      dz2     :     1.984819  d :     9.869292
      dxz     :     1.977357
      dyz     :     1.960629
      dx2y2   :     1.986664
      dxy     :     1.959823
      f0      :     0.000559  f :     0.005074
      f+1     :     0.000861
      f-1     :     0.000676
      f+2     :     0.000665
      f-2     :     0.000583
      f+3     :     0.000917
      f-3     :     0.000814
 10 Crs       :     6.300040  s :     6.300040
      pz      :     4.213096  p :    12.624995
      px      :     4.178911
      py      :     4.232987
      dz2     :     1.140386  d :     5.963712
      dxz     :     1.215785
      dyz     :     1.299008
      dx2y2   :     1.257151
      dxy     :     1.051381
      f0      :     0.000280  f :     0.001901
      f+1     :     0.000200
      f-1     :     0.000246
      f+2     :     0.000324
      f-2     :     0.000375
      f+3     :     0.000240
      f-3     :     0.000236

SPIN
  0 Aus       :    -0.084953  s :    -0.084953
      pz      :    -0.009539  p :    -0.016347
      px      :    -0.000734
      py      :    -0.006073
      dz2     :    -0.001646  d :     0.002998
      dxz     :    -0.000414
      dyz     :     0.003330
      dx2y2   :    -0.001490
      dxy     :     0.003218
      f0      :     0.000043  f :     0.000600
      f+1     :    -0.000014
      f-1     :     0.000154
      f+2     :     0.000122
      f-2     :     0.000116
      f+3     :     0.000117
      f-3     :     0.000062
  1 Aus       :    -0.068720  s :    -0.068720
      pz      :    -0.013126  p :    -0.051681
      px      :    -0.011350
      py      :    -0.027205
      dz2     :     0.000949  d :    -0.008616
      dxz     :    -0.005444
      dyz     :    -0.004559
      dx2y2   :     0.001892
      dxy     :    -0.001455
      f0      :     0.000052  f :     0.000238
      f+1     :     0.000010
      f-1     :    -0.000036
      f+2     :     0.000022
      f-2     :     0.000109
      f+3     :     0.000021
      f-3     :     0.000061
  2 Aus       :    -0.075550  s :    -0.075550
      pz      :    -0.002240  p :    -0.061573
      px      :    -0.018230
      py      :    -0.041103
      dz2     :     0.006794  d :     0.010461
      dxz     :    -0.000037
      dyz     :     0.000365
      dx2y2   :     0.000065
      dxy     :     0.003274
      f0      :     0.000195  f :     0.000476
      f+1     :     0.000113
      f-1     :     0.000103
      f+2     :     0.000031
      f-2     :     0.000111
      f+3     :    -0.000075
      f-3     :    -0.000001
  3 Aus       :    -0.123138  s :    -0.123138
      pz      :    -0.037321  p :    -0.056980
      px      :    -0.013233
      py      :    -0.006426
      dz2     :     0.000194  d :     0.004306
      dxz     :    -0.002535
      dyz     :     0.000725
      dx2y2   :     0.003876
      dxy     :     0.002046
      f0      :     0.000063  f :     0.000422
      f+1     :    -0.000024
      f-1     :     0.000056
      f+2     :     0.000066
      f-2     :     0.000061
      f+3     :     0.000091
      f-3     :     0.000110
  4 Aus       :    -0.075485  s :    -0.075485
      pz      :    -0.005155  p :    -0.061713
      px      :    -0.017651
      py      :    -0.038907
      dz2     :     0.011137  d :     0.010309
      dxz     :     0.001842
      dyz     :     0.000769
      dx2y2   :    -0.004906
      dxy     :     0.001467
      f0      :     0.000093  f :     0.000475
      f+1     :     0.000109
      f-1     :     0.000045
      f+2     :     0.000061
      f-2     :     0.000130
      f+3     :    -0.000028
      f-3     :     0.000066
  5 Aus       :    -0.051570  s :    -0.051570
      pz      :    -0.006363  p :    -0.042196
      px      :    -0.028285
      py      :    -0.007548
      dz2     :     0.001660  d :    -0.008366
      dxz     :    -0.005154
      dyz     :     0.001682
      dx2y2   :    -0.000679
      dxy     :    -0.005876
      f0      :     0.000037  f :     0.000480
      f+1     :    -0.000007
      f-1     :     0.000143
      f+2     :     0.000080
      f-2     :     0.000108
      f+3     :     0.000107
      f-3     :     0.000012
  6 Aus       :    -0.069795  s :    -0.069795
      pz      :    -0.018231  p :    -0.039284
      px      :    -0.007218
      py      :    -0.013835
      dz2     :    -0.005976  d :    -0.023410
      dxz     :    -0.006327
      dyz     :    -0.001490
      dx2y2   :    -0.007475
      dxy     :    -0.002142
      f0      :     0.000000  f :    -0.000074
      f+1     :    -0.000026
      f-1     :    -0.000010
      f+2     :    -0.000010
      f-2     :    -0.000002
      f+3     :    -0.000022
      f-3     :    -0.000004
  7 Aus       :    -0.068126  s :    -0.068126
      pz      :    -0.026366  p :    -0.051985
      px      :    -0.011043
      py      :    -0.014576
      dz2     :    -0.002105  d :    -0.009474
      dxz     :    -0.003875
      dyz     :     0.002104
      dx2y2   :    -0.010034
      dxy     :     0.004435
      f0      :     0.000056  f :     0.000243
      f+1     :    -0.000005
      f-1     :     0.000041
      f+2     :     0.000015
      f-2     :     0.000043
      f+3     :     0.000028
      f-3     :     0.000066
  8 Aus       :    -0.023850  s :    -0.023850
      pz      :    -0.002282  p :    -0.026221
      px      :     0.000873
      py      :    -0.024812
      dz2     :    -0.002520  d :     0.011499
      dxz     :     0.011417
      dyz     :    -0.005243
      dx2y2   :     0.007778
      dxy     :     0.000068
      f0      :     0.000031  f :     0.000288
      f+1     :     0.000071
      f-1     :    -0.000015
      f+2     :     0.000117
      f-2     :    -0.000004
      f+3     :     0.000107
      f-3     :    -0.000018
  9 Aus       :    -0.125907  s :    -0.125907
      pz      :    -0.017559  p :    -0.057445
      px      :    -0.014418
      py      :    -0.025468
      dz2     :     0.003504  d :     0.004029
      dxz     :     0.001356
      dyz     :     0.000959
      dx2y2   :     0.002567
      dxy     :    -0.004357
      f0      :     0.000051  f :     0.000409
      f+1     :     0.000052
      f-1     :     0.000035
      f+2     :    -0.000002
      f-2     :     0.000129
      f+3     :     0.000034
      f-3     :     0.000108
 10 Crs       :     0.026443  s :     0.026443
      pz      :     0.017421  p :     0.045808
      px      :     0.011921
      py      :     0.016466
      dz2     :     0.779921  d :     3.162912
      dxz     :     0.654438
      dyz     :     0.453793
      dx2y2   :     0.722515
      dxy     :     0.552244
      f0      :     0.000000  f :     0.000062
      f+1     :     0.000006
      f-1     :     0.000014
      f+2     :     0.000011
      f-2     :     0.000012
      f+3     :     0.000006
      f-3     :     0.000012


                      *****************************
                      * MAYER POPULATION ANALYSIS *
                      *****************************

  NA   - Mulliken gross atomic population
  ZA   - Total nuclear charge
  QA   - Mulliken gross atomic charge
  VA   - Mayer's total valence
  BVA  - Mayer's bonded valence
  FA   - Mayer's free valence

  ATOM       NA         ZA         QA         VA         BVA        FA
  0 Au    18.6406    19.0000     0.3594     1.4768     1.4581     0.0187
  1 Au    18.7852    19.0000     0.2148     1.9164     1.8927     0.0237
  2 Au    18.7801    19.0000     0.2199     1.5774     1.5590     0.0184
  3 Au    18.7091    19.0000     0.2909     1.5864     1.5341     0.0522
  4 Au    18.7914    19.0000     0.2086     1.5760     1.5577     0.0183
  5 Au    18.7742    19.0000     0.2258     1.6943     1.6796     0.0148
  6 Au    18.6316    19.0000     0.3684     1.3757     1.3603     0.0154
  7 Au    18.7744    19.0000     0.2256     1.9112     1.8880     0.0232
  8 Au    18.9742    19.0000     0.0258     1.8141     1.8092     0.0049
  9 Au    18.7084    19.0000     0.2916     1.5800     1.5252     0.0548
 10 Cr    26.4307    24.0000    -2.4307     8.9396     6.0469     2.8927

  Mayer bond orders larger than 0.100000
B(  0-Au,  1-Au) :   0.1662 B(  0-Au,  7-Au) :   0.1708 B(  0-Au, 10-Cr) :   0.8825 
B(  1-Au,  2-Au) :   0.3746 B(  1-Au,  6-Au) :   0.3478 B(  1-Au,  8-Au) :   0.1903 
B(  1-Au, 10-Cr) :   0.5744 B(  2-Au,  3-Au) :   0.3329 B(  2-Au, 10-Cr) :   0.6661 
B(  3-Au,  5-Au) :   0.1058 B(  3-Au,  9-Au) :   0.2355 B(  3-Au, 10-Cr) :   0.6338 
B(  4-Au,  7-Au) :   0.3742 B(  4-Au,  9-Au) :   0.3351 B(  4-Au, 10-Cr) :   0.6669 
B(  5-Au,  8-Au) :   0.5297 B(  5-Au,  9-Au) :   0.1050 B(  5-Au, 10-Cr) :   0.7880 
B(  6-Au,  7-Au) :   0.3405 B(  6-Au,  8-Au) :   0.3567 B(  6-Au, 10-Cr) :   0.1803 
B(  7-Au,  8-Au) :   0.1787 B(  7-Au, 10-Cr) :   0.5834 B(  8-Au, 10-Cr) :   0.4477 
B(  9-Au, 10-Cr) :   0.6238 

-------
TIMINGS
-------

Total SCF time: 0 days 0 hours 2 min 2 sec 

Total time                  ....     122.138 sec
Sum of individual times     ....     117.412 sec  ( 96.1%)

Fock matrix formation       ....      96.921 sec  ( 79.4%)
  Split-RI-J                ....      19.467 sec  ( 20.1% of F)
  XC integration            ....      71.827 sec  ( 74.1% of F)
    Basis function eval.    ....       4.038 sec  (  5.6% of XC)
    Density eval.           ....      23.089 sec  ( 32.1% of XC)
    XC-Functional eval.     ....       2.913 sec  (  4.1% of XC)
    XC-Potential eval.      ....      29.025 sec  ( 40.4% of XC)
Diagonalization             ....      17.355 sec  ( 14.2%)
Density matrix formation    ....       0.471 sec  (  0.4%)
Population analysis         ....       0.832 sec  (  0.7%)
Initial guess               ....       0.184 sec  (  0.2%)
Orbital Transformation      ....       0.000 sec  (  0.0%)
Orbital Orthonormalization  ....       0.126 sec  (  0.1%)
DIIS solution               ....       0.000 sec  (  0.0%)
Grid generation             ....       1.648 sec  (  1.3%)

Maximum memory used throughout the entire SCF-calculation: 65.3 MB

-------------------------   --------------------
FINAL SINGLE POINT ENERGY     -2402.869019763805
-------------------------   --------------------


                            ***************************************
                            *     ORCA property calculations      *
                            ***************************************

                                    ---------------------
                                    Active property flags
                                    ---------------------
   (+) Dipole Moment


------------------------------------------------------------------------------
                       ORCA ELECTRIC PROPERTIES CALCULATION
------------------------------------------------------------------------------

Dipole Moment Calculation                       ... on
Quadrupole Moment Calculation                   ... off
Polarizability Calculation                      ... off
GBWName                                         ... scan_job2.gbw
Electron density                                ... scan_job2.scfp
The origin for moment calculation is the CENTER OF MASS  = (16.690872, 12.706408 12.495702)

-------------
DIPOLE MOMENT
-------------
                                X             Y             Z
Electronic contribution:     20.39964     -10.24569      -6.46484
Nuclear contribution   :    -20.14076      10.01300       6.42954
                        -----------------------------------------
Total Dipole Moment    :      0.25888      -0.23269      -0.03530
                        -----------------------------------------
Magnitude (a.u.)       :      0.34987
Magnitude (Debye)      :      0.88931



--------------------
Rotational spectrum 
--------------------
 
Rotational constants in cm-1:     0.002151     0.001469     0.001354 
Rotational constants in MHz :    64.480668    44.026810    40.602947 

 Dipole components along the rotational axes: 
x,y,z [a.u.] :     0.342487     0.001054    -0.071504 
x,y,z [Debye]:     0.870532     0.002680    -0.181748 

 

Timings for individual modules:

Sum of individual times         ...      130.071 sec (=   2.168 min)
GTO integral calculation        ...        7.568 sec (=   0.126 min)   5.8 %
SCF iterations                  ...      122.504 sec (=   2.042 min)  94.2 %



                             ****ORCA TERMINATED NORMALLY****
TOTAL RUN TIME: 0 days 0 hours 4 minutes 40 seconds 470 msec
