
                                 *****************
                                 * O   R   C   A *
                                 *****************

                                            #,                                       
                                            ###                                      
                                            ####                                     
                                            #####                                    
                                            ######                                   
                                           ########,                                 
                                     ,,################,,,,,                         
                               ,,#################################,,                 
                          ,,##########################################,,             
                       ,#########################################, ''#####,          
                    ,#############################################,,   '####,        
                  ,##################################################,,,,####,       
                ,###########''''           ''''###############################       
              ,#####''   ,,,,##########,,,,          '''####'''          '####       
            ,##' ,,,,###########################,,,                        '##       
           ' ,,###''''                  '''############,,,                           
         ,,##''                                '''############,,,,        ,,,,,,###''
      ,#''                                            '''#######################'''  
     '                                                          ''''####''''         
             ,#######,   #######,   ,#######,      ##                                
            ,#'     '#,  ##    ##  ,#'     '#,    #''#        ######   ,####,        
            ##       ##  ##   ,#'  ##            #'  '#       #        #'  '#        
            ##       ##  #######   ##           ,######,      #####,   #    #        
            '#,     ,#'  ##    ##  '#,     ,#' ,#      #,         ##   #,  ,#        
             '#######'   ##     ##  '#######'  #'      '#     #####' # '####'        



                  #######################################################
                  #                        -***-                        #
                  #          Department of theory and spectroscopy      #
                  #    Directorship and core code : Frank Neese         #
                  #        Max Planck Institute fuer Kohlenforschung    #
                  #                Kaiser Wilhelm Platz 1               #
                  #                 D-45470 Muelheim/Ruhr               #
                  #                      Germany                        #
                  #                                                     #
                  #                  All rights reserved                #
                  #                        -***-                        #
                  #######################################################


                         Program Version 5.0.3 -  RELEASE  -


 With contributions from (in alphabetic order):
   Daniel Aravena         : Magnetic Suceptibility
   Michael Atanasov       : Ab Initio Ligand Field Theory (pilot matlab implementation)
   Alexander A. Auer      : GIAO ZORA, VPT2 properties, NMR spectrum
   Ute Becker             : Parallelization
   Giovanni Bistoni       : ED, misc. LED, open-shell LED, HFLD
   Martin Brehm           : Molecular dynamics
   Dmytro Bykov           : SCF Hessian
   Vijay G. Chilkuri      : MRCI spin determinant printing, contributions to CSF-ICE
   Dipayan Datta          : RHF DLPNO-CCSD density
   Achintya Kumar Dutta   : EOM-CC, STEOM-CC
   Dmitry Ganyushin       : Spin-Orbit,Spin-Spin,Magnetic field MRCI
   Miquel Garcia          : C-PCM and meta-GGA Hessian, CC/C-PCM, Gaussian charge scheme
   Yang Guo               : DLPNO-NEVPT2, F12-NEVPT2, CIM, IAO-localization
   Andreas Hansen         : Spin unrestricted coupled pair/coupled cluster methods
   Benjamin Helmich-Paris : MC-RPA, TRAH-SCF, COSX integrals
   Lee Huntington         : MR-EOM, pCC
   Robert Izsak           : Overlap fitted RIJCOSX, COSX-SCS-MP3, EOM
   Marcus Kettner         : VPT2
   Christian Kollmar      : KDIIS, OOCD, Brueckner-CCSD(T), CCSD density, CASPT2, CASPT2-K
   Simone Kossmann        : Meta GGA functionals, TD-DFT gradient, OOMP2, MP2 Hessian
   Martin Krupicka        : Initial AUTO-CI
   Lucas Lang             : DCDCAS
   Marvin Lechner         : AUTO-CI (C++ implementation), FIC-MRCC
   Dagmar Lenk            : GEPOL surface, SMD
   Dimitrios Liakos       : Extrapolation schemes; Compound Job, initial MDCI parallelization
   Dimitrios Manganas     : Further ROCIS development; embedding schemes
   Dimitrios Pantazis     : SARC Basis sets
   Anastasios Papadopoulos: AUTO-CI, single reference methods and gradients
   Taras Petrenko         : DFT Hessian,TD-DFT gradient, ASA, ECA, R-Raman, ABS, FL, XAS/XES, NRVS
   Peter Pinski           : DLPNO-MP2, DLPNO-MP2 Gradient
   Christoph Reimann      : Effective Core Potentials
   Marius Retegan         : Local ZFS, SOC
   Christoph Riplinger    : Optimizer, TS searches, QM/MM, DLPNO-CCSD(T), (RO)-DLPNO pert. Triples
   Tobias Risthaus        : Range-separated hybrids, TD-DFT gradient, RPA, STAB
   Michael Roemelt        : Original ROCIS implementation
   Masaaki Saitow         : Open-shell DLPNO-CCSD energy and density
   Barbara Sandhoefer     : DKH picture change effects
   Avijit Sen             : IP-ROCIS
   Kantharuban Sivalingam : CASSCF convergence, NEVPT2, FIC-MRCI
   Bernardo de Souza      : ESD, SOC TD-DFT
   Georgi Stoychev        : AutoAux, RI-MP2 NMR, DLPNO-MP2 response
   Willem Van den Heuvel  : Paramagnetic NMR
   Boris Wezisla          : Elementary symmetry handling
   Frank Wennmohs         : Technical directorship


 We gratefully acknowledge several colleagues who have allowed us to
 interface, adapt or use parts of their codes:
   Stefan Grimme, W. Hujo, H. Kruse, P. Pracht,  : VdW corrections, initial TS optimization,
                  C. Bannwarth, S. Ehlert          DFT functionals, gCP, sTDA/sTD-DF
   Ed Valeev, F. Pavosevic, A. Kumar             : LibInt (2-el integral package), F12 methods
   Garnet Chan, S. Sharma, J. Yang, R. Olivares  : DMRG
   Ulf Ekstrom                                   : XCFun DFT Library
   Mihaly Kallay                                 : mrcc  (arbitrary order and MRCC methods)
   Jiri Pittner, Ondrej Demel                    : Mk-CCSD
   Frank Weinhold                                : gennbo (NPA and NBO analysis)
   Christopher J. Cramer and Donald G. Truhlar   : smd solvation model
   Lars Goerigk                                  : TD-DFT with DH, B97 family of functionals
   V. Asgeirsson, H. Jonsson                     : NEB implementation
   FAccTs GmbH                                   : IRC, NEB, NEB-TS, DLPNO-Multilevel, CI-OPT
                                                   MM, QMMM, 2- and 3-layer-ONIOM, Crystal-QMMM,
                                                   LR-CPCM, SF, NACMEs, symmetry and pop. for TD-DFT,
                                                   nearIR, NL-DFT gradient (VV10), updates on ESD,
                                                   ML-optimized integration grids
   S Lehtola, MJT Oliveira, MAL Marques          : LibXC Library
   Liviu Ungur et al                             : ANISO software


 Your calculation uses the libint2 library for the computation of 2-el integrals
 For citations please refer to: http://libint.valeyev.net

 Your ORCA version has been built with support for libXC version: 5.1.0
 For citations please refer to: https://tddft.org/programs/libxc/

 This ORCA versions uses:
   CBLAS   interface :  Fast vector & matrix operations
   LAPACKE interface :  Fast linear algebra routines
   SCALAPACK package :  Parallel linear algebra routines
   Shared memory     :  Shared parallel matrices
   BLAS/LAPACK       :  OpenBLAS 0.3.15  USE64BITINT DYNAMIC_ARCH NO_AFFINITY Sandybridge SINGLE_THREADED
        Core in use  :  Sandybridge
   Copyright (c) 2011-2014, The OpenBLAS Project




***************************************
The coordinates will be read from file: 5.xyz
***************************************


================================================================================

cite the ECPs for Au [Def2-ECP] as follows:
Ce-Yb(ecp-28): M. Dolg, H. Stoll, H.Preuss, J. Chem. Phys., 1989, 90, 1730-1734.
Y-Cd(ecp-28), Hf-Hg(ecp-46): D. Andrae,U. Haeussermann, M. Dolg, H. Stoll, H. Preuss, Theor. Chim. Acta, 1990, 77, 123-141.
In-Sb(ecp-28), Tl-Bi(ecp-46): B. Metz, H. Stoll, M. Dolg, J. Chem. Phys., 2000, 113, 2563-2569.
Te-Xe(ecp-28), Po-Rn(ecp-46): K. A. Peterson, D. Figgen, E. Goll, H. Stoll, M. Dolg, J. Chem. Phys., 2003, 119, 11113-11123.
Rb(ecp-28), Cs(ecp-46): T. Leininger, A. Nicklass, W. Kuechle, H. Stoll, M. Dolg, A. Bergner, Chem. Phys. Lett., 1996, 255, 274-280.
Sr(ecp-28), Ba(ecp-46): M. Kaupp, P. V. Schleyer, H. Stoll and H. Preuss, J. Chem. Phys., 1991, 94, 1360-1366.
La(ecp-46): M. Dolg, H. Stoll, A. Savin, H. Preuss, Theor. Chim. Acta, 1989, 75, 173-194.
Lu(ecp-28): X. Cao, M. Dolg, J. Chem. Phys., 2001, 115, 7348-7355.

ECP parameters for Au [Def2-ECP] have been obtained from:
TURBOMOLE (7.0.2)

----- Orbital basis set information -----
Your calculation utilizes the basis: def2-TZVP
   F. Weigend and R. Ahlrichs, Phys. Chem. Chem. Phys. 7, 3297 (2005).

----- AuxJ basis set information -----
Your calculation utilizes the auxiliary basis: def2/J
   F. Weigend, Phys. Chem. Chem. Phys. 8, 1057 (2006).

================================================================================
                                        WARNINGS
                       Please study these warnings very carefully!
================================================================================


WARNING: your system is open-shell and RHF/RKS was chosen
  ===> : WILL SWITCH to UHF/UKS


WARNING: Geometry Optimization
  ===> : Switching off AutoStart
         For restart on a previous wavefunction, please use MOREAD

INFO   : the flag for use of the SHARK integral package has been found!

================================================================================
                                       INPUT FILE
================================================================================
NAME = pbe.inp
|  1> %pal nprocs 1 end 
|  2> 
|  3> !PBE def2-TZVP OPT UNO
|  4> !SLOWCONV KDIIS 
|  5> 
|  6> %geom maxiter 300 end
|  7> 
|  8> *xyzfile 0 6 5.xyz                           ****END OF INPUT****
================================================================================

                       *****************************
                       * Geometry Optimization Run *
                       *****************************

Geometry optimization settings:
Update method            Update   .... BFGS
Choice of coordinates    CoordSys .... Z-matrix Internals
Initial Hessian          InHess   .... Almoef's Model

Convergence Tolerances:
Energy Change            TolE     ....  5.0000e-06 Eh
Max. Gradient            TolMAXG  ....  3.0000e-04 Eh/bohr
RMS Gradient             TolRMSG  ....  1.0000e-04 Eh/bohr
Max. Displacement        TolMAXD  ....  4.0000e-03 bohr
RMS Displacement         TolRMSD  ....  2.0000e-03 bohr
Strict Convergence                ....  False
------------------------------------------------------------------------------
                        ORCA OPTIMIZATION COORDINATE SETUP
------------------------------------------------------------------------------

The optimization will be done in new redundant internal coordinates
Making redundant internal coordinates   ...  (new redundants) done
Evaluating the initial hessian          ...  (Almloef) done
Evaluating the coordinates              ...  done
Calculating the B-matrix                .... done
Calculating the G-matrix                .... done
Diagonalizing the G-matrix              .... done
The first mode is                       ....  629
The number of degrees of freedom        ....   45

    -----------------------------------------------------------------
                    Redundant Internal Coordinates


    -----------------------------------------------------------------
         Definition                    Initial Value    Approx d2E/dq
    -----------------------------------------------------------------
      1. B(Au  1,Au  0)                  2.9425         0.004036   
      2. B(Au  2,Au  1)                  2.8670         0.005327   
      3. B(Au  2,Au  0)                  2.6971         0.009943   
      4. B(Au  4,Au  1)                  2.9431         0.004027   
      5. B(Au  5,Au  2)                  2.8728         0.005214   
      6. B(Au  8,Au  7)                  2.8036         0.006723   
      7. B(Au  8,Au  1)                  2.8669         0.005328   
      8. B(Au  8,Au  4)                  2.6973         0.009934   
      9. B(Au  9,Au  7)                  2.7489         0.008221   
     10. B(Au  9,Au  6)                  2.8541         0.005586   
     11. B(Au 10,Au  9)                  2.8764         0.005147   
     12. B(Au 10,Au  7)                  2.9370         0.004119   
     13. B(Au 10,Au  8)                  2.8732         0.005206   
     14. B(Au 11,Au  2)                  2.7918         0.007022   
     15. B(Au 11,Au  1)                  2.9017         0.004690   
     16. B(Au 12,Au  7)                  2.8040         0.006714   
     17. B(Au 12,Au  8)                  2.7923         0.007008   
     18. B(Au 12,Au 11)                  2.7387         0.008533   
     19. B(Au 12,Au  1)                  2.9015         0.004693   
     20. B(Au 13,Au 12)                  2.8809         0.005061   
     21. B(Au 13,Au  9)                  2.8590         0.005485   
     22. B(Au 13,Au 11)                  2.8812         0.005056   
     23. B(Au 13,Au  7)                  2.8787         0.005103   
     24. B(Au 14,Au 13)                  2.8593         0.005480   
     25. B(Au 14,Au  9)                  2.7967         0.006896   
     26. B(Au 14,Au  6)                  2.8541         0.005585   
     27. B(Au 14,Au  5)                  2.8763         0.005147   
     28. B(Au 15,Au  5)                  2.9365         0.004126   
     29. B(Au 15,Au  2)                  2.8034         0.006729   
     30. B(Au 15,Au 14)                  2.7484         0.008234   
     31. B(Au 15,Au 13)                  2.8792         0.005094   
     32. B(Au 15,Au 11)                  2.8043         0.006707   
     33. B(Mn 16,Au 10)                  2.5694         0.115576   
     34. B(Mn 16,Au  4)                  2.6068         0.100732   
     35. B(Mn 16,Au  6)                  2.4417         0.184754   
     36. B(Mn 16,Au  5)                  2.5693         0.115589   
     37. B(Mn 16,Au  3)                  2.4700         0.166470   
     38. B(Mn 16,Au  0)                  2.6069         0.100687   
     39. A(Au  1,Au  0,Mn 16)           90.6333         0.179050   
     40. A(Au  2,Au  0,Mn 16)          107.7481         0.199437   
     41. A(Au  1,Au  0,Au  2)           60.9261         0.136546   
     42. A(Au 11,Au  1,Au 12)           56.3206         0.130502   
     43. A(Au  4,Au  1,Au  8)           55.3054         0.130264   
     44. A(Au  2,Au  1,Au 11)           57.8844         0.131708   
     45. A(Au  4,Au  1,Au 11)          146.0434         0.129089   
     46. A(Au  4,Au  1,Au 12)          111.1959         0.129096   
     47. A(Au  8,Au  1,Au 11)          111.4695         0.131711   
     48. A(Au  2,Au  1,Au  4)          111.9381         0.130262   
     49. A(Au  0,Au  1,Au  4)           59.4501         0.127750   
     50. A(Au  0,Au  1,Au  2)           55.3052         0.130281   
     51. A(Au  8,Au  1,Au 12)           57.8997         0.131718   
     52. A(Au  0,Au  1,Au 11)          111.1841         0.129109   
     53. A(Au  2,Au  1,Au  8)          143.8877         0.132960   
     54. A(Au  2,Au  1,Au 12)          111.4541         0.131715   
     55. A(Au  0,Au  1,Au 12)          146.0459         0.129115   
     56. A(Au  0,Au  1,Au  8)          111.9421         0.130284   
     57. A(Au  0,Au  2,Au 15)          123.0209         0.142377   
     58. A(Au  0,Au  2,Au  1)           63.7687         0.139627   
     59. A(Au  1,Au  2,Au  5)           94.9306         0.132744   
     60. A(Au  1,Au  2,Au 15)          105.3293         0.135345   
     61. A(Au  0,Au  2,Au  5)           63.3882         0.139383   
     62. A(Au  1,Au  2,Au 11)           61.6803         0.135794   
     63. A(Au  0,Au  2,Au 11)          122.9037         0.142895   
     64. A(Au  5,Au  2,Au 11)          105.8739         0.135568   
     65. A(Au 11,Au  2,Au 15)           60.1580         0.138336   
     66. A(Au  5,Au  2,Au 15)           62.2938         0.135120   
     67. A(Au  8,Au  4,Mn 16)          107.7504         0.199425   
     68. A(Au  1,Au  4,Au  8)           60.9139         0.136513   
     69. A(Au  1,Au  4,Mn 16)           90.6230         0.179016   
     70. A(Au 15,Au  5,Mn 16)          132.5936         0.182371   
     71. A(Au  2,Au  5,Mn 16)          103.7233         0.187451   
     72. A(Au 14,Au  5,Au 15)           56.4233         0.130167   
     73. A(Au 14,Au  5,Mn 16)          105.3030         0.187166   
     74. A(Au  2,Au  5,Au 15)           57.6934         0.130287   
     75. A(Au  2,Au  5,Au 14)          110.9617         0.132407   
     76. A(Au  9,Au  6,Au 14)           58.6742         0.133911   
     77. A(Au  9,Au  6,Mn 16)          109.5715         0.200198   
     78. A(Au 14,Au  6,Mn 16)          109.5674         0.200194   
     79. A(Au  8,Au  7,Au 13)          100.7450         0.134889   
     80. A(Au 12,Au  7,Au 13)           60.9074         0.134874   
     81. A(Au  9,Au  7,Au 13)           61.0154         0.137026   
     82. A(Au 10,Au  7,Au 13)           90.4426         0.130071   
     83. A(Au 10,Au  7,Au 12)          103.8725         0.132702   
     84. A(Au  9,Au  7,Au 12)          119.2428         0.140102   
     85. A(Au  8,Au  7,Au 12)           59.7291         0.137828   
     86. A(Au  9,Au  7,Au 10)           60.6720         0.134752   
     87. A(Au  8,Au  7,Au 10)           60.0134         0.132716   
     88. A(Au  8,Au  7,Au  9)          117.1190         0.140118   
     89. A(Au  1,Au  8,Au 10)           94.9254         0.132733   
     90. A(Au  1,Au  8,Au  4)           63.7807         0.139620   
     91. A(Au  7,Au  8,Au 12)           60.1423         0.138305   
     92. A(Au  7,Au  8,Au 10)           62.2975         0.135097   
     93. A(Au  4,Au  8,Au  7)          123.0161         0.142356   
     94. A(Au  1,Au  8,Au 12)           61.6702         0.135776   
     95. A(Au 10,Au  8,Au 12)          105.8597         0.135532   
     96. A(Au  4,Au  8,Au 12)          122.9015         0.142859   
     97. A(Au  4,Au  8,Au 10)           63.3800         0.139356   
     98. A(Au  1,Au  8,Au  7)          105.3129         0.135339   
     99. A(Au  7,Au  9,Au 14)          120.3476         0.140413   
    100. A(Au  7,Au  9,Au 10)           62.9002         0.137118   
    101. A(Au  6,Au  9,Au  7)          119.6101         0.138018   
    102. A(Au 10,Au  9,Au 14)          104.9806         0.135242   
    103. A(Au  6,Au  9,Au 14)           60.6636         0.136107   
    104. A(Au  6,Au  9,Au 10)           60.1012         0.133088   
    105. A(Au  7,Au  9,Au 13)           61.7338         0.137816   
    106. A(Au 10,Au  9,Au 13)           92.0762         0.132907   
    107. A(Au 13,Au  9,Au 14)           60.7246         0.135913   
    108. A(Au  6,Au  9,Au 13)          101.9241         0.133728   
    109. A(Au  8,Au 10,Au  9)          110.9646         0.132392   
    110. A(Au  9,Au 10,Mn 16)          105.3037         0.187160   
    111. A(Au  8,Au 10,Mn 16)          103.7179         0.187417   
    112. A(Au  7,Au 10,Au  8)           57.6891         0.130258   
    113. A(Au  7,Au 10,Au  9)           56.4278         0.130150   
    114. A(Au  7,Au 10,Mn 16)          132.5833         0.182333   
    115. A(Au  2,Au 11,Au 12)          119.0641         0.141061   
    116. A(Au 13,Au 11,Au 15)           60.8319         0.134767   
    117. A(Au 12,Au 11,Au 13)           61.6163         0.137331   
    118. A(Au  2,Au 11,Au 13)          100.9624         0.135245   
    119. A(Au 12,Au 11,Au 15)          120.3704         0.140523   
    120. A(Au  2,Au 11,Au 15)           60.1263         0.138299   
    121. A(Au  1,Au 11,Au 13)           90.3348         0.131207   
    122. A(Au  1,Au 11,Au 15)          104.3906         0.133995   
    123. A(Au  1,Au 11,Au 12)           61.8360         0.136515   
    124. A(Au  1,Au 11,Au  2)           60.4352         0.134465   
    125. A(Au  7,Au 12,Au 13)           60.8264         0.134788   
    126. A(Au 11,Au 12,Au 13)           61.6262         0.137342   
    127. A(Au  8,Au 12,Au 13)          100.9622         0.135235   
    128. A(Au  8,Au 12,Au 11)          119.0674         0.141038   
    129. A(Au  1,Au 12,Au 13)           90.3442         0.131224   
    130. A(Au  7,Au 12,Au 11)          120.3752         0.140535   
    131. A(Au  1,Au 12,Au  7)          104.3909         0.134013   
    132. A(Au  7,Au 12,Au  8)           60.1286         0.138289   
    133. A(Au  1,Au 12,Au 11)           61.8434         0.136523   
    134. A(Au  1,Au 12,Au  8)           60.4301         0.134452   
    135. A(Au 12,Au 13,Au 15)          113.2224         0.132013   
    136. A(Au 11,Au 13,Au 15)           58.2640         0.132004   
    137. A(Au  9,Au 13,Au 15)          113.9386         0.132804   
    138. A(Au  7,Au 13,Au 15)          150.9979         0.132095   
    139. A(Au 12,Au 13,Au 14)          149.0768         0.132731   
    140. A(Au 11,Au 13,Au 14)          113.1287         0.132721   
    141. A(Au  9,Au 13,Au 14)           58.5600         0.133534   
    142. A(Au  7,Au 13,Au 14)          113.9559         0.132813   
    143. A(Au 11,Au 13,Au 12)           56.7575         0.131941   
    144. A(Au  9,Au 13,Au 12)          113.1474         0.132740   
    145. A(Au  7,Au 13,Au 12)           58.2661         0.132032   
    146. A(Au  9,Au 13,Au 11)          149.0783         0.132730   
    147. A(Au  7,Au 13,Au 11)          113.2250         0.132022   
    148. A(Au 14,Au 13,Au 15)           57.2322         0.132794   
    149. A(Au  7,Au 13,Au  9)           57.2508         0.132823   
    150. A(Au  9,Au 14,Au 15)          120.3530         0.140432   
    151. A(Au  6,Au 14,Au  9)           60.6622         0.136106   
    152. A(Au  5,Au 14,Au  9)          104.9825         0.135243   
    153. A(Au  9,Au 14,Au 13)           60.7154         0.135903   
    154. A(Au 13,Au 14,Au 15)           61.7478         0.137824   
    155. A(Au  6,Au 14,Au 13)          101.9167         0.133717   
    156. A(Au  5,Au 14,Au 13)           92.0753         0.132899   
    157. A(Au  6,Au 14,Au 15)          119.6123         0.138035   
    158. A(Au  5,Au 14,Au 15)           62.8947         0.137137   
    159. A(Au  5,Au 14,Au  6)           60.1070         0.133088   
    160. A(Au 13,Au 15,Au 14)           61.0200         0.137023   
    161. A(Au 11,Au 15,Au 13)           60.9042         0.134844   
    162. A(Au  5,Au 15,Au 13)           90.4455         0.130070   
    163. A(Au  2,Au 15,Au 13)          100.7316         0.134878   
    164. A(Au 11,Au 15,Au 14)          119.2453         0.140109   
    165. A(Au  5,Au 15,Au 14)           60.6820         0.134786   
    166. A(Au  2,Au 15,Au 14)          117.1246         0.140147   
    167. A(Au  5,Au 15,Au 11)          103.8673         0.132709   
    168. A(Au  2,Au 15,Au 11)           59.7157         0.137825   
    169. A(Au  2,Au 15,Au  5)           60.0128         0.132741   
    170. A(Au  6,Mn 16,Au 10)           69.8200         0.336577   
    171. A(Au  5,Mn 16,Au 10)          112.9492         0.311643   
    172. A(Au  0,Mn 16,Au  6)          138.6475         0.328968   
    173. A(Au  4,Mn 16,Au 10)           68.9522         0.304817   
    174. A(Au  3,Mn 16,Au 10)          121.9923         0.330805   
    175. A(Au  4,Mn 16,Au  5)          125.0417         0.304823   
    176. A(Au  3,Mn 16,Au  4)           65.5154         0.323398   
    177. A(Au  0,Mn 16,Au 10)          125.0306         0.304795   
    178. A(Au  5,Mn 16,Au  6)           69.8275         0.336583   
    179. A(Au  3,Mn 16,Au  5)          121.9869         0.330811   
    180. A(Au  4,Mn 16,Au  6)          138.6428         0.328992   
    181. A(Au  3,Mn 16,Au  6)          145.0704         0.357891   
    182. A(Au  0,Mn 16,Au  5)           68.9507         0.304801   
    183. A(Au  0,Mn 16,Au  4)           68.0763         0.298185   
    184. A(Au  0,Mn 16,Au  3)           65.5204         0.323374   
    185. D(Au  8,Au  1,Au  0,Mn 16)     31.2593         0.001501   
    186. D(Au  4,Au  1,Au  0,Au  2)    159.4310         0.001501   
    187. D(Au 11,Au  1,Au  0,Mn 16)    -94.1430         0.001501   
    188. D(Au  2,Au  1,Au  0,Mn 16)   -110.0388         0.001501   
    189. D(Au  8,Au  1,Au  0,Au  2)    141.2981         0.001501   
    190. D(Au 11,Au  1,Au  0,Au  2)     15.8959         0.001501   
    191. D(Au 12,Au  1,Au  0,Mn 16)    -33.4348         0.001501   
    192. D(Au 12,Au  1,Au  0,Au  2)     76.6040         0.001501   
    193. D(Au  4,Au  1,Au  0,Mn 16)     49.3922         0.001501   
    194. D(Au 11,Au  2,Au  1,Au 12)     18.1680         0.001501   
    195. D(Au 15,Au  2,Au  0,Mn 16)    -11.2691         0.001503   
    196. D(Au 15,Au  2,Au  1,Au  0)    119.6599         0.001501   
    197. D(Au 11,Au  2,Au  1,Au  8)     82.6943         0.001501   
    198. D(Au 15,Au  2,Au  1,Au  4)    100.6225         0.001501   
    199. D(Au 11,Au  2,Au  0,Mn 16)     62.0914         0.001503   
    200. D(Au 11,Au  2,Au  1,Au  0)    162.4510         0.001501   
    201. D(Au  0,Au  2,Au  1,Au  8)    -79.7567         0.001501   
    202. D(Au  1,Au  2,Au  0,Mn 16)     80.5216         0.001503   
    203. D(Au  0,Au  2,Au  1,Au 12)   -144.2830         0.001501   
    204. D(Au  5,Au  2,Au  1,Au  0)     57.0620         0.001501   
    205. D(Au  5,Au  2,Au  0,Mn 16)    -30.2132         0.001503   
    206. D(Au  5,Au  2,Au  1,Au  4)     38.0246         0.001501   
    207. D(Au  5,Au  2,Au  1,Au 11)   -105.3891         0.001501   
    208. D(Au 15,Au  2,Au  1,Au  8)     39.9031         0.001501   
    209. D(Au  0,Au  2,Au  1,Au  4)    -19.0374         0.001501   
    210. D(Au  0,Au  2,Au  1,Au 11)   -162.4510         0.001501   
    211. D(Au 11,Au  2,Au  1,Au  4)    143.4136         0.001501   
    212. D(Au 15,Au  2,Au  0,Au  1)    -91.7907         0.001503   
    213. D(Au 11,Au  2,Au  0,Au  1)    -18.4301         0.001503   
    214. D(Au  5,Au  2,Au  0,Au  1)   -110.7348         0.001503   
    215. D(Au 15,Au  2,Au  1,Au 12)    -24.6231         0.001501   
    216. D(Au  5,Au  2,Au  1,Au 12)    -87.2210         0.001501   
    217. D(Au 15,Au  2,Au  1,Au 11)    -42.7911         0.001501   
    218. D(Au  5,Au  2,Au  1,Au  8)    -22.6948         0.001501   
    219. D(Au  8,Au  4,Au  1,Au 12)    -15.9126         0.001501   
    220. D(Au  8,Au  4,Au  1,Au  2)   -141.3005         0.001501   
    221. D(Au  8,Au  4,Au  1,Au 11)    -76.6392         0.001501   
    222. D(Mn 16,Au  4,Au  1,Au 12)     94.1373         0.001501   
    223. D(Mn 16,Au  4,Au  1,Au 11)     33.4107         0.001501   
    224. D(Mn 16,Au  4,Au  1,Au  0)    -49.3952         0.001501   
    225. D(Mn 16,Au  4,Au  1,Au  8)    110.0499         0.001501   
    226. D(Au  8,Au  4,Au  1,Au  0)   -159.4451         0.001501   
    227. D(Mn 16,Au  4,Au  1,Au  2)    -31.2505         0.001501   
    228. D(Au 14,Au  5,Au  2,Au  0)    142.6494         0.001501   
    229. D(Mn 16,Au  5,Au  2,Au 11)    -89.2513         0.001501   
    230. D(Mn 16,Au  5,Au  2,Au  1)    -27.3179         0.001501   
    231. D(Au 15,Au  5,Au  2,Au  1)    104.7385         0.001501   
    232. D(Au 14,Au  5,Au  2,Au  1)     85.2940         0.001501   
    233. D(Au 15,Au  5,Au  2,Au  0)    162.0939         0.001501   
    234. D(Au 15,Au  5,Au  2,Au 11)     42.8051         0.001501   
    235. D(Mn 16,Au  5,Au  2,Au  0)     30.0375         0.001501   
    236. D(Mn 16,Au  5,Au  2,Au 15)   -132.0564         0.001501   
    237. D(Au 14,Au  5,Au  2,Au 15)    -19.4445         0.001501   
    238. D(Au 14,Au  5,Au  2,Au 11)     23.3606         0.001501   
    239. D(Au  4,Au  8,Au  1,Au  0)     19.0250         0.001501   
    240. D(Au 10,Au  8,Au  1,Au 11)     87.2094         0.001501   
    241. D(Au 10,Au  8,Au  1,Au  2)     22.6887         0.001501   
    242. D(Au 10,Au  8,Au  1,Au  0)    -38.0356         0.001501   
    243. D(Au  4,Au  8,Au  1,Au 11)    144.2699         0.001501   
    244. D(Au  4,Au  8,Au  1,Au 12)    162.4369         0.001501   
    245. D(Au  1,Au  8,Au  7,Au 12)    -43.5730         0.001502   
    246. D(Au  1,Au  8,Au  7,Au 10)     87.5226         0.001502   
    247. D(Au 10,Au  8,Au  1,Au 12)    105.3764         0.001501   
    248. D(Au  1,Au  8,Au  7,Au 13)      3.2863         0.001502   
    249. D(Au 12,Au  8,Au  4,Mn 16)    -62.0597         0.001503   
    250. D(Au  1,Au  8,Au  7,Au  9)     66.0954         0.001502   
    251. D(Au 12,Au  8,Au  7,Au 13)     46.8593         0.001502   
    252. D(Au  1,Au  8,Au  4,Mn 16)    -80.5024         0.001503   
    253. D(Au 10,Au  8,Au  1,Au  4)    -57.0606         0.001501   
    254. D(Au 10,Au  8,Au  4,Au  1)    110.7251         0.001503   
    255. D(Au 10,Au  8,Au  7,Au 13)    -84.2363         0.001502   
    256. D(Au  4,Au  8,Au  7,Au  9)     -2.2900         0.001502   
    257. D(Au 12,Au  8,Au  1,Au 11)    -18.1670         0.001501   
    258. D(Au 10,Au  8,Au  7,Au 12)   -131.0956         0.001502   
    259. D(Au  4,Au  8,Au  7,Au 13)    -65.0991         0.001502   
    260. D(Au  7,Au  8,Au  4,Mn 16)     11.2772         0.001503   
    261. D(Au 12,Au  8,Au  1,Au  4)   -162.4369         0.001501   
    262. D(Au 12,Au  8,Au  1,Au  2)    -82.6877         0.001501   
    263. D(Au 12,Au  8,Au  1,Au  0)   -143.4120         0.001501   
    264. D(Au  4,Au  8,Au  1,Au  2)     79.7493         0.001501   
    265. D(Au  7,Au  8,Au  1,Au  0)   -100.6367         0.001501   
    266. D(Au 10,Au  8,Au  7,Au  9)    -21.4272         0.001502   
    267. D(Au  7,Au  8,Au  1,Au  2)    -39.9123         0.001501   
    268. D(Au 12,Au  8,Au  4,Au  1)     18.4427         0.001503   
    269. D(Au  4,Au  8,Au  7,Au 12)   -111.9585         0.001502   
    270. D(Au  4,Au  8,Au  7,Au 10)     19.1372         0.001502   
    271. D(Au  7,Au  8,Au  1,Au 11)     24.6083         0.001501   
    272. D(Au  7,Au  8,Au  1,Au 12)     42.7753         0.001501   
    273. D(Au  7,Au  8,Au  1,Au  4)   -119.6616         0.001501   
    274. D(Au  7,Au  8,Au  4,Au  1)     91.7796         0.001503   
    275. D(Au 12,Au  8,Au  7,Au  9)    109.6684         0.001502   
    276. D(Au 12,Au  8,Au  7,Au 10)    131.0956         0.001502   
    277. D(Au 10,Au  8,Au  4,Mn 16)     30.2227         0.001503   
    278. D(Au 14,Au  9,Au  7,Au 10)    -92.1134         0.001503   
    279. D(Au 14,Au  9,Au  7,Au 12)     -2.0769         0.001503   
    280. D(Au 10,Au  9,Au  7,Au 12)     90.0365         0.001503   
    281. D(Au 13,Au  9,Au  6,Mn 16)     55.3095         0.001501   
    282. D(Au 14,Au  9,Au  7,Au  8)    -70.8328         0.001503   
    283. D(Au 10,Au  9,Au  6,Au 14)   -131.6972         0.001501   
    284. D(Au  6,Au  9,Au  7,Au 12)     69.2434         0.001503   
    285. D(Au  6,Au  9,Au  7,Au 10)    -20.7932         0.001503   
    286. D(Au  7,Au  9,Au  6,Mn 16)     -8.7968         0.001501   
    287. D(Au  6,Au  9,Au  7,Au 13)     87.9515         0.001503   
    288. D(Au  7,Au  9,Au  6,Au 14)   -110.3180         0.001501   
    289. D(Au 10,Au  9,Au  7,Au  8)     21.2806         0.001503   
    290. D(Au 13,Au  9,Au  6,Au 14)    -46.2117         0.001501   
    291. D(Au 14,Au  9,Au  6,Mn 16)    101.5212         0.001501   
    292. D(Au 13,Au  9,Au  7,Au  8)    -87.4640         0.001503   
    293. D(Au 10,Au  9,Au  6,Mn 16)    -30.1760         0.001501   
    294. D(Au 13,Au  9,Au  7,Au 12)    -18.7081         0.001503   
    295. D(Au 13,Au  9,Au  7,Au 10)   -108.7446         0.001503   
    296. D(Au 10,Au  9,Au  7,Au 13)    108.7446         0.001503   
    297. D(Au 14,Au  9,Au  7,Au 13)     16.6312         0.001503   
    298. D(Au  6,Au  9,Au  7,Au  8)      0.4875         0.001503   
    299. D(Au  9,Au 10,Au  7,Au 12)   -116.0027         0.001501   
    300. D(Au  9,Au 10,Au  7,Au 13)    -55.9325         0.001501   
    301. D(Mn 16,Au 10,Au  8,Au  4)    -30.0438         0.001501   
    302. D(Au  9,Au 10,Au  7,Au  8)   -158.1018         0.001501   
    303. D(Au  8,Au 10,Au  7,Au 13)    102.1693         0.001501   
    304. D(Au  8,Au 10,Au  7,Au 12)     42.0991         0.001501   
    305. D(Mn 16,Au 10,Au  7,Au 12)    -36.3559         0.001501   
    306. D(Mn 16,Au 10,Au  8,Au 12)     89.2480         0.001501   
    307. D(Mn 16,Au 10,Au  7,Au  9)     79.6468         0.001501   
    308. D(Mn 16,Au 10,Au  8,Au  7)    132.0484         0.001501   
    309. D(Mn 16,Au 10,Au  7,Au 13)     23.7144         0.001501   
    310. D(Mn 16,Au 10,Au  7,Au  8)    -78.4550         0.001501   
    311. D(Au  8,Au 10,Au  7,Au  9)    158.1018         0.001501   
    312. D(Au  7,Au 10,Au  8,Au  1)   -104.7225         0.001501   
    313. D(Au  7,Au 10,Au  9,Au  6)    159.1441         0.001501   
    314. D(Au  8,Au 10,Au  9,Au 14)     97.0537         0.001501   
    315. D(Au  8,Au 10,Au  9,Au 13)     36.8451         0.001501   
    316. D(Au  8,Au 10,Au  9,Au  6)    139.4160         0.001501   
    317. D(Mn 16,Au 10,Au  9,Au 13)    -74.7555         0.001501   
    318. D(Mn 16,Au 10,Au  9,Au  7)   -131.3286         0.001501   
    319. D(Au  7,Au 10,Au  9,Au 14)    116.7817         0.001501   
    320. D(Mn 16,Au 10,Au  9,Au 14)    -14.5469         0.001501   
    321. D(Mn 16,Au 10,Au  9,Au  6)     27.8154         0.001501   
    322. D(Au  7,Au 10,Au  8,Au 12)    -42.8004         0.001501   
    323. D(Au  7,Au 10,Au  8,Au  4)   -162.0922         0.001501   
    324. D(Au  9,Au 10,Au  8,Au  1)    -85.2853         0.001501   
    325. D(Au  8,Au 10,Au  9,Au  7)    -19.7280         0.001501   
    326. D(Au  9,Au 10,Au  8,Au  7)     19.4373         0.001501   
    327. D(Au  9,Au 10,Au  8,Au 12)    -23.3631         0.001501   
    328. D(Au  7,Au 10,Au  9,Au 13)     56.5731         0.001501   
    329. D(Au  9,Au 10,Au  8,Au  4)   -142.6549         0.001501   
    330. D(Mn 16,Au 10,Au  8,Au  1)     27.3258         0.001501   
    331. D(Au  1,Au 11,Au  2,Au  0)     18.7928         0.001502   
    332. D(Au 13,Au 11,Au  2,Au  1)    -84.0861         0.001502   
    333. D(Au 13,Au 11,Au  2,Au  0)    -65.2933         0.001502   
    334. D(Au 15,Au 11,Au  2,Au  5)    -43.9128         0.001502   
    335. D(Au 12,Au 11,Au  2,Au  1)    -20.5935         0.001502   
    336. D(Au 15,Au 11,Au  2,Au  0)   -112.1545         0.001502   
    337. D(Au 13,Au 11,Au  1,Au 12)    -57.1559         0.001501   
    338. D(Au 15,Au 11,Au  2,Au  1)   -130.9473         0.001502   
    339. D(Au 13,Au 11,Au  1,Au  4)     20.6201         0.001501   
    340. D(Au 13,Au 11,Au  2,Au 15)     46.8612         0.001502   
    341. D(Au 13,Au 11,Au  1,Au  2)    102.4342         0.001501   
    342. D(Au 13,Au 11,Au  1,Au  0)     87.0152         0.001501   
    343. D(Au 13,Au 11,Au  2,Au  5)      2.9485         0.001502   
    344. D(Au 15,Au 11,Au  1,Au 12)   -117.0453         0.001501   
    345. D(Au 15,Au 11,Au  1,Au  8)    -98.5398         0.001501   
    346. D(Au 13,Au 11,Au  1,Au  8)    -38.6504         0.001501   
    347. D(Au 15,Au 11,Au  1,Au  4)    -39.2693         0.001501   
    348. D(Au 12,Au 11,Au  2,Au  0)     -1.8007         0.001502   
    349. D(Au 12,Au 11,Au  2,Au  5)     66.4410         0.001502   
    350. D(Au 12,Au 11,Au  2,Au 15)    110.3538         0.001502   
    351. D(Au 15,Au 11,Au  1,Au  2)     42.5448         0.001501   
    352. D(Au  1,Au 11,Au  2,Au 15)    130.9473         0.001502   
    353. D(Au 12,Au 11,Au  1,Au  2)    159.5901         0.001501   
    354. D(Au  2,Au 11,Au  1,Au  4)    -81.8141         0.001501   
    355. D(Au  1,Au 11,Au  2,Au  5)     87.0345         0.001502   
    356. D(Au  2,Au 11,Au  1,Au  0)    -15.4190         0.001501   
    357. D(Au 12,Au 11,Au  1,Au  0)    144.1711         0.001501   
    358. D(Au  2,Au 11,Au  1,Au 12)   -159.5901         0.001501   
    359. D(Au 12,Au 11,Au  1,Au  4)     77.7760         0.001501   
    360. D(Au  2,Au 11,Au  1,Au  8)   -141.0846         0.001501   
    361. D(Au 15,Au 11,Au  1,Au  0)     27.1258         0.001501   
    362. D(Au 12,Au 11,Au  1,Au  8)     18.5055         0.001501   
    363. D(Au  1,Au 12,Au 11,Au  2)     20.3056         0.001503   
    364. D(Au 13,Au 12,Au 11,Au  1)   -107.2667         0.001503   
    365. D(Au  7,Au 12,Au 11,Au  1)    -90.7476         0.001503   
    366. D(Au  7,Au 12,Au 11,Au 15)     -0.0022         0.001503   
    367. D(Au  8,Au 12,Au 11,Au  1)    -20.3018         0.001503   
    368. D(Au 13,Au 12,Au 11,Au  2)    -86.9611         0.001503   
    369. D(Au  8,Au 12,Au 11,Au 13)     86.9650         0.001503   
    370. D(Au  8,Au 12,Au 11,Au 15)     70.4436         0.001503   
    371. D(Au 13,Au 12,Au 11,Au 15)    -16.5214         0.001503   
    372. D(Au  8,Au 12,Au 11,Au  2)      0.0038         0.001503   
    373. D(Au  1,Au 12,Au  8,Au  7)   -130.9514         0.001502   
    374. D(Au  1,Au 12,Au  8,Au  4)    -18.8095         0.001502   
    375. D(Au 13,Au 12,Au  8,Au  1)     84.0959         0.001502   
    376. D(Au 13,Au 12,Au  8,Au  7)    -46.8556         0.001502   
    377. D(Au  1,Au 12,Au 11,Au 13)    107.2667         0.001503   
    378. D(Au  7,Au 12,Au  8,Au  1)    130.9514         0.001502   
    379. D(Au  7,Au 12,Au  8,Au 10)     43.9184         0.001502   
    380. D(Au 11,Au 12,Au  8,Au 10)    -66.4408         0.001502   
    381. D(Au 11,Au 12,Au  1,Au  0)    -77.7492         0.001501   
    382. D(Au 11,Au 12,Au  8,Au  4)      1.7828         0.001502   
    383. D(Au  1,Au 12,Au 11,Au 15)     90.7454         0.001503   
    384. D(Au  1,Au 12,Au  7,Au  9)    -63.4469         0.001502   
    385. D(Au  7,Au 12,Au  1,Au 11)    117.0507         0.001501   
    386. D(Au  7,Au 12,Au  1,Au  8)    -42.5428         0.001501   
    387. D(Au 13,Au 12,Au  7,Au  8)    124.8764         0.001502   
    388. D(Au 13,Au 12,Au  1,Au  8)   -102.4292         0.001501   
    389. D(Au 11,Au 12,Au  7,Au  8)    108.2265         0.001502   
    390. D(Au  8,Au 12,Au  7,Au 13)   -124.8764         0.001502   
    391. D(Au  8,Au 12,Au  7,Au  9)   -106.1480         0.001502   
    392. D(Au 13,Au 12,Au  1,Au 11)     57.1643         0.001501   
    393. D(Au  8,Au 12,Au  7,Au 10)    -42.2485         0.001502   
    394. D(Au 11,Au 12,Au  7,Au  9)      2.0785         0.001502   
    395. D(Au 13,Au 12,Au  1,Au  4)    -86.9967         0.001501   
    396. D(Au 13,Au 12,Au  1,Au  2)     38.6610         0.001501   
    397. D(Au 13,Au 12,Au  1,Au  0)    -20.5850         0.001501   
    398. D(Au 13,Au 12,Au  7,Au 10)     82.6279         0.001502   
    399. D(Au  1,Au 12,Au  7,Au  8)     42.7011         0.001502   
    400. D(Au 13,Au 12,Au  7,Au  9)     18.7284         0.001502   
    401. D(Au 13,Au 12,Au  8,Au  4)     65.2864         0.001502   
    402. D(Au 13,Au 12,Au  8,Au 10)     -2.9372         0.001502   
    403. D(Au  1,Au 12,Au  7,Au 10)      0.4526         0.001502   
    404. D(Au  7,Au 12,Au  1,Au  4)    -27.1102         0.001501   
    405. D(Au  7,Au 12,Au  1,Au  2)     98.5474         0.001501   
    406. D(Au  1,Au 12,Au  8,Au 10)    -87.0331         0.001502   
    407. D(Au  7,Au 12,Au  1,Au  0)     39.3015         0.001501   
    408. D(Au 11,Au 12,Au  1,Au  8)   -159.5935         0.001501   
    409. D(Au  1,Au 12,Au  7,Au 13)    -82.1753         0.001502   
    410. D(Au 11,Au 12,Au  1,Au  4)   -144.1609         0.001501   
    411. D(Au 11,Au 12,Au  8,Au  7)   -110.3592         0.001502   
    412. D(Au  7,Au 12,Au 11,Au  2)    -70.4420         0.001503   
    413. D(Au  7,Au 12,Au 11,Au 13)     16.5192         0.001503   
    414. D(Au 11,Au 12,Au  1,Au  2)    -18.5033         0.001501   
    415. D(Au  7,Au 12,Au  8,Au  4)    112.1420         0.001502   
    416. D(Au  8,Au 12,Au  1,Au 11)    159.5935         0.001501   
    417. D(Au  8,Au 12,Au  1,Au  4)     15.4326         0.001501   
    418. D(Au  8,Au 12,Au  1,Au  2)    141.0902         0.001501   
    419. D(Au 11,Au 12,Au  7,Au 13)    -16.6500         0.001502   
    420. D(Au  8,Au 12,Au  1,Au  0)     81.8443         0.001501   
    421. D(Au 11,Au 12,Au  7,Au 10)     65.9779         0.001502   
    422. D(Au 11,Au 12,Au  8,Au  1)     20.5922         0.001502   
    423. D(Au 15,Au 13,Au  7,Au  9)    -80.4905         0.001501   
    424. D(Au 15,Au 13,Au  7,Au  8)     34.6783         0.001501   
    425. D(Au 14,Au 13,Au  7,Au 12)    145.9914         0.001501   
    426. D(Au 14,Au 13,Au  7,Au  9)    -15.3288         0.001501   
    427. D(Au 14,Au 13,Au  7,Au  8)     99.8400         0.001501   
    428. D(Au 12,Au 13,Au  7,Au 10)   -105.6696         0.001501   
    429. D(Au 12,Au 13,Au  7,Au  9)   -161.3202         0.001501   
    430. D(Au 12,Au 13,Au  7,Au  8)    -46.1514         0.001501   
    431. D(Au 11,Au 13,Au  7,Au 10)    -90.8551         0.001501   
    432. D(Au  9,Au 13,Au  7,Au 12)    161.3202         0.001501   
    433. D(Au  9,Au 13,Au  7,Au 10)     55.6507         0.001501   
    434. D(Au 14,Au 13,Au  7,Au 10)     40.3219         0.001501   
    435. D(Au  9,Au 13,Au  7,Au  8)    115.1688         0.001501   
    436. D(Au 11,Au 13,Au  7,Au  8)    -31.3369         0.001501   
    437. D(Au 11,Au 13,Au  7,Au 12)     14.8145         0.001501   
    438. D(Au 15,Au 13,Au  7,Au 10)    -24.8398         0.001501   
    439. D(Au 11,Au 13,Au  7,Au  9)   -146.5058         0.001501   
    440. D(Au 15,Au 13,Au 12,Au  1)    -42.2737         0.001501   
    441. D(Au 15,Au 13,Au 12,Au  7)   -148.6112         0.001501   
    442. D(Au 15,Au 13,Au 12,Au 11)     15.0722         0.001501   
    443. D(Au 15,Au 13,Au 12,Au  8)   -102.1742         0.001501   
    444. D(Au 14,Au 13,Au 12,Au  1)     22.2706         0.001501   
    445. D(Au 14,Au 13,Au 12,Au  7)    -84.0670         0.001501   
    446. D(Au 14,Au 13,Au 12,Au 11)     79.6164         0.001501   
    447. D(Au 11,Au 13,Au 12,Au  1)    -57.3459         0.001501   
    448. D(Au 11,Au 13,Au 12,Au  7)   -163.6834         0.001501   
    449. D(Au 11,Au 13,Au 12,Au  8)   -117.2464         0.001501   
    450. D(Au  9,Au 13,Au 12,Au  7)    -17.0348         0.001501   
    451. D(Au  9,Au 13,Au 12,Au 11)    146.6486         0.001501   
    452. D(Au  9,Au 13,Au 12,Au  8)     29.4022         0.001501   
    453. D(Au  7,Au 13,Au 12,Au 11)    163.6834         0.001501   
    454. D(Au  7,Au 13,Au 12,Au  8)     46.4370         0.001501   
    455. D(Au 15,Au 13,Au 11,Au  1)   -106.3417         0.001501   
    456. D(Au 15,Au 13,Au 11,Au 12)   -163.6813         0.001501   
    457. D(Au 15,Au 13,Au 11,Au  2)    -46.4380         0.001501   
    458. D(Au 14,Au 13,Au 11,Au  1)    -89.3173         0.001501   
    459. D(Au 14,Au 13,Au 11,Au 15)     17.0244         0.001501   
    460. D(Au 14,Au 13,Au 11,Au  2)    -29.4136         0.001501   
    461. D(Au 12,Au 13,Au 11,Au  1)     57.3396         0.001501   
    462. D(Au 12,Au 13,Au 11,Au 15)    163.6813         0.001501   
    463. D(Au 12,Au 13,Au 11,Au  2)    117.2433         0.001501   
    464. D(Au  9,Au 13,Au 11,Au  1)    -22.3160         0.001501   
    465. D(Au  9,Au 13,Au 11,Au 15)     84.0257         0.001501   
    466. D(Au  9,Au 13,Au 11,Au 12)    -79.6556         0.001501   
    467. D(Au  9,Au 13,Au 11,Au  2)     37.5877         0.001501   
    468. D(Au  7,Au 13,Au 11,Au  1)     42.2687         0.001501   
    469. D(Au  7,Au 13,Au 11,Au 15)    148.6104         0.001501   
    470. D(Au 14,Au 13,Au 11,Au 12)   -146.6569         0.001501   
    471. D(Au  7,Au 13,Au 11,Au 12)    -15.0709         0.001501   
    472. D(Au  7,Au 13,Au 11,Au  2)    102.1724         0.001501   
    473. D(Au 15,Au 13,Au  9,Au  7)    148.4540         0.001501   
    474. D(Au 15,Au 13,Au  9,Au 14)    -15.0972         0.001501   
    475. D(Au 15,Au 13,Au  9,Au 10)     90.9370         0.001501   
    476. D(Au 15,Au 13,Au  9,Au  6)     31.0788         0.001501   
    477. D(Au 14,Au 13,Au  9,Au  7)    163.5513         0.001501   
    478. D(Au  7,Au 13,Au 12,Au  1)    106.3375         0.001501   
    479. D(Au 14,Au 13,Au  9,Au 10)    106.0342         0.001501   
    480. D(Au 14,Au 13,Au  9,Au  6)     46.1760         0.001501   
    481. D(Au 12,Au 13,Au  9,Au  7)     17.2322         0.001501   
    482. D(Au  9,Au 13,Au 12,Au  1)     89.3027         0.001501   
    483. D(Au 12,Au 13,Au  9,Au 14)   -146.3190         0.001501   
    484. D(Au 12,Au 13,Au  9,Au 10)    -40.2848         0.001501   
    485. D(Au 12,Au 13,Au  9,Au  6)   -100.1430         0.001501   
    486. D(Au 14,Au 13,Au 12,Au  8)    -37.6300         0.001501   
    487. D(Au 11,Au 13,Au  9,Au  7)     80.7147         0.001501   
    488. D(Au 11,Au 13,Au  9,Au 14)    -82.8365         0.001501   
    489. D(Au 11,Au 13,Au  9,Au 10)     23.1977         0.001501   
    490. D(Au 11,Au 13,Au  9,Au  6)    -36.6605         0.001501   
    491. D(Au  7,Au 13,Au  9,Au 14)   -163.5513         0.001501   
    492. D(Au  7,Au 13,Au  9,Au 10)    -57.5171         0.001501   
    493. D(Au  7,Au 13,Au  9,Au  6)   -117.3753         0.001501   
    494. D(Au 15,Au 13,Au  7,Au 12)     80.8298         0.001501   
    495. D(Au  9,Au 14,Au 13,Au 15)    163.5545         0.001501   
    496. D(Au  9,Au 14,Au 13,Au 11)    146.3295         0.001501   
    497. D(Au  9,Au 14,Au 13,Au  7)     15.1055         0.001501   
    498. D(Au 15,Au 14,Au 13,Au 12)    -80.6772         0.001501   
    499. D(Au 15,Au 14,Au 13,Au 11)    -17.2250         0.001501   
    500. D(Au 15,Au 14,Au 13,Au  9)   -163.5545         0.001501   
    501. D(Au 15,Au 14,Au 13,Au  7)   -148.4490         0.001501   
    502. D(Au  6,Au 14,Au 13,Au 15)    117.3810         0.001501   
    503. D(Au  6,Au 14,Au 13,Au 11)    100.1559         0.001501   
    504. D(Au  6,Au 14,Au 13,Au  9)    -46.1735         0.001501   
    505. D(Au  6,Au 14,Au 13,Au  7)    -31.0681         0.001501   
    506. D(Au  5,Au 14,Au 13,Au 12)    -23.1607         0.001501   
    507. D(Au  5,Au 14,Au 13,Au 11)     40.2914         0.001501   
    508. D(Au  5,Au 14,Au 13,Au  9)   -106.0380         0.001501   
    509. D(Au 13,Au 14,Au  9,Au  7)    -16.7976         0.001502   
    510. D(Au 13,Au 14,Au  9,Au 10)    -83.8567         0.001502   
    511. D(Au 13,Au 14,Au  9,Au  6)   -125.9289         0.001502   
    512. D(Au 15,Au 14,Au  9,Au 13)     16.7975         0.001502   
    513. D(Au 15,Au 14,Au  9,Au  7)     -0.0001         0.001502   
    514. D(Au 15,Au 14,Au  9,Au 10)    -67.0591         0.001502   
    515. D(Au 15,Au 14,Au  9,Au  6)   -109.1314         0.001502   
    516. D(Au  6,Au 14,Au  9,Au 13)    125.9289         0.001502   
    517. D(Au  6,Au 14,Au  9,Au  7)    109.1313         0.001502   
    518. D(Au  6,Au 14,Au  9,Au 10)     42.0722         0.001502   
    519. D(Au  5,Au 14,Au  9,Au 13)     83.8514         0.001502   
    520. D(Au  5,Au 14,Au  9,Au  7)     67.0538         0.001502   
    521. D(Au  5,Au 14,Au  9,Au 10)     -0.0052         0.001502   
    522. D(Au  5,Au 14,Au  9,Au  6)    -42.0775         0.001502   
    523. D(Au 13,Au 14,Au  6,Au  9)     46.2047         0.001501   
    524. D(Au 13,Au 14,Au  6,Mn 16)    -55.3236         0.001501   
    525. D(Au  9,Au 14,Au  6,Mn 16)   -101.5283         0.001501   
    526. D(Au  5,Au 14,Au 13,Au  7)    -90.9326         0.001501   
    527. D(Au 15,Au 14,Au  6,Au  9)    110.3231         0.001501   
    528. D(Au 15,Au 14,Au  6,Mn 16)      8.7948         0.001501   
    529. D(Au  5,Au 14,Au  6,Au  9)    131.6950         0.001501   
    530. D(Au  5,Au 14,Au 13,Au 15)     57.5165         0.001501   
    531. D(Au  5,Au 14,Au  6,Mn 16)     30.1667         0.001501   
    532. D(Au 13,Au 14,Au  5,Au 15)    -56.5883         0.001501   
    533. D(Au 13,Au 14,Au  5,Au  2)    -36.8509         0.001501   
    534. D(Au  6,Au 14,Au 13,Au 12)     36.7038         0.001501   
    535. D(Au 13,Au 14,Au  5,Mn 16)     74.7544         0.001501   
    536. D(Au  9,Au 14,Au  5,Au 15)   -116.7868         0.001501   
    537. D(Au  9,Au 14,Au  5,Au  2)    -97.0494         0.001501   
    538. D(Au  9,Au 14,Au  5,Mn 16)     14.5558         0.001501   
    539. D(Au 15,Au 14,Au  5,Au  2)     19.7374         0.001501   
    540. D(Au 15,Au 14,Au  5,Mn 16)    131.3426         0.001501   
    541. D(Au  6,Au 14,Au  5,Au 15)   -159.1506         0.001501   
    542. D(Au  9,Au 14,Au 13,Au 12)     82.8773         0.001501   
    543. D(Au  6,Au 14,Au  5,Au  2)   -139.4132         0.001501   
    544. D(Au  6,Au 14,Au  5,Mn 16)    -27.8080         0.001501   
    545. D(Au 13,Au 15,Au 14,Au  9)    -16.6273         0.001503   
    546. D(Au 13,Au 15,Au 14,Au  6)    -87.9490         0.001503   
    547. D(Au 13,Au 15,Au 14,Au  5)   -108.7374         0.001503   
    548. D(Au 11,Au 15,Au 14,Au  9)      2.0760         0.001503   
    549. D(Au 11,Au 15,Au 14,Au  6)    -69.2457         0.001503   
    550. D(Au 11,Au 15,Au 14,Au  5)    -90.0341         0.001503   
    551. D(Au  5,Au 15,Au 14,Au  9)     92.1101         0.001503   
    552. D(Au  5,Au 15,Au 14,Au  6)     20.7884         0.001503   
    553. D(Au  2,Au 15,Au 14,Au 13)     87.4462         0.001503   
    554. D(Au  2,Au 15,Au 14,Au  9)     70.8189         0.001503   
    555. D(Au  2,Au 15,Au 14,Au  6)     -0.5027         0.001503   
    556. D(Au  2,Au 15,Au 14,Au  5)    -21.2911         0.001503   
    557. D(Au 14,Au 15,Au 13,Au 12)    146.5088         0.001501   
    558. D(Au 14,Au 15,Au 13,Au  9)     15.3237         0.001501   
    559. D(Au 14,Au 15,Au 13,Au  7)     80.4936         0.001501   
    560. D(Au 11,Au 15,Au 13,Au 14)   -161.3250         0.001501   
    561. D(Au 11,Au 15,Au 13,Au  9)   -146.0012         0.001501   
    562. D(Au 11,Au 15,Au 13,Au  7)    -80.8313         0.001501   
    563. D(Au  5,Au 15,Au 13,Au 14)    -55.6625         0.001501   
    564. D(Au  5,Au 15,Au 13,Au 11)    105.6624         0.001501   
    565. D(Au  5,Au 15,Au 13,Au  9)    -40.3388         0.001501   
    566. D(Au  5,Au 15,Au 13,Au  7)     24.8311         0.001501   
    567. D(Au  2,Au 15,Au 13,Au 14)   -115.1820         0.001501   
    568. D(Au  2,Au 15,Au 13,Au 12)     31.3269         0.001501   
    569. D(Au  2,Au 15,Au 13,Au 11)     46.1430         0.001501   
    570. D(Au  2,Au 15,Au 13,Au  9)    -99.8583         0.001501   
    571. D(Au 13,Au 15,Au 11,Au  1)     82.1661         0.001502   
    572. D(Au 13,Au 15,Au 11,Au 12)     16.6497         0.001502   
    573. D(Au 13,Au 15,Au 11,Au  2)    124.8732         0.001502   
    574. D(Au 14,Au 15,Au 11,Au  1)     63.4411         0.001502   
    575. D(Au 14,Au 15,Au 11,Au 13)    -18.7251         0.001502   
    576. D(Au 14,Au 15,Au 11,Au 12)     -2.0754         0.001502   
    577. D(Au 14,Au 15,Au 11,Au  2)    106.1482         0.001502   
    578. D(Au  5,Au 15,Au 11,Au  1)     -0.4673         0.001502   
    579. D(Au  5,Au 15,Au 11,Au 13)    -82.6334         0.001502   
    580. D(Au  5,Au 15,Au 11,Au 12)    -65.9837         0.001502   
    581. D(Au  5,Au 15,Au 11,Au  2)     42.2398         0.001502   
    582. D(Au  2,Au 15,Au 13,Au  7)    -34.6884         0.001501   
    583. D(Au  2,Au 15,Au 11,Au  1)    -42.7071         0.001502   
    584. D(Au  2,Au 15,Au 11,Au 13)   -124.8732         0.001502   
    585. D(Au  2,Au 15,Au 11,Au 12)   -108.2235         0.001502   
    586. D(Au 13,Au 15,Au  5,Au 14)     55.9399         0.001501   
    587. D(Au 13,Au 15,Au  5,Au  2)   -102.1520         0.001501   
    588. D(Au 13,Au 15,Au  5,Mn 16)    -23.6924         0.001501   
    589. D(Au 14,Au 15,Au  5,Au  2)   -158.0919         0.001501   
    590. D(Au  5,Au 15,Au 13,Au 12)     90.8463         0.001501   
    591. D(Au 14,Au 15,Au  5,Mn 16)    -79.6323         0.001501   
    592. D(Au 11,Au 15,Au  5,Au 14)    116.0083         0.001501   
    593. D(Au 11,Au 15,Au  5,Au  2)    -42.0837         0.001501   
    594. D(Au 11,Au 15,Au 13,Au 12)    -14.8161         0.001501   
    595. D(Au 11,Au 15,Au  5,Mn 16)     36.3759         0.001501   
    596. D(Au  2,Au 15,Au  5,Au 14)    158.0919         0.001501   
    597. D(Au  2,Au 15,Au  5,Mn 16)     78.4596         0.001501   
    598. D(Au 14,Au 15,Au 13,Au 11)    161.3250         0.001501   
    599. D(Au 13,Au 15,Au  2,Au  1)     -3.2711         0.001502   
    600. D(Au 13,Au 15,Au  2,Au 11)    -46.8570         0.001502   
    601. D(Au 13,Au 15,Au  2,Au  5)     84.2477         0.001502   
    602. D(Au 13,Au 15,Au  2,Au  0)     65.1098         0.001502   
    603. D(Au 14,Au 15,Au  2,Au  1)    -66.0787         0.001502   
    604. D(Au 14,Au 15,Au  2,Au 11)   -109.6646         0.001502   
    605. D(Au 14,Au 15,Au  2,Au  5)     21.4402         0.001502   
    606. D(Au  5,Au 15,Au 14,Au 13)    108.7374         0.001503   
    607. D(Au 14,Au 15,Au  2,Au  0)      2.3023         0.001502   
    608. D(Au 11,Au 15,Au  2,Au  1)     43.5859         0.001502   
    609. D(Au 11,Au 15,Au  2,Au  5)    131.1047         0.001502   
    610. D(Au 11,Au 15,Au 14,Au 13)     18.7033         0.001503   
    611. D(Au 11,Au 15,Au  2,Au  0)    111.9669         0.001502   
    612. D(Au  5,Au 15,Au  2,Au  1)    -87.5188         0.001502   
    613. D(Au  5,Au 15,Au  2,Au 11)   -131.1047         0.001502   
    614. D(Au  5,Au 15,Au  2,Au  0)    -19.1379         0.001502   
    615. D(Au  6,Mn 16,Au 10,Au  7)    -88.4349         0.001553   
    616. D(Au  6,Mn 16,Au 10,Au  9)    -30.2498         0.001553   
    617. D(Au  6,Mn 16,Au 10,Au  8)   -146.9058         0.001553   
    618. D(Au  5,Mn 16,Au 10,Au  9)     26.0668         0.001553   
    619. D(Au  5,Mn 16,Au 10,Au  8)    -90.5893         0.001553   
    620. D(Au  4,Mn 16,Au 10,Au  7)     88.2232         0.001553   
    621. D(Au  4,Mn 16,Au 10,Au  9)    146.4084         0.001553   
    622. D(Au  4,Mn 16,Au 10,Au  8)     29.7523         0.001553   
    623. D(Au  3,Mn 16,Au 10,Au  7)    128.4057         0.001553   
    624. D(Au  3,Mn 16,Au 10,Au  9)   -173.4091         0.001553   
    625. D(Au  0,Mn 16,Au 10,Au  7)     47.5405         0.001553   
    626. D(Au  0,Mn 16,Au 10,Au  9)    105.7256         0.001553   
    627. D(Au  0,Mn 16,Au 10,Au  8)    -10.9304         0.001553   
    628. D(Au 10,Mn 16,Au  6,Au 14)     93.9764         0.001622   
    629. D(Au  5,Mn 16,Au  6,Au  9)    -93.9670         0.001622   
    630. D(Au  5,Mn 16,Au  6,Au 14)    -31.3047         0.001622   
    631. D(Au  4,Mn 16,Au  6,Au 14)     89.2535         0.001622   
    632. D(Au  3,Mn 16,Au  6,Au  9)    148.6730         0.001622   
    633. D(Au  3,Mn 16,Au  6,Au 14)   -148.6647         0.001622   
    634. D(Au  0,Mn 16,Au  6,Au  9)    -89.2199         0.001622   
    635. D(Au  0,Mn 16,Au  6,Au 14)    -26.5576         0.001622   
    636. D(Au 10,Mn 16,Au  5,Au 14)    -26.0700         0.001553   
    637. D(Au 10,Mn 16,Au  5,Au 15)     32.1057         0.001553   
    638. D(Au  6,Mn 16,Au  5,Au 14)     30.2424         0.001553   
    639. D(Au  6,Mn 16,Au  5,Au 15)     88.4181         0.001553   
    640. D(Au  6,Mn 16,Au  5,Au  2)    146.8972         0.001553   
    641. D(Au  4,Mn 16,Au  5,Au 14)   -105.7342         0.001553   
    642. D(Au  4,Mn 16,Au  5,Au 15)    -47.5584         0.001553   
    643. D(Au  4,Mn 16,Au  5,Au  2)     10.9206         0.001553   
    644. D(Au  3,Mn 16,Au  5,Au 14)    173.4046         0.001553   
    645. D(Au  3,Mn 16,Au  5,Au 15)   -128.4196         0.001553   
    646. D(Au 10,Mn 16,Au  5,Au  2)     90.5848         0.001553   
    647. D(Au  3,Mn 16,Au  5,Au  2)    -69.9406         0.001553   
    648. D(Au  0,Mn 16,Au  5,Au 14)   -146.3990         0.001553   
    649. D(Au  0,Mn 16,Au  5,Au 15)    -88.2232         0.001553   
    650. D(Au  0,Mn 16,Au  5,Au  2)    -29.7442         0.001553   
    651. D(Au 10,Mn 16,Au  4,Au  1)    -92.1668         0.001539   
    652. D(Au 10,Mn 16,Au  4,Au  8)    -32.6292         0.001539   
    653. D(Au  6,Mn 16,Au  4,Au  1)    -87.4168         0.001539   
    654. D(Au  4,Mn 16,Au  6,Au  9)     26.5913         0.001622   
    655. D(Au  6,Mn 16,Au  4,Au  8)    -27.8792         0.001539   
    656. D(Au  5,Mn 16,Au  4,Au  1)     11.7442         0.001539   
    657. D(Au  5,Mn 16,Au  4,Au  8)     71.2818         0.001539   
    658. D(Au 10,Mn 16,Au  6,Au  9)     31.3141         0.001622   
    659. D(Au  3,Mn 16,Au  4,Au  1)    124.7963         0.001539   
    660. D(Au  3,Mn 16,Au  4,Au  8)   -175.6661         0.001539   
    661. D(Au  0,Mn 16,Au  4,Au  1)     52.7061         0.001539   
    662. D(Au  3,Mn 16,Au 10,Au  8)     69.9349         0.001553   
    663. D(Au  0,Mn 16,Au  4,Au  8)    112.2437         0.001539   
    664. D(Au 10,Mn 16,Au  0,Au  1)    -11.7404         0.001539   
    665. D(Au 10,Mn 16,Au  0,Au  2)    -71.2952         0.001539   
    666. D(Au  6,Mn 16,Au  0,Au  1)     87.3975         0.001539   
    667. D(Au  6,Mn 16,Au  0,Au  2)     27.8427         0.001539   
    668. D(Au  5,Mn 16,Au  0,Au  1)     92.1721         0.001539   
    669. D(Au  5,Mn 16,Au  0,Au  2)     32.6173         0.001539   
    670. D(Au  5,Mn 16,Au 10,Au  7)    -32.1184         0.001553   
    671. D(Au  4,Mn 16,Au  0,Au  1)    -52.7210         0.001539   
    672. D(Au  4,Mn 16,Au  0,Au  2)   -112.2758         0.001539   
    673. D(Au  3,Mn 16,Au  0,Au  1)   -124.8042         0.001539   
    674. D(Au  3,Mn 16,Au  0,Au  2)    175.6410         0.001539   
    -----------------------------------------------------------------

Number of atoms                         .... 17
Number of degrees of freedom            .... 674

         *************************************************************
         *                GEOMETRY OPTIMIZATION CYCLE   1            *
         *************************************************************
---------------------------------
CARTESIAN COORDINATES (ANGSTROEM)
---------------------------------
  Au     7.566520    8.045688   10.574330
  Au     5.954059   10.059619    9.159217
  Au     8.818388   10.055560    9.283001
  Au     6.410103    5.615472   11.137684
  Au     4.821855    7.420720    9.804357
  Au     9.110259    7.426630    8.161959
  Au     7.712836    5.434218    6.640813
  Au     4.431952    8.669547    5.149746
  Au     3.690953    8.889253    7.844726
  Au     6.473032    6.928923    4.549296
  Au     5.081277    6.509982    7.031421
  Au     7.580214   11.594034    7.309658
  Au     5.004348   11.008207    6.586916
  Au     7.148956    9.614066    5.261471
  Au     9.103397    7.527196    5.287404
  Au     9.674978    9.861586    6.620736
  Mn     6.921791    6.243663    8.804319

----------------------------
CARTESIAN COORDINATES (A.U.)
----------------------------
  NO LB      ZA    FRAG     MASS         X           Y           Z
   0 Au   19.0000*   0   196.966   14.298650   15.204147   19.982588
   1 Au   19.0000*   0   196.966   11.251541   19.009926   17.308412
   2 Au   19.0000*   0   196.966   16.664339   19.002255   17.542329
   3 Au   19.0000*   0   196.966   12.113340   10.611705   21.047172
   4 Au   19.0000*   0   196.966    9.111986   14.023129   18.527550
   5 Au   19.0000*   0   196.966   17.215895   14.034297   15.423867
   6 Au   19.0000*   0   196.966   14.575147   10.269183   12.549319
   7 Au   19.0000*   0   196.966    8.375176   16.383070    9.731610
   8 Au   19.0000*   0   196.966    6.974890   16.798254   14.824383
   9 Au   19.0000*   0   196.966   12.232258   13.093767    8.596924
  10 Au   19.0000*   0   196.966    9.602221   12.302083   13.287461
  11 Au   19.0000*   0   196.966   14.324529   21.909548   13.813252
  12 Au   19.0000*   0   196.966    9.456847   20.802496   12.447467
  13 Au   19.0000*   0   196.966   13.509568   18.167952    9.942739
  14 Au   19.0000*   0   196.966   17.202927   14.224339    9.991746
  15 Au   19.0000*   0   196.966   18.283059   18.635697   12.511379
  16 Mn   25.0000    0    54.940   13.080289   11.798814   16.637752
* core charge reduced due to ECP

--------------------------------
INTERNAL COORDINATES (ANGSTROEM)
--------------------------------
 Au     0   0   0     0.000000000000     0.00000000     0.00000000
 Au     1   0   0     2.942531819259     0.00000000     0.00000000
 Au     1   2   0     2.697089433192    60.92609250     0.00000000
 Au     1   2   3     2.749657491646   118.22759164   200.32834922
 Au     4   1   2     2.749401856092    64.10491964     0.24663409
 Au     3   1   2     2.872837812130    63.38823420   249.26523485
 Au     6   3   1     2.869910149201   142.43481011    75.71246806
 Au     2   1   3     4.508321934845   113.68344306   101.22938783
 Au     5   4   1     2.697348006581   162.17392884    82.07996656
 Au     8   2   1     2.748875841078    97.97943023   330.71189450
 Au     7   6   3     2.869659540027    96.55294577   343.18689509
 Au     3   1   2     2.791783673765   122.90365229   341.56987140
 Au    12   3   1     2.738729288014   119.06414925   358.19925711
 Au    10   8   2     2.859031110495    61.73378080   307.02258576
 Au    10   8   2     2.796703915269   120.34761466   323.65377343
 Au    15  10   8     2.748428368719   120.35304010     0.00000000
 Mn     7   6   3     2.441661322908    57.17671485   299.51365387

---------------------------
INTERNAL COORDINATES (A.U.)
---------------------------
 Au     0   0   0     0.000000000000     0.00000000     0.00000000
 Au     1   0   0     5.560579278749     0.00000000     0.00000000
 Au     1   2   0     5.096760387427    60.92609250     0.00000000
 Au     1   2   3     5.196099621296   118.22759164   200.32834922
 Au     4   1   2     5.195616540109    64.10491964     0.24663409
 Au     3   1   2     5.428876692099    63.38823420   249.26523485
 Au     6   3   1     5.423344210951   142.43481011    75.71246806
 Au     2   1   3     8.519493780406   113.68344306   101.22938783
 Au     5   4   1     5.097249020317   162.17392884    82.07996656
 Au     8   2   1     5.194622515789    97.97943023   330.71189450
 Au     7   6   3     5.422870628246    96.55294577   343.18689509
 Au     3   1   2     5.275706568568   122.90365229   341.56987140
 Au    12   3   1     5.175448309296   119.06414925   358.19925711
 Au    10   8   2     5.402785807196    61.73378080   307.02258576
 Au    10   8   2     5.285004477524   120.34761466   323.65377343
 Au    15  10   8     5.193776915579   120.35304010     0.00000000
 Mn     7   6   3     4.614071212085    57.17671485   299.51365387

---------------------
BASIS SET INFORMATION
---------------------
There are 2 groups of distinct atoms

 Group   1 Type Au  : 8s7p6d1f contracted to 6s4p3d1f pattern {311111/4111/411/1}
 Group   2 Type Mn  : 17s11p7d1f contracted to 6s4p4d1f pattern {842111/6311/4111/1}

Atom   0Au   basis set group =>   1
Atom   1Au   basis set group =>   1
Atom   2Au   basis set group =>   1
Atom   3Au   basis set group =>   1
Atom   4Au   basis set group =>   1
Atom   5Au   basis set group =>   1
Atom   6Au   basis set group =>   1
Atom   7Au   basis set group =>   1
Atom   8Au   basis set group =>   1
Atom   9Au   basis set group =>   1
Atom  10Au   basis set group =>   1
Atom  11Au   basis set group =>   1
Atom  12Au   basis set group =>   1
Atom  13Au   basis set group =>   1
Atom  14Au   basis set group =>   1
Atom  15Au   basis set group =>   1
Atom  16Mn   basis set group =>   2
---------------------------------
AUXILIARY/J BASIS SET INFORMATION
---------------------------------
There are 2 groups of distinct atoms

 Group   1 Type Au  : 11s5p5d3f3g contracted to 8s5p5d2f3g pattern {41111111/11111/11111/21/111}
 Group   2 Type Mn  : 19s5p5d3f3g contracted to 8s5p5d2f3g pattern {121111111/11111/11111/21/111}

Atom   0Au   basis set group =>   1
Atom   1Au   basis set group =>   1
Atom   2Au   basis set group =>   1
Atom   3Au   basis set group =>   1
Atom   4Au   basis set group =>   1
Atom   5Au   basis set group =>   1
Atom   6Au   basis set group =>   1
Atom   7Au   basis set group =>   1
Atom   8Au   basis set group =>   1
Atom   9Au   basis set group =>   1
Atom  10Au   basis set group =>   1
Atom  11Au   basis set group =>   1
Atom  12Au   basis set group =>   1
Atom  13Au   basis set group =>   1
Atom  14Au   basis set group =>   1
Atom  15Au   basis set group =>   1
Atom  16Mn   basis set group =>   2
-------------------------
ECP PARAMETER INFORMATION
-------------------------

 Group 1, Type Au ECP Def2-ECP (replacing 60 core electrons, lmax=3)

Atom   0Au   ECP group =>   1
Atom   1Au   ECP group =>   1
Atom   2Au   ECP group =>   1
Atom   3Au   ECP group =>   1
Atom   4Au   ECP group =>   1
Atom   5Au   ECP group =>   1
Atom   6Au   ECP group =>   1
Atom   7Au   ECP group =>   1
Atom   8Au   ECP group =>   1
Atom   9Au   ECP group =>   1
Atom  10Au   ECP group =>   1
Atom  11Au   ECP group =>   1
Atom  12Au   ECP group =>   1
Atom  13Au   ECP group =>   1
Atom  14Au   ECP group =>   1
Atom  15Au   ECP group =>   1

------------------------------------------------------------------------------
                           ORCA GTO INTEGRAL CALCULATION
                           -- RI-GTO INTEGRALS CHOSEN --
------------------------------------------------------------------------------
------------------------------------------------------------------------------
                   ___                                                        
                  /   \      - P O W E R E D   B Y -                         
                 /     \                                                     
                 |  |  |   _    _      __       _____    __    __             
                 |  |  |  | |  | |    /  \     |  _  \  |  |  /  |          
                  \  \/   | |  | |   /    \    | | | |  |  | /  /          
                 / \  \   | |__| |  /  /\  \   | |_| |  |  |/  /          
                |  |  |   |  __  | /  /__\  \  |    /   |      \           
                |  |  |   | |  | | |   __   |  |    \   |  |\   \          
                \     /   | |  | | |  |  |  |  | |\  \  |  | \   \       
                 \___/    |_|  |_| |__|  |__|  |_| \__\ |__|  \__/        
                                                                              
                      - O R C A' S   B I G   F R I E N D -                    
                                      &                                       
                       - I N T E G R A L  F E E D E R -                       
                                                                              
 v1 FN, 2020, v2 2021                                                         
------------------------------------------------------------------------------


Reading SHARK input file pbe.SHARKINP.tmp ... ok
----------------------
SHARK INTEGRAL PACKAGE
----------------------

Number of atoms                             ...     17
Number of basis functions                   ...    685
Number of shells                            ...    239
Maximum angular momentum                    ...      3
Integral batch strategy                     ... SHARK/LIBINT Hybrid
RI-J (if used) integral strategy            ... SPLIT-RIJ (Revised 2003 algorithm where possible)
Printlevel                                  ...      1
Contraction scheme used                     ... SEGMENTED contraction
Coulomb Range Separation                    ... NOT USED
Exchange Range Separation                   ... NOT USED
Finite Nucleus Model                        ... NOT USED
Auxiliary Coulomb fitting basis             ... AVAILABLE
   # of basis functions in Aux-J            ...   1513
   # of shells in Aux-J                     ...    391
   Maximum angular momentum in Aux-J        ...      4
Auxiliary J/K fitting basis                 ... NOT available
Auxiliary Correlation fitting basis         ... NOT available
Auxiliary 'external' fitting basis          ... NOT available
Integral threshold                          ...     2.500000e-11
Primitive cut-off                           ...     2.500000e-12
Primitive pair pre-selection threshold      ...     2.500000e-12

Calculating pre-screening integrals         ... done (  0.8 sec) Dimension = 239
Organizing shell pair data                  ... done (  1.0 sec)
Shell pair information
Total number of shell pairs                 ...     28680
Shell pairs after pre-screening             ...     21978
Total number of primitive shell pairs       ...     75765
Primitive shell pairs kept                  ...     41152
          la=0 lb=0:   3484 shell pairs
          la=1 lb=0:   5007 shell pairs
          la=1 lb=1:   1867 shell pairs
          la=2 lb=0:   4380 shell pairs
          la=2 lb=1:   3087 shell pairs
          la=2 lb=2:   1288 shell pairs
          la=3 lb=0:   1112 shell pairs
          la=3 lb=1:    871 shell pairs
          la=3 lb=2:    774 shell pairs
          la=3 lb=3:    108 shell pairs

Calculating one electron integrals          ... done (  0.2 sec)
Calculating ECP integrals                   ... done ( 17.3 sec)
Calculating RI/J V-Matrix + Cholesky decomp.... done (  0.2 sec)
Calculating Nuclear repulsion               ... done (  0.0 sec) ENN=   6745.495410565168 Eh

SHARK setup successfully completed in  20.7 seconds

Maximum memory used throughout the entire GTOINT-calculation: 601.9 MB
-------------------------------------------------------------------------------
                                 ORCA SCF
-------------------------------------------------------------------------------

------------
SCF SETTINGS
------------
Hamiltonian:
 Density Functional     Method          .... DFT(GTOs)
 Exchange Functional    Exchange        .... PBE
   PBE kappa parameter   XKappa         ....  0.804000
   PBE mue parameter    XMuePBE         ....  0.219520
 Correlation Functional Correlation     .... PBE
   PBE beta parameter  CBetaPBE         ....  0.066725
 LDA part of GGA corr.  LDAOpt          .... PW91-LDA
 Gradients option       PostSCFGGA      .... off
   Density functional embedding theory  .... OFF
   NL short-range parameter             ....  6.400000
 RI-approximation to the Coulomb term is turned on
   Number of AuxJ basis functions       .... 1513


General Settings:
 Integral files         IntName         .... pbe
 Hartree-Fock type      HFTyp           .... UHF
 Total Charge           Charge          ....    0
 Multiplicity           Mult            ....    6
 Number of Electrons    NEL             ....  329
 Basis Dimension        Dim             ....  685
 Nuclear Repulsion      ENuc            ....   6745.4954105652 Eh

Convergence Acceleration:
 DIIS                   CNVDIIS         .... off
 Trust-Rad. Augm. Hess. CNVTRAH         .... auto
   Auto Start mean grad. ratio tolernc. ....  1.125000
   Auto Start start iteration           ....    20
   Auto Start num. interpolation iter.  ....    10
   Max. Number of Micro iterations      ....    16
   Max. Number of Macro iterations      .... Maxiter - #DIIS iter
   Number of Davidson start vectors     ....     2
   Converg. threshold I  (grad. norm)   ....   1.000e-05
   Converg. threshold II (energy diff.) ....   1.000e-08
   Grad. Scal. Fac. for Micro threshold ....   0.100
   Minimum threshold for Micro iter.    ....   0.010
   NR start threshold (gradient norm)   ....   0.001
   Initial trust radius                 ....   0.400
   Minimum AH scaling param. (alpha)    ....   1.000
   Maximum AH scaling param. (alpha)    .... 1000.000
   Orbital update algorithm             .... Taylor
   White noise on init. David. guess    .... on
   Maximum white noise                  ....   0.010
   Quad. conv. algorithm                .... NR
 SOSCF                  CNVSOSCF        .... off
 Level Shifting         CNVShift        .... off
 Zerner damping         CNVZerner       .... off
 Static damping         CNVDamp         .... off
 Fernandez-Rico         CNVRico         .... off

SCF Procedure:
 Maximum # iterations   MaxIter         ....   125
 SCF integral mode      SCFMode         .... Direct
   Integral package                     .... SHARK and LIBINT hybrid scheme
 Reset frequency        DirectResetFreq ....    20
 Integral Threshold     Thresh          ....  2.500e-11 Eh
 Primitive CutOff       TCut            ....  2.500e-12 Eh

Convergence Tolerance:
 Convergence Check Mode ConvCheckMode   .... Total+1el-Energy
 Convergence forced     ConvForced      .... 0
 Energy Change          TolE            ....  1.000e-08 Eh
 1-El. energy change                    ....  1.000e-05 Eh


Diagonalization of the overlap matrix:
Smallest eigenvalue                        ... 3.359e-04
Time for diagonalization                   ...    0.155 sec
Threshold for overlap eigenvalues          ... 1.000e-08
Number of eigenvalues below threshold      ... 0
Time for construction of square roots      ...    0.076 sec
Total time needed                          ...    0.232 sec

Time for model grid setup =    2.753 sec

------------------------------
INITIAL GUESS: MODEL POTENTIAL
------------------------------
Loading Hartree-Fock densities                     ... done
  calling /home/ehlert/src/miniconda3/envs/orca500/Programs/ORCA501/orca pbe_atom79.inp > pbe_atom79.out in order to generate an atomic fitting density for atom 0 (Au with ECP) on-the-fly... 
    atom 0 (Au), assumed electronic state with S=2: 1s2 2s2 2p6 3s2 3p6 4s2 3d10 4p6 5s2 4d10 5p6 6s1 4f14 5d10           ... done
Calculating cut-offs                               ... done
Initializing the effective Hamiltonian             ... done
Setting up the integral package (SHARK)            ... done
Starting the Coulomb interaction                   ... done (   4.5 sec)
Reading the grid                                   ... done
Mapping shells                                     ... done
Starting the XC term evaluation                    ... done (   4.8 sec)
  promolecular density results
     # of electrons  =   1289.015902791
     EX              =  -5903.689580111
     EC              =    -78.576523241
     EX+EC           =  -5982.266103352
Transforming the Hamiltonian                       ... done (   0.1 sec)
Diagonalizing the Hamiltonian                      ... done (   0.2 sec)
Back transforming the eigenvectors                 ... done (   0.0 sec)
Now organizing SCF variables                       ... done
                      ------------------
                      INITIAL GUESS DONE (  13.2 sec)
                      ------------------
-------------------
DFT GRID GENERATION
-------------------

General Integration Accuracy     IntAcc      ... 4.388
Radial Grid Type                 RadialGrid  ... OptM3 with GC (2021)
Angular Grid (max. ang.)         AngularGrid ... 4 (Lebedev-302)
Angular grid pruning method      GridPruning ... 4 (adaptive)
Weight generation scheme         WeightScheme... Becke
Basis function cutoff            BFCut       ... 1.0000e-11
Integration weight cutoff        WCut        ... 1.0000e-14
Angular grids for H and He will be reduced by one unit
Partially contracted basis set               ... off
Rotationally invariant grid construction     ... off

Total number of grid points                  ...   187521
Total number of batches                      ...     2940
Average number of points per batch           ...       63
Average number of grid points per atom       ...    11031
Time for grid setup =    6.040 sec

--------------
SCF ITERATIONS
--------------
ITER       Energy         Delta-E        Max-DP      RMS-DP      [F,P]   Gradient Norm
               ***  Starting incremental Fock matrix formation  ***
                             ****Resetting KDIIS****
                             ****Turning on KDIIS(Cayley)****
  0  -3321.6343293248   0.000000000000 0.21102729  0.00119432  0.3947111   0.217879435
  1  -3322.9675363929  -1.333207068074 0.22786552  0.00105323  0.3528992   0.165562681
  2  -3323.5013807811  -0.533844388141 0.09791919  0.00096029  0.2786112   0.125277854
  3  -3323.7792299798  -0.277849198798 0.14698024  0.00129112  0.1623596   0.073111458
  4  -3323.8805877493  -0.101357769477 0.03925763  0.00044218  0.0268063   0.017474512
  5  -3323.9134054248  -0.032817675477 0.09439787  0.00055759  0.0209366   0.009061130
  6  -3323.9316573774  -0.018251952603 0.04945601  0.00032483  0.0386824   0.010211402
  7  -3323.9479306737  -0.016273296329 0.02533764  0.00024097  0.0157248   0.004899640
  8  -3323.9452480006   0.002682673128 0.03652185  0.00022014  0.0113727   0.008698449
  9  -3323.9597496730  -0.014501672428 0.01712562  0.00016315  0.0113213   0.002111433
 10  -3323.9643994685  -0.004649795495 0.01331748  0.00012659  0.0096496   0.002666437
 11  -3323.9684230137  -0.004023545128 0.01597780  0.00014800  0.0093529   0.001573346
 12  -3323.9723661994  -0.003943185703 0.00881955  0.00004966  0.0109406   0.001572106
 13  -3323.9731958344  -0.000829635019 0.01095304  0.00007443  0.0122900   0.001693533
 14  -3323.9752108803  -0.002015045934 0.01336903  0.00008672  0.0112229   0.001352109
 15  -3323.9774690016  -0.002258121270 0.02329679  0.00013137  0.0110579   0.001300212
 16  -3323.9807880017  -0.003319000075 0.01911464  0.00009712  0.0131103   0.001382785
 17  -3323.9831204741  -0.002332472455 0.03735805  0.00018634  0.0113626   0.001280332
 18  -3323.9873440346  -0.004223560442 0.07240869  0.00035647  0.0097375   0.001388288
 19  -3323.9941314578  -0.006787423275 0.04635551  0.00021798  0.0099091   0.001279097
               *** Restarting incremental Fock matrix formation ***
                             ****Resetting KDIIS****

 WARNING: the maximum gradient error descreased on average only by a factor   1.0
          during the last 20 iterations

                      *** Initiating the TRAH-SCF procedure ***

                    *** KDIIS BlockDiag ( 0.349 sec) ***

TRAH GRID
---------

General Integration Accuracy     IntAcc      ... 3.467
Radial Grid Type                 RadialGrid  ... OptM3 with GC (2021)
Angular Grid (max. ang.)         AngularGrid ... 1 (Lebedev-50)
Angular grid pruning method      GridPruning ... 4 (adaptive)
Weight generation scheme         WeightScheme... Becke
Basis function cutoff            BFCut       ... 1.0000e-11
Integration weight cutoff        WCut        ... 1.0000e-14
Angular grids for H and He will be reduced by one unit
Partially contracted basis set               ... off
Rotationally invariant grid construction     ... off

Total number of grid points                  ...    80750
Total number of batches                      ...     1270
Average number of points per batch           ...       63
Average number of grid points per atom       ...     4750

 --------------------------------------------------------------------------------------------
   Iter.        energy            ||Error||_2        Shift      TRadius  Mac/Mic        Rej.
 --------------------------------------------------------------------------------------------
[...]
 300( 0) :     0.467345 a.u.    12.717 eV
 301( 0) :     0.469140 a.u.    12.766 eV
 302( 0) :     0.470389 a.u.    12.800 eV
 303( 0) :     0.473690 a.u.    12.890 eV
 304( 0) :     0.474471 a.u.    12.911 eV
 305( 0) :     0.478139 a.u.    13.011 eV
 306( 0) :     0.487340 a.u.    13.261 eV
 307( 0) :     0.490160 a.u.    13.338 eV
 308( 0) :     0.494397 a.u.    13.453 eV
 309( 0) :     0.497748 a.u.    13.544 eV
 310( 0) :     0.501100 a.u.    13.636 eV
 311( 0) :     0.508743 a.u.    13.844 eV
 312( 0) :     0.510697 a.u.    13.897 eV
 313( 0) :     0.514036 a.u.    13.988 eV
 314( 0) :     0.523405 a.u.    14.243 eV
 315( 0) :     0.529172 a.u.    14.400 eV
 316( 0) :     0.531763 a.u.    14.470 eV
 317( 0) :     0.534812 a.u.    14.553 eV
 318( 0) :     0.536459 a.u.    14.598 eV
 319( 0) :     0.541237 a.u.    14.728 eV
 320( 0) :     0.548203 a.u.    14.917 eV
 321( 0) :     0.554984 a.u.    15.102 eV
 322( 0) :     0.562454 a.u.    15.305 eV
 323( 0) :     0.574301 a.u.    15.628 eV
 324( 0) :     0.577623 a.u.    15.718 eV
 325( 0) :     0.583058 a.u.    15.866 eV
 326( 0) :     0.610806 a.u.    16.621 eV
 327( 0) :     0.616375 a.u.    16.772 eV
 328( 0) :     0.641071 a.u.    17.444 eV
 329( 0) :     0.654703 a.u.    17.815 eV
 330( 0) :     0.662876 a.u.    18.038 eV
 331( 0) :     0.665119 a.u.    18.099 eV
 332( 0) :     0.672839 a.u.    18.309 eV
 333( 0) :     0.695447 a.u.    18.924 eV
 334( 0) :     0.708446 a.u.    19.278 eV
 335( 0) :     0.716728 a.u.    19.503 eV
 336( 0) :     0.721131 a.u.    19.623 eV
 337( 0) :     0.729609 a.u.    19.854 eV
 338( 0) :     0.736596 a.u.    20.044 eV
 339( 0) :     0.741635 a.u.    20.181 eV
 340( 0) :     0.747526 a.u.    20.341 eV
 341( 0) :     0.748787 a.u.    20.376 eV
 342( 0) :     0.753455 a.u.    20.503 eV
 343( 0) :     0.757026 a.u.    20.600 eV
 344( 0) :     0.773895 a.u.    21.059 eV
 345( 0) :     0.784224 a.u.    21.340 eV
 346( 0) :     0.790263 a.u.    21.504 eV
 347( 0) :     0.796236 a.u.    21.667 eV
 348( 0) :     0.802987 a.u.    21.850 eV
 349( 0) :     0.808019 a.u.    21.987 eV
 350( 0) :     0.808342 a.u.    21.996 eV
 351( 0) :     0.812738 a.u.    22.116 eV
 352( 0) :     0.828279 a.u.    22.539 eV
 353( 0) :     0.833666 a.u.    22.685 eV
 354( 0) :     0.836193 a.u.    22.754 eV
 355( 0) :     0.846852 a.u.    23.044 eV
 356( 0) :     0.850229 a.u.    23.136 eV
 357( 0) :     0.873443 a.u.    23.768 eV
 358( 0) :     0.876442 a.u.    23.849 eV
 359( 0) :     0.879389 a.u.    23.929 eV
 360( 0) :     0.881479 a.u.    23.986 eV
 361( 0) :     0.885361 a.u.    24.092 eV
 362( 0) :     0.887785 a.u.    24.158 eV
 363( 0) :     0.900758 a.u.    24.511 eV
 364( 0) :     0.902875 a.u.    24.568 eV
 365( 0) :     0.914492 a.u.    24.885 eV
 366( 0) :     0.916600 a.u.    24.942 eV
 367( 0) :     0.919352 a.u.    25.017 eV
 368( 0) :     0.928878 a.u.    25.276 eV
 369( 0) :     0.931042 a.u.    25.335 eV
 370( 0) :     0.931470 a.u.    25.347 eV
 371( 0) :     0.937795 a.u.    25.519 eV
 372( 0) :     0.960151 a.u.    26.127 eV
 373( 0) :     0.975785 a.u.    26.552 eV
 374( 0) :     0.991816 a.u.    26.989 eV
 375( 0) :     0.998751 a.u.    27.177 eV
 376( 0) :     1.015044 a.u.    27.621 eV
 377( 0) :     1.019089 a.u.    27.731 eV
 378( 0) :     1.051999 a.u.    28.626 eV
 379( 0) :     1.060162 a.u.    28.848 eV
 380( 0) :     1.094107 a.u.    29.772 eV
 381( 0) :     1.181483 a.u.    32.150 eV
 382( 0) :     1.189669 a.u.    32.373 eV
 383( 0) :     1.191628 a.u.    32.426 eV
 384( 0) :     1.221680 a.u.    33.244 eV
 385( 0) :     1.237556 a.u.    33.676 eV
 386( 0) :     1.252620 a.u.    34.086 eV
 387( 0) :     1.266018 a.u.    34.450 eV
 388( 0) :     1.272094 a.u.    34.615 eV
 389( 0) :     1.275656 a.u.    34.712 eV
 390( 0) :     1.282470 a.u.    34.898 eV
 391( 0) :     1.289028 a.u.    35.076 eV
 392( 0) :     1.292951 a.u.    35.183 eV
 393( 0) :     1.304937 a.u.    35.509 eV
 394( 0) :     1.311859 a.u.    35.697 eV
 395( 0) :     1.315348 a.u.    35.792 eV
 396( 0) :     1.323269 a.u.    36.008 eV
 397( 0) :     1.326527 a.u.    36.097 eV
 398( 0) :     1.334333 a.u.    36.309 eV
 399( 0) :     1.346374 a.u.    36.637 eV
 400( 0) :     1.351279 a.u.    36.770 eV
 401( 0) :     1.359387 a.u.    36.991 eV
 402( 0) :     1.364682 a.u.    37.135 eV
 403( 0) :     1.365218 a.u.    37.149 eV
 404( 0) :     1.366940 a.u.    37.196 eV
 405( 0) :     1.374549 a.u.    37.403 eV
 406( 0) :     1.382963 a.u.    37.632 eV
 407( 0) :     1.384957 a.u.    37.687 eV
 408( 0) :     1.388154 a.u.    37.774 eV
 409( 0) :     1.393249 a.u.    37.912 eV
 410( 0) :     1.395381 a.u.    37.970 eV
 411( 0) :     1.403113 a.u.    38.181 eV
 412( 0) :     1.407089 a.u.    38.289 eV
 413( 0) :     1.409395 a.u.    38.352 eV
 414( 0) :     1.413534 a.u.    38.464 eV
 415( 0) :     1.414402 a.u.    38.488 eV
 416( 0) :     1.420338 a.u.    38.649 eV
 417( 0) :     1.420955 a.u.    38.666 eV
 418( 0) :     1.422585 a.u.    38.711 eV
 419( 0) :     1.427204 a.u.    38.836 eV
 420( 0) :     1.431311 a.u.    38.948 eV
 421( 0) :     1.433540 a.u.    39.009 eV
 422( 0) :     1.435078 a.u.    39.050 eV
 423( 0) :     1.440211 a.u.    39.190 eV
 424( 0) :     1.440457 a.u.    39.197 eV
 425( 0) :     1.442771 a.u.    39.260 eV
 426( 0) :     1.446985 a.u.    39.374 eV
 427( 0) :     1.448571 a.u.    39.418 eV
 428( 0) :     1.450540 a.u.    39.471 eV
 429( 0) :     1.452119 a.u.    39.514 eV
 430( 0) :     1.454272 a.u.    39.573 eV
 431( 0) :     1.457938 a.u.    39.673 eV
 432( 0) :     1.459368 a.u.    39.711 eV
 433( 0) :     1.462593 a.u.    39.799 eV
 434( 0) :     1.463096 a.u.    39.813 eV
 435( 0) :     1.467461 a.u.    39.932 eV
 436( 0) :     1.467567 a.u.    39.935 eV
 437( 0) :     1.468983 a.u.    39.973 eV
 438( 0) :     1.470186 a.u.    40.006 eV
 439( 0) :     1.472728 a.u.    40.075 eV
 440( 0) :     1.473677 a.u.    40.101 eV
 441( 0) :     1.477531 a.u.    40.206 eV
 442( 0) :     1.480789 a.u.    40.294 eV
 443( 0) :     1.483563 a.u.    40.370 eV
 444( 0) :     1.484893 a.u.    40.406 eV
 445( 0) :     1.486284 a.u.    40.444 eV
 446( 0) :     1.487278 a.u.    40.471 eV
 447( 0) :     1.490307 a.u.    40.553 eV
 448( 0) :     1.490782 a.u.    40.566 eV
 449( 0) :     1.493205 a.u.    40.632 eV
 450( 0) :     1.493766 a.u.    40.647 eV
 451( 0) :     1.494371 a.u.    40.664 eV
 452( 0) :     1.498279 a.u.    40.770 eV
 453( 0) :     1.498551 a.u.    40.778 eV
 454( 0) :     1.499141 a.u.    40.794 eV
 455( 0) :     1.500081 a.u.    40.819 eV
 456( 0) :     1.503578 a.u.    40.914 eV
 457( 0) :     1.504847 a.u.    40.949 eV
 458( 0) :     1.505194 a.u.    40.958 eV
 459( 0) :     1.505322 a.u.    40.962 eV
 460( 0) :     1.505640 a.u.    40.971 eV
 461( 0) :     1.507820 a.u.    41.030 eV
 462( 0) :     1.509640 a.u.    41.079 eV
 463( 0) :     1.511164 a.u.    41.121 eV
 464( 0) :     1.511767 a.u.    41.137 eV
 465( 0) :     1.513010 a.u.    41.171 eV
 466( 0) :     1.514247 a.u.    41.205 eV
 467( 0) :     1.514978 a.u.    41.225 eV
 468( 0) :     1.519070 a.u.    41.336 eV
 469( 0) :     1.519735 a.u.    41.354 eV
 470( 0) :     1.520829 a.u.    41.384 eV
 471( 0) :     1.521779 a.u.    41.410 eV
 472( 0) :     1.523337 a.u.    41.452 eV
 473( 0) :     1.523993 a.u.    41.470 eV
 474( 0) :     1.525946 a.u.    41.523 eV
 475( 0) :     1.529006 a.u.    41.606 eV
 476( 0) :     1.529834 a.u.    41.629 eV
 477( 0) :     1.532317 a.u.    41.696 eV
 478( 0) :     1.532860 a.u.    41.711 eV
 479( 0) :     1.535700 a.u.    41.789 eV
 480( 0) :     1.536311 a.u.    41.805 eV
 481( 0) :     1.536915 a.u.    41.822 eV
 482( 0) :     1.539648 a.u.    41.896 eV
 483( 0) :     1.541707 a.u.    41.952 eV
 484( 0) :     1.543282 a.u.    41.995 eV
 485( 0) :     1.544804 a.u.    42.036 eV
 486( 0) :     1.546870 a.u.    42.092 eV
 487( 0) :     1.549775 a.u.    42.172 eV
 488( 0) :     1.554848 a.u.    42.310 eV
 489( 0) :     1.557607 a.u.    42.385 eV
 490( 0) :     1.559202 a.u.    42.428 eV
 491( 0) :     1.561537 a.u.    42.492 eV
 492( 0) :     1.562174 a.u.    42.509 eV
 493( 0) :     1.565718 a.u.    42.605 eV
 494( 0) :     1.568657 a.u.    42.685 eV
 495( 0) :     1.570127 a.u.    42.725 eV
 496( 0) :     1.572693 a.u.    42.795 eV
 497( 0) :     1.572884 a.u.    42.800 eV
 498( 0) :     1.576691 a.u.    42.904 eV
 499( 0) :     1.577240 a.u.    42.919 eV
 500( 0) :     1.578087 a.u.    42.942 eV
 501( 0) :     1.578677 a.u.    42.958 eV
 502( 0) :     1.581426 a.u.    43.033 eV
 503( 0) :     1.583547 a.u.    43.090 eV
 504( 0) :     1.585847 a.u.    43.153 eV
 505( 0) :     1.589925 a.u.    43.264 eV
 506( 0) :     1.591101 a.u.    43.296 eV
 507( 0) :     1.594491 a.u.    43.388 eV
 508( 0) :     1.598115 a.u.    43.487 eV
 509( 0) :     1.598666 a.u.    43.502 eV
 510( 0) :     1.599466 a.u.    43.524 eV
 511( 0) :     1.600471 a.u.    43.551 eV
 512( 0) :     1.602356 a.u.    43.602 eV
 513( 0) :     1.605547 a.u.    43.689 eV
 514( 0) :     1.605985 a.u.    43.701 eV
 515( 0) :     1.609762 a.u.    43.804 eV
 516( 0) :     1.610886 a.u.    43.834 eV
 517( 0) :     1.612281 a.u.    43.872 eV
 518( 0) :     1.618272 a.u.    44.035 eV
 519( 0) :     1.620344 a.u.    44.092 eV
 520( 0) :     1.621575 a.u.    44.125 eV
 521( 0) :     1.624586 a.u.    44.207 eV
 522( 0) :     1.628436 a.u.    44.312 eV
 523( 0) :     1.635139 a.u.    44.494 eV
 524( 0) :     1.636162 a.u.    44.522 eV
 525( 0) :     1.638913 a.u.    44.597 eV
 526( 0) :     1.643857 a.u.    44.732 eV
 527( 0) :     1.644712 a.u.    44.755 eV
 528( 0) :     1.650810 a.u.    44.921 eV
 529( 0) :     1.652864 a.u.    44.977 eV
 530( 0) :     1.663048 a.u.    45.254 eV
 531( 0) :     1.666893 a.u.    45.358 eV
 532( 0) :     1.669780 a.u.    45.437 eV
 533( 0) :     1.676996 a.u.    45.633 eV
 534( 0) :     1.679508 a.u.    45.702 eV
 535( 0) :     1.685065 a.u.    45.853 eV
 536( 0) :     1.687325 a.u.    45.914 eV
 537( 0) :     1.695974 a.u.    46.150 eV
 538( 0) :     1.703599 a.u.    46.357 eV
 539( 0) :     1.707078 a.u.    46.452 eV
 540( 0) :     1.720024 a.u.    46.804 eV
 541( 0) :     1.724266 a.u.    46.920 eV
 542( 0) :     1.733981 a.u.    47.184 eV
 543( 0) :     1.735781 a.u.    47.233 eV
 544( 0) :     1.739593 a.u.    47.337 eV
 545( 0) :     1.745230 a.u.    47.490 eV
 546( 0) :     1.746232 a.u.    47.517 eV
 547( 0) :     1.761945 a.u.    47.945 eV
 548( 0) :     1.768206 a.u.    48.115 eV
 549( 0) :     1.781854 a.u.    48.487 eV
 550( 0) :     1.788268 a.u.    48.661 eV
 551( 0) :     1.796496 a.u.    48.885 eV
 552( 0) :     1.797503 a.u.    48.913 eV
 553( 0) :     1.798668 a.u.    48.944 eV
 554( 0) :     1.804980 a.u.    49.116 eV
 555( 0) :     1.811584 a.u.    49.296 eV
 556( 0) :     1.812747 a.u.    49.327 eV
 557( 0) :     1.813293 a.u.    49.342 eV
 558( 0) :     1.828724 a.u.    49.762 eV
 559( 0) :     1.835069 a.u.    49.935 eV
 560( 0) :     1.837326 a.u.    49.996 eV
 561( 0) :     1.848153 a.u.    50.291 eV
 562( 0) :     1.858050 a.u.    50.560 eV
 563( 0) :     1.858958 a.u.    50.585 eV
 564( 0) :     1.862925 a.u.    50.693 eV
 565( 0) :     1.864593 a.u.    50.738 eV
 566( 0) :     1.870403 a.u.    50.896 eV
 567( 0) :     1.876675 a.u.    51.067 eV
 568( 0) :     1.897712 a.u.    51.639 eV
 569( 0) :     1.908098 a.u.    51.922 eV
 570( 0) :     1.914933 a.u.    52.108 eV
 571( 0) :     1.919447 a.u.    52.231 eV
 572( 0) :     1.939713 a.u.    52.782 eV
 573( 0) :     1.949931 a.u.    53.060 eV
 574( 0) :     2.031769 a.u.    55.287 eV
 575( 0) :     2.087826 a.u.    56.813 eV
 576( 0) :     2.113636 a.u.    57.515 eV
 577( 0) :     2.236535 a.u.    60.859 eV
 578( 0) :     2.293573 a.u.    62.411 eV
 579( 0) :     2.294549 a.u.    62.438 eV
 580( 0) :     2.350188 a.u.    63.952 eV
 581( 0) :     2.419152 a.u.    65.828 eV
 582( 0) :     2.431705 a.u.    66.170 eV
 583( 0) :     2.456985 a.u.    66.858 eV
 584( 0) :     2.461159 a.u.    66.972 eV
 585( 0) :     2.501998 a.u.    68.083 eV
 586( 0) :     2.504062 a.u.    68.139 eV
 587( 0) :     2.515003 a.u.    68.437 eV
 588( 0) :     2.535277 a.u.    68.988 eV
 589( 0) :     2.550363 a.u.    69.399 eV
 590( 0) :     2.563270 a.u.    69.750 eV
 591( 0) :     2.591143 a.u.    70.509 eV
 592( 0) :     2.766840 a.u.    75.290 eV
 593( 0) :     3.137112 a.u.    85.365 eV
 594( 0) :     3.187020 a.u.    86.723 eV
 595( 0) :     3.207040 a.u.    87.268 eV
 596( 0) :     3.210658 a.u.    87.366 eV
 597( 0) :     3.218253 a.u.    87.573 eV
 598( 0) :     3.222192 a.u.    87.680 eV
 599( 0) :     3.230879 a.u.    87.917 eV
 600( 0) :     3.241817 a.u.    88.214 eV
 601( 0) :     3.259539 a.u.    88.697 eV
 602( 0) :     3.296297 a.u.    89.697 eV
 603( 0) :     3.313020 a.u.    90.152 eV
 604( 0) :     3.439059 a.u.    93.582 eV
 605( 0) :    23.680984 a.u.   644.392 eV
 606( 0) :    24.056833 a.u.   654.620 eV
 607( 0) :    24.097829 a.u.   655.735 eV
 608( 0) :    24.145519 a.u.   657.033 eV
 609( 0) :    24.289465 a.u.   660.950 eV
 610( 0) :    24.466008 a.u.   665.754 eV
 611( 0) :    24.630358 a.u.   670.226 eV
 612( 0) :    24.765671 a.u.   673.908 eV
 613( 0) :    24.994369 a.u.   680.131 eV
 614( 0) :    25.000899 a.u.   680.309 eV
 615( 0) :    25.050462 a.u.   681.658 eV
 616( 0) :    25.139659 a.u.   684.085 eV
 617( 0) :    25.149756 a.u.   684.360 eV
 618( 0) :    25.184878 a.u.   685.315 eV
 619( 0) :    25.373444 a.u.   690.447 eV
 620( 0) :    25.477090 a.u.   693.267 eV
 621( 0) :    25.487868 a.u.   693.560 eV
 622( 0) :    25.550883 a.u.   695.275 eV
 623( 0) :    25.654444 a.u.   698.093 eV
 624( 0) :    25.681417 a.u.   698.827 eV
 625( 0) :    25.702464 a.u.   699.400 eV
 626( 0) :    25.720297 a.u.   699.885 eV
 627( 0) :    25.975262 a.u.   706.823 eV
 628( 0) :    25.986922 a.u.   707.140 eV
 629( 0) :    26.031899 a.u.   708.364 eV
 630( 0) :    26.063916 a.u.   709.235 eV
 631( 0) :    26.205707 a.u.   713.094 eV
 632( 0) :    26.255913 a.u.   714.460 eV
 633( 0) :    26.293564 a.u.   715.484 eV
 634( 0) :    26.533655 a.u.   722.017 eV
 635( 0) :    26.603817 a.u.   723.927 eV
 636( 0) :    26.627479 a.u.   724.571 eV
 637( 0) :    26.753439 a.u.   727.998 eV
 638( 0) :    26.791922 a.u.   729.045 eV
 639( 0) :    26.808544 a.u.   729.498 eV
 640( 0) :    26.930292 a.u.   732.810 eV
 641( 0) :    26.935050 a.u.   732.940 eV
 642( 0) :    27.034346 a.u.   735.642 eV
 643( 0) :    27.081589 a.u.   736.928 eV
 644( 0) :    27.214085 a.u.   740.533 eV
 645( 0) :    27.582979 a.u.   750.571 eV
 646( 0) :    27.595631 a.u.   750.915 eV
 647( 0) :    27.785729 a.u.   756.088 eV
 648( 0) :    27.819293 a.u.   757.001 eV
 649( 0) :    27.954534 a.u.   760.682 eV
 650( 0) :    28.085663 a.u.   764.250 eV
 651( 0) :    28.278247 a.u.   769.490 eV
 652( 0) :    28.358490 a.u.   771.674 eV
 653( 0) :    43.849139 a.u.  1193.196 eV
 654( 0) :    43.984838 a.u.  1196.888 eV
 655( 0) :    44.032969 a.u.  1198.198 eV
 656( 0) :    44.033721 a.u.  1198.218 eV
 657( 0) :    44.061308 a.u.  1198.969 eV
 658( 0) :    44.136593 a.u.  1201.018 eV
 659( 0) :    44.146383 a.u.  1201.284 eV
 660( 0) :    44.153205 a.u.  1201.470 eV
 661( 0) :    44.155818 a.u.  1201.541 eV
 662( 0) :    44.165189 a.u.  1201.796 eV
 663( 0) :    44.198616 a.u.  1202.705 eV
 664( 0) :    44.199264 a.u.  1202.723 eV
 665( 0) :    44.216538 a.u.  1203.193 eV
 666( 0) :    44.243790 a.u.  1203.935 eV
 667( 0) :    44.251412 a.u.  1204.142 eV
 668( 0) :    44.263379 a.u.  1204.468 eV
 669( 0) :   205.066807 a.u.  5580.152 eV
 670( 0) :   205.118072 a.u.  5581.547 eV
 671( 0) :   205.142215 a.u.  5582.203 eV
 672( 0) :   205.142498 a.u.  5582.211 eV
 673( 0) :   205.153003 a.u.  5582.497 eV
 674( 0) :   205.186787 a.u.  5583.416 eV
 675( 0) :   205.190147 a.u.  5583.508 eV
 676( 0) :   205.194628 a.u.  5583.630 eV
 677( 0) :   205.195032 a.u.  5583.641 eV
 678( 0) :   205.202250 a.u.  5583.837 eV
 679( 0) :   205.211089 a.u.  5584.078 eV
 680( 0) :   205.213011 a.u.  5584.130 eV
 681( 0) :   205.220203 a.u.  5584.326 eV
 682( 0) :   205.230663 a.u.  5584.610 eV
 683( 0) :   205.240696 a.u.  5584.883 eV
 684( 0) :   205.244624 a.u.  5584.990 eV
-------
TIMINGS
-------

Total SCF time: 0 days 0 hours 13 min 1 sec 

Total time                  ....     781.473 sec
Sum of individual times     ....     773.407 sec  ( 99.0%)

Fock matrix formation       ....     752.791 sec  ( 96.3%)
  Split-RI-J                ....     276.072 sec  ( 36.7% of F)
  XC integration            ....     474.901 sec  ( 63.1% of F)
    Basis function eval.    ....      67.082 sec  ( 14.1% of XC)
    Density eval.           ....     238.697 sec  ( 50.3% of XC)
    XC-Functional eval.     ....       7.590 sec  (  1.6% of XC)
    XC-Potential eval.      ....     142.661 sec  ( 30.0% of XC)
Diagonalization             ....       8.437 sec  (  1.1%)
Density matrix formation    ....       1.321 sec  (  0.2%)
Population analysis         ....       2.110 sec  (  0.3%)
Initial guess               ....       0.580 sec  (  0.1%)
Orbital Transformation      ....       1.997 sec  (  0.3%)
Orbital Orthonormalization  ....       0.505 sec  (  0.1%)
DIIS solution               ....       0.000 sec  (  0.0%)
Grid generation             ....       6.168 sec  (  0.8%)

Maximum memory used throughout the entire SCF-calculation: 725.6 MB

-------------------------   --------------------
FINAL SINGLE POINT ENERGY     -3324.038559256569
-------------------------   --------------------

                                *** OPTIMIZATION RUN DONE ***

                            ***************************************
                            *     ORCA property calculations      *
                            ***************************************

                                    ---------------------
                                    Active property flags
                                    ---------------------
   (+) Dipole Moment


------------------------------------------------------------------------------
                       ORCA ELECTRIC PROPERTIES CALCULATION
------------------------------------------------------------------------------

Dipole Moment Calculation                       ... on
Quadrupole Moment Calculation                   ... off
Polarizability Calculation                      ... off
GBWName                                         ... pbe.gbw
Electron density                                ... pbe.scfp
The origin for moment calculation is the CENTER OF MASS  = (12.827976, 15.852381 14.253463)

-------------
DIPOLE MOMENT
-------------
                                X             Y             Z
Electronic contribution:     -5.41950      87.35864     -50.11069
Nuclear contribution   :      5.38419     -87.96850      50.73733
                        -----------------------------------------
Total Dipole Moment    :     -0.03531      -0.60986       0.62664
                        -----------------------------------------
Magnitude (a.u.)       :      0.87514
Magnitude (Debye)      :      2.22442



--------------------
Rotational spectrum 
--------------------
 
Rotational constants in cm-1:     0.000876     0.000748     0.000731 
Rotational constants in MHz :    26.268852    22.437778    21.909043 

 Dipole components along the rotational axes: 
x,y,z [a.u.] :     0.828616    -0.007951     0.281415 
x,y,z [Debye]:     2.106174    -0.020209     0.715301 

 

Timings for individual modules:

Sum of individual times         ...    28925.221 sec (= 482.087 min)
GTO integral calculation        ...      531.369 sec (=   8.856 min)   1.8 %
SCF iterations                  ...    22189.998 sec (= 369.833 min)  76.7 %
SCF Gradient evaluation         ...     6185.636 sec (= 103.094 min)  21.4 %
Geometry relaxation             ...       18.218 sec (=   0.304 min)   0.1 %
                             ****ORCA TERMINATED NORMALLY****
TOTAL RUN TIME: 0 days 8 hours 2 minutes 10 seconds 889 msec
