
                                 *****************
                                 * O   R   C   A *
                                 *****************

                                            #,                                       
                                            ###                                      
                                            ####                                     
                                            #####                                    
                                            ######                                   
                                           ########,                                 
                                     ,,################,,,,,                         
                               ,,#################################,,                 
                          ,,##########################################,,             
                       ,#########################################, ''#####,          
                    ,#############################################,,   '####,        
                  ,##################################################,,,,####,       
                ,###########''''           ''''###############################       
              ,#####''   ,,,,##########,,,,          '''####'''          '####       
            ,##' ,,,,###########################,,,                        '##       
           ' ,,###''''                  '''############,,,                           
         ,,##''                                '''############,,,,        ,,,,,,###''
      ,#''                                            '''#######################'''  
     '                                                          ''''####''''         
             ,#######,   #######,   ,#######,      ##                                
            ,#'     '#,  ##    ##  ,#'     '#,    #''#        ######   ,####,        
            ##       ##  ##   ,#'  ##            #'  '#       #        #'  '#        
            ##       ##  #######   ##           ,######,      #####,   #    #        
            '#,     ,#'  ##    ##  '#,     ,#' ,#      #,         ##   #,  ,#        
             '#######'   ##     ##  '#######'  #'      '#     #####' # '####'        



                  #######################################################
                  #                        -***-                        #
                  #          Department of theory and spectroscopy      #
                  #    Directorship and core code : Frank Neese         #
                  #        Max Planck Institute fuer Kohlenforschung    #
                  #                Kaiser Wilhelm Platz 1               #
                  #                 D-45470 Muelheim/Ruhr               #
                  #                      Germany                        #
                  #                                                     #
                  #                  All rights reserved                #
                  #                        -***-                        #
                  #######################################################


                         Program Version 5.0.3 -  RELEASE  -


 With contributions from (in alphabetic order):
   Daniel Aravena         : Magnetic Suceptibility
   Michael Atanasov       : Ab Initio Ligand Field Theory (pilot matlab implementation)
   Alexander A. Auer      : GIAO ZORA, VPT2 properties, NMR spectrum
   Ute Becker             : Parallelization
   Giovanni Bistoni       : ED, misc. LED, open-shell LED, HFLD
   Martin Brehm           : Molecular dynamics
   Dmytro Bykov           : SCF Hessian
   Vijay G. Chilkuri      : MRCI spin determinant printing, contributions to CSF-ICE
   Dipayan Datta          : RHF DLPNO-CCSD density
   Achintya Kumar Dutta   : EOM-CC, STEOM-CC
   Dmitry Ganyushin       : Spin-Orbit,Spin-Spin,Magnetic field MRCI
   Miquel Garcia          : C-PCM and meta-GGA Hessian, CC/C-PCM, Gaussian charge scheme
   Yang Guo               : DLPNO-NEVPT2, F12-NEVPT2, CIM, IAO-localization
   Andreas Hansen         : Spin unrestricted coupled pair/coupled cluster methods
   Benjamin Helmich-Paris : MC-RPA, TRAH-SCF, COSX integrals
   Lee Huntington         : MR-EOM, pCC
   Robert Izsak           : Overlap fitted RIJCOSX, COSX-SCS-MP3, EOM
   Marcus Kettner         : VPT2
   Christian Kollmar      : KDIIS, OOCD, Brueckner-CCSD(T), CCSD density, CASPT2, CASPT2-K
   Simone Kossmann        : Meta GGA functionals, TD-DFT gradient, OOMP2, MP2 Hessian
   Martin Krupicka        : Initial AUTO-CI
   Lucas Lang             : DCDCAS
   Marvin Lechner         : AUTO-CI (C++ implementation), FIC-MRCC
   Dagmar Lenk            : GEPOL surface, SMD
   Dimitrios Liakos       : Extrapolation schemes; Compound Job, initial MDCI parallelization
   Dimitrios Manganas     : Further ROCIS development; embedding schemes
   Dimitrios Pantazis     : SARC Basis sets
   Anastasios Papadopoulos: AUTO-CI, single reference methods and gradients
   Taras Petrenko         : DFT Hessian,TD-DFT gradient, ASA, ECA, R-Raman, ABS, FL, XAS/XES, NRVS
   Peter Pinski           : DLPNO-MP2, DLPNO-MP2 Gradient
   Christoph Reimann      : Effective Core Potentials
   Marius Retegan         : Local ZFS, SOC
   Christoph Riplinger    : Optimizer, TS searches, QM/MM, DLPNO-CCSD(T), (RO)-DLPNO pert. Triples
   Tobias Risthaus        : Range-separated hybrids, TD-DFT gradient, RPA, STAB
   Michael Roemelt        : Original ROCIS implementation
   Masaaki Saitow         : Open-shell DLPNO-CCSD energy and density
   Barbara Sandhoefer     : DKH picture change effects
   Avijit Sen             : IP-ROCIS
   Kantharuban Sivalingam : CASSCF convergence, NEVPT2, FIC-MRCI
   Bernardo de Souza      : ESD, SOC TD-DFT
   Georgi Stoychev        : AutoAux, RI-MP2 NMR, DLPNO-MP2 response
   Willem Van den Heuvel  : Paramagnetic NMR
   Boris Wezisla          : Elementary symmetry handling
   Frank Wennmohs         : Technical directorship


 We gratefully acknowledge several colleagues who have allowed us to
 interface, adapt or use parts of their codes:
   Stefan Grimme, W. Hujo, H. Kruse, P. Pracht,  : VdW corrections, initial TS optimization,
                  C. Bannwarth, S. Ehlert          DFT functionals, gCP, sTDA/sTD-DF
   Ed Valeev, F. Pavosevic, A. Kumar             : LibInt (2-el integral package), F12 methods
   Garnet Chan, S. Sharma, J. Yang, R. Olivares  : DMRG
   Ulf Ekstrom                                   : XCFun DFT Library
   Mihaly Kallay                                 : mrcc  (arbitrary order and MRCC methods)
   Jiri Pittner, Ondrej Demel                    : Mk-CCSD
   Frank Weinhold                                : gennbo (NPA and NBO analysis)
   Christopher J. Cramer and Donald G. Truhlar   : smd solvation model
   Lars Goerigk                                  : TD-DFT with DH, B97 family of functionals
   V. Asgeirsson, H. Jonsson                     : NEB implementation
   FAccTs GmbH                                   : IRC, NEB, NEB-TS, DLPNO-Multilevel, CI-OPT
                                                   MM, QMMM, 2- and 3-layer-ONIOM, Crystal-QMMM,
                                                   LR-CPCM, SF, NACMEs, symmetry and pop. for TD-DFT,
                                                   nearIR, NL-DFT gradient (VV10), updates on ESD,
                                                   ML-optimized integration grids
   S Lehtola, MJT Oliveira, MAL Marques          : LibXC Library
   Liviu Ungur et al                             : ANISO software


 Your calculation uses the libint2 library for the computation of 2-el integrals
 For citations please refer to: http://libint.valeyev.net

 Your ORCA version has been built with support for libXC version: 5.1.0
 For citations please refer to: https://tddft.org/programs/libxc/

 This ORCA versions uses:
   CBLAS   interface :  Fast vector & matrix operations
   LAPACKE interface :  Fast linear algebra routines
   SCALAPACK package :  Parallel linear algebra routines
   Shared memory     :  Shared parallel matrices
   BLAS/LAPACK       :  OpenBLAS 0.3.15  USE64BITINT DYNAMIC_ARCH NO_AFFINITY Sandybridge SINGLE_THREADED
        Core in use  :  Sandybridge
   Copyright (c) 2011-2014, The OpenBLAS Project




***************************************
The coordinates will be read from file: pbe.xyz
***************************************


================================================================================

cite the ECPs for Au [Def2-ECP] as follows:
Ce-Yb(ecp-28): M. Dolg, H. Stoll, H.Preuss, J. Chem. Phys., 1989, 90, 1730-1734.
Y-Cd(ecp-28), Hf-Hg(ecp-46): D. Andrae,U. Haeussermann, M. Dolg, H. Stoll, H. Preuss, Theor. Chim. Acta, 1990, 77, 123-141.
In-Sb(ecp-28), Tl-Bi(ecp-46): B. Metz, H. Stoll, M. Dolg, J. Chem. Phys., 2000, 113, 2563-2569.
Te-Xe(ecp-28), Po-Rn(ecp-46): K. A. Peterson, D. Figgen, E. Goll, H. Stoll, M. Dolg, J. Chem. Phys., 2003, 119, 11113-11123.
Rb(ecp-28), Cs(ecp-46): T. Leininger, A. Nicklass, W. Kuechle, H. Stoll, M. Dolg, A. Bergner, Chem. Phys. Lett., 1996, 255, 274-280.
Sr(ecp-28), Ba(ecp-46): M. Kaupp, P. V. Schleyer, H. Stoll and H. Preuss, J. Chem. Phys., 1991, 94, 1360-1366.
La(ecp-46): M. Dolg, H. Stoll, A. Savin, H. Preuss, Theor. Chim. Acta, 1989, 75, 173-194.
Lu(ecp-28): X. Cao, M. Dolg, J. Chem. Phys., 2001, 115, 7348-7355.

ECP parameters for Au [Def2-ECP] have been obtained from:
TURBOMOLE (7.0.2)

----- Orbital basis set information -----
Your calculation utilizes the basis: def2-TZVP
   F. Weigend and R. Ahlrichs, Phys. Chem. Chem. Phys. 7, 3297 (2005).

----- AuxJ basis set information -----
Your calculation utilizes the auxiliary basis: def2/J
   F. Weigend, Phys. Chem. Chem. Phys. 8, 1057 (2006).

================================================================================
                                        WARNINGS
                       Please study these warnings very carefully!
================================================================================

Using LibXC functional ID 497 : Re-regularized SCAN exchange by Furness et al
[ 1]  J. W. Furness, A. D. Kaplan, J. Ning, J. P. Perdew, and J. Sun, J. Phys. Chem. Lett. 11, 8208 (2020)
[ 2]  J. W. Furness, A. D. Kaplan, J. Ning, J. P. Perdew, and J. Sun, J. Phys. Chem. Lett. 11, 9248 (2020)
Using LibXC functional ID 498 : Re-regularized SCAN correlation by Furness et al
[ 1]  J. W. Furness, A. D. Kaplan, J. Ning, J. P. Perdew, and J. Sun, J. Phys. Chem. Lett. 11, 8208 (2020)
[ 2]  J. W. Furness, A. D. Kaplan, J. Ning, J. P. Perdew, and J. Sun, J. Phys. Chem. Lett. 11, 9248 (2020)
Using LibXC functional ID 497 : Re-regularized SCAN exchange by Furness et al
[ 1]  J. W. Furness, A. D. Kaplan, J. Ning, J. P. Perdew, and J. Sun, J. Phys. Chem. Lett. 11, 8208 (2020)
[ 2]  J. W. Furness, A. D. Kaplan, J. Ning, J. P. Perdew, and J. Sun, J. Phys. Chem. Lett. 11, 9248 (2020)
Using LibXC functional ID 498 : Re-regularized SCAN correlation by Furness et al
[ 1]  J. W. Furness, A. D. Kaplan, J. Ning, J. P. Perdew, and J. Sun, J. Phys. Chem. Lett. 11, 8208 (2020)
[ 2]  J. W. Furness, A. D. Kaplan, J. Ning, J. P. Perdew, and J. Sun, J. Phys. Chem. Lett. 11, 9248 (2020)

WARNING: your system is open-shell and RHF/RKS was chosen
  ===> : WILL SWITCH to UHF/UKS


INFO   : the flag for use of the SHARK integral package has been found!



***************************************
The coordinates will be read from file: pbe.xyz
***************************************


================================================================================

cite the ECPs for Au [Def2-ECP] as follows:
Ce-Yb(ecp-28): M. Dolg, H. Stoll, H.Preuss, J. Chem. Phys., 1989, 90, 1730-1734.
Y-Cd(ecp-28), Hf-Hg(ecp-46): D. Andrae,U. Haeussermann, M. Dolg, H. Stoll, H. Preuss, Theor. Chim. Acta, 1990, 77, 123-141.
In-Sb(ecp-28), Tl-Bi(ecp-46): B. Metz, H. Stoll, M. Dolg, J. Chem. Phys., 2000, 113, 2563-2569.
Te-Xe(ecp-28), Po-Rn(ecp-46): K. A. Peterson, D. Figgen, E. Goll, H. Stoll, M. Dolg, J. Chem. Phys., 2003, 119, 11113-11123.
Rb(ecp-28), Cs(ecp-46): T. Leininger, A. Nicklass, W. Kuechle, H. Stoll, M. Dolg, A. Bergner, Chem. Phys. Lett., 1996, 255, 274-280.
Sr(ecp-28), Ba(ecp-46): M. Kaupp, P. V. Schleyer, H. Stoll and H. Preuss, J. Chem. Phys., 1991, 94, 1360-1366.
La(ecp-46): M. Dolg, H. Stoll, A. Savin, H. Preuss, Theor. Chim. Acta, 1989, 75, 173-194.
Lu(ecp-28): X. Cao, M. Dolg, J. Chem. Phys., 2001, 115, 7348-7355.

ECP parameters for Au [Def2-ECP] have been obtained from:
TURBOMOLE (7.0.2)

----- Orbital basis set information -----
Your calculation utilizes the basis: def2-TZVP
   F. Weigend and R. Ahlrichs, Phys. Chem. Chem. Phys. 7, 3297 (2005).

----- AuxJ basis set information -----
Your calculation utilizes the auxiliary basis: def2/J
   F. Weigend, Phys. Chem. Chem. Phys. 8, 1057 (2006).

================================================================================
                                        WARNINGS
                       Please study these warnings very carefully!
================================================================================

Using LibXC functional ID 497 : Re-regularized SCAN exchange by Furness et al
[ 1]  J. W. Furness, A. D. Kaplan, J. Ning, J. P. Perdew, and J. Sun, J. Phys. Chem. Lett. 11, 8208 (2020)
[ 2]  J. W. Furness, A. D. Kaplan, J. Ning, J. P. Perdew, and J. Sun, J. Phys. Chem. Lett. 11, 9248 (2020)
Using LibXC functional ID 498 : Re-regularized SCAN correlation by Furness et al
[ 1]  J. W. Furness, A. D. Kaplan, J. Ning, J. P. Perdew, and J. Sun, J. Phys. Chem. Lett. 11, 8208 (2020)
[ 2]  J. W. Furness, A. D. Kaplan, J. Ning, J. P. Perdew, and J. Sun, J. Phys. Chem. Lett. 11, 9248 (2020)
Using LibXC functional ID 497 : Re-regularized SCAN exchange by Furness et al
[ 1]  J. W. Furness, A. D. Kaplan, J. Ning, J. P. Perdew, and J. Sun, J. Phys. Chem. Lett. 11, 8208 (2020)
[ 2]  J. W. Furness, A. D. Kaplan, J. Ning, J. P. Perdew, and J. Sun, J. Phys. Chem. Lett. 11, 9248 (2020)
Using LibXC functional ID 498 : Re-regularized SCAN correlation by Furness et al
[ 1]  J. W. Furness, A. D. Kaplan, J. Ning, J. P. Perdew, and J. Sun, J. Phys. Chem. Lett. 11, 8208 (2020)
[ 2]  J. W. Furness, A. D. Kaplan, J. Ning, J. P. Perdew, and J. Sun, J. Phys. Chem. Lett. 11, 9248 (2020)

INFO   : the flag for use of the SHARK integral package has been found!

================================================================================
                                       INPUT FILE
================================================================================
NAME = scan.inp
|  1> !R2SCAN def2-TZVP VERYSLOWCONV
|  2> !KDIIS
|  3> %scf
|  4>   AutoTRAHIter 200
|  5>   maxiter 400
|  6> end
|  7> 
|  8> %pal nprocs 6 end 
|  9> 
| 10> *xyzfile 0 6 pbe.xyz
| 11> 
| 12> $new_job
| 13> 
| 14> !R2SCAN def2-TZVP VERYSLOWCONV
| 15> !KDIIS
| 16> %scf
| 17>   AutoTRAHIter 200
| 18>   maxiter 400
| 19> end
| 20> 
| 21> 
| 22> %pal nprocs 6 end 
| 23> 
| 24> *xyzfile 0 4 pbe.xyz
| 25> 
| 26> 
| 27> 
| 28> 
| 29> 
| 30>                          ****END OF INPUT****
================================================================================


                 $$$$$$$$$$$$$$$$$$$$$$$$$$$$$$$$$$$$$$$$$$$$$$ 
                 $ THERE ARE  2 JOBS TO BE PROCESSED THIS RUN $
                 $$$$$$$$$$$$$$$$$$$$$$$$$$$$$$$$$$$$$$$$$$$$$$ 




                 $$$$$$$$$$$$$$$$  JOB NUMBER  1 $$$$$$$$$$$$$$


                       ****************************
                       * Single Point Calculation *
                       ****************************

---------------------------------
CARTESIAN COORDINATES (ANGSTROEM)
---------------------------------
  Au     7.784069    7.302346    4.443493
  Au     6.182142    6.181766    6.647033
  Au     9.961891    7.808561    5.948277
  Au     7.248241   10.079390    4.740316
  Au     5.211124    6.578112    4.078771
  Au     5.065098    8.728768    5.853425
  Au     7.700976    9.497693   10.213228
  Au     9.597351    8.590711    8.511293
  Au     7.116480    7.077112    8.943767
  Au     5.753729    9.709748    8.271275
  Mn     7.574908    8.556626    6.823666

----------------------------
CARTESIAN COORDINATES (A.U.)
----------------------------
  NO LB      ZA    FRAG     MASS         X           Y           Z
   0 Au   19.0000*   0   196.966   14.709758   13.799434    8.396984
   1 Au   19.0000*   0   196.966   11.682555   11.681844   12.561071
   2 Au   19.0000*   0   196.966   18.825246   14.756041   11.240614
   3 Au   19.0000*   0   196.966   13.697191   19.047286    8.957900
   4 Au   19.0000*   0   196.966    9.847597   12.430830    7.707760
   5 Au   19.0000*   0   196.966    9.571648   16.494981   11.061371
   6 Au   19.0000*   0   196.966   14.552736   17.948038   19.300204
   7 Au   19.0000*   0   196.966   18.136364   16.234091   16.084012
   8 Au   19.0000*   0   196.966   13.448198   13.373803   16.901270
   9 Au   19.0000*   0   196.966   10.872972   18.348765   15.630445
  10 Mn   25.0000    0    54.940   14.314501   16.169680   12.894859
* core charge reduced due to ECP

--------------------------------
INTERNAL COORDINATES (ANGSTROEM)
--------------------------------
 Au     0   0   0     0.000000000000     0.00000000     0.00000000
 Au     1   0   0     2.945752381480     0.00000000     0.00000000
 Au     1   2   0     2.695095032105    95.34911911     0.00000000
 Au     1   2   3     2.843798408133   101.00731946   274.20369918
 Au     1   2   3     2.697699554546    58.69103695   184.38494281
 Au     5   1   2     2.792139212725    75.94609305    66.00282074
 Au     2   1   3     5.100978265418    96.53228998    39.46529374
 Au     3   1   2     2.704385212203   118.33026968   324.83631826
 Au     2   1   3     2.636213210045   109.25501613    22.66251147
 Au     6   5   1     2.698616718231   146.73192572   299.13266089
 Mn    10   6   5     2.596527444947    61.18592328    46.61914707

---------------------------
INTERNAL COORDINATES (A.U.)
---------------------------
 Au     0   0   0     0.000000000000     0.00000000     0.00000000
 Au     1   0   0     5.566665259344     0.00000000     0.00000000
 Au     1   2   0     5.092991515569    95.34911911     0.00000000
 Au     1   2   3     5.374000171452   101.00731946   274.20369918
 Au     1   2   3     5.097913349694    58.69103695   184.38494281
 Au     5   1   2     5.276378439832    75.94609305    66.00282074
 Au     2   1   3     9.639451936725    96.53228998    39.46529374
 Au     3   1   2     5.110547411690   118.33026968   324.83631826
 Au     2   1   3     4.981720997611   109.25501613    22.66251147
 Au     6   5   1     5.099646537877   146.73192572   299.13266089
 Mn    10   6   5     4.906725770161    61.18592328    46.61914707

---------------------
BASIS SET INFORMATION
---------------------
There are 2 groups of distinct atoms

 Group   1 Type Au  : 8s7p6d1f contracted to 6s4p3d1f pattern {311111/4111/411/1}
 Group   2 Type Mn  : 17s11p7d1f contracted to 6s4p4d1f pattern {842111/6311/4111/1}

Atom   0Au   basis set group =>   1
Atom   1Au   basis set group =>   1
Atom   2Au   basis set group =>   1
Atom   3Au   basis set group =>   1
Atom   4Au   basis set group =>   1
Atom   5Au   basis set group =>   1
Atom   6Au   basis set group =>   1
Atom   7Au   basis set group =>   1
Atom   8Au   basis set group =>   1
Atom   9Au   basis set group =>   1
Atom  10Mn   basis set group =>   2
---------------------------------
AUXILIARY/J BASIS SET INFORMATION
---------------------------------
There are 2 groups of distinct atoms

 Group   1 Type Au  : 11s5p5d3f3g contracted to 8s5p5d2f3g pattern {41111111/11111/11111/21/111}
 Group   2 Type Mn  : 19s5p5d3f3g contracted to 8s5p5d2f3g pattern {121111111/11111/11111/21/111}

Atom   0Au   basis set group =>   1
Atom   1Au   basis set group =>   1
Atom   2Au   basis set group =>   1
Atom   3Au   basis set group =>   1
Atom   4Au   basis set group =>   1
Atom   5Au   basis set group =>   1
Atom   6Au   basis set group =>   1
Atom   7Au   basis set group =>   1
Atom   8Au   basis set group =>   1
Atom   9Au   basis set group =>   1
Atom  10Mn   basis set group =>   2
-------------------------
ECP PARAMETER INFORMATION
-------------------------

 Group 1, Type Au ECP Def2-ECP (replacing 60 core electrons, lmax=3)

Atom   0Au   ECP group =>   1
Atom   1Au   ECP group =>   1
Atom   2Au   ECP group =>   1
Atom   3Au   ECP group =>   1
Atom   4Au   ECP group =>   1
Atom   5Au   ECP group =>   1
Atom   6Au   ECP group =>   1
Atom   7Au   ECP group =>   1
Atom   8Au   ECP group =>   1
Atom   9Au   ECP group =>   1



           ************************************************************
           *        Program running with 6 parallel MPI-processes     *
           *              working on a common directory               *
           ************************************************************
------------------------------------------------------------------------------
                           ORCA GTO INTEGRAL CALCULATION
                           -- RI-GTO INTEGRALS CHOSEN --
------------------------------------------------------------------------------
------------------------------------------------------------------------------
                   ___                                                        
                  /   \      - P O W E R E D   B Y -                         
                 /     \                                                     
                 |  |  |   _    _      __       _____    __    __             
                 |  |  |  | |  | |    /  \     |  _  \  |  |  /  |          
                  \  \/   | |  | |   /    \    | | | |  |  | /  /          
                 / \  \   | |__| |  /  /\  \   | |_| |  |  |/  /          
                |  |  |   |  __  | /  /__\  \  |    /   |      \           
                |  |  |   | |  | | |   __   |  |    \   |  |\   \          
                \     /   | |  | | |  |  |  |  | |\  \  |  | \   \       
                 \___/    |_|  |_| |__|  |__|  |_| \__\ |__|  \__/        
                                                                              
                      - O R C A' S   B I G   F R I E N D -                    
                                      &                                       
                       - I N T E G R A L  F E E D E R -                       
                                                                              
 v1 FN, 2020, v2 2021                                                         
------------------------------------------------------------------------------


Reading SHARK input file scan.SHARKINP.tmp ... ok
----------------------
SHARK INTEGRAL PACKAGE
----------------------

Number of atoms                             ...     11
Number of basis functions                   ...    445
Number of shells                            ...    155
Maximum angular momentum                    ...      3
Integral batch strategy                     ... SHARK/LIBINT Hybrid
RI-J (if used) integral strategy            ... SPLIT-RIJ (Revised 2003 algorithm where possible)
Printlevel                                  ...      1
Contraction scheme used                     ... SEGMENTED contraction
Coulomb Range Separation                    ... NOT USED
Exchange Range Separation                   ... NOT USED
Finite Nucleus Model                        ... NOT USED
Auxiliary Coulomb fitting basis             ... AVAILABLE
   # of basis functions in Aux-J            ...    979
   # of shells in Aux-J                     ...    253
   Maximum angular momentum in Aux-J        ...      4
Auxiliary J/K fitting basis                 ... NOT available
Auxiliary Correlation fitting basis         ... NOT available
Auxiliary 'external' fitting basis          ... NOT available
Integral threshold                          ...     1.000000e-10
Primitive cut-off                           ...     1.000000e-11
Primitive pair pre-selection threshold      ...     1.000000e-11

Calculating pre-screening integrals         ... done (  0.2 sec) Dimension = 155
Organizing shell pair data                  ... done (  0.2 sec)
Shell pair information
Total number of shell pairs                 ...     12090
Shell pairs after pre-screening             ...      9896
Total number of primitive shell pairs       ...     33105
Primitive shell pairs kept                  ...     19868
          la=0 lb=0:   1551 shell pairs
          la=1 lb=0:   2253 shell pairs
          la=1 lb=1:    860 shell pairs
          la=2 lb=0:   1945 shell pairs
          la=2 lb=1:   1383 shell pairs
          la=2 lb=2:    571 shell pairs
          la=3 lb=0:    532 shell pairs
          la=3 lb=1:    405 shell pairs
          la=3 lb=2:    339 shell pairs
          la=3 lb=3:     57 shell pairs

Calculating one electron integrals          ... done (  0.0 sec)
Calculating ECP integrals                   ... done (  9.1 sec)
Calculating RI/J V-Matrix + Cholesky decomp.... done (  0.1 sec)
Calculating Nuclear repulsion               ... done (  0.0 sec) ENN=   3160.793836952211 Eh

SHARK setup successfully completed in  10.0 seconds

Maximum memory used throughout the entire GTOINT-calculation: 27.1 MB


           ************************************************************
           *        Program running with 6 parallel MPI-processes     *
           *              working on a common directory               *
           ************************************************************
-------------------------------------------------------------------------------
                                 ORCA SCF
-------------------------------------------------------------------------------

------------
SCF SETTINGS
------------
Hamiltonian:
 Density Functional     Method          .... DFT(GTOs)
  Functional kind                       .... Exchange
  Functional name                       .... Re-regularized SCAN exchange by Furness et al
  Functional family                     .... MGGA
  Functional refs                              
    [ 0] J. W. Furness, A. D. Kaplan, J. Ning, J. P. Perdew, and J. Sun, J. Phys. Chem. Lett. 11, 8208 (2020)
    [ 1] J. W. Furness, A. D. Kaplan, J. Ning, J. P. Perdew, and J. Sun, J. Phys. Chem. Lett. 11, 9248 (2020)
  Functional external parameters         .... 8
 Parameter  0 :         c1 parameter
 Parameter  1 :         c2 parameter
 Parameter  2 :          d parameter
 Parameter  3 :         k1 parameter
 Parameter  4 :       taur parameter
 Parameter  5 :     alphar parameter
 Parameter  6 :        eta parameter
 Parameter  7 :        dp2 parameter
  Functional kind                       .... Correlation
  Functional name                       .... Re-regularized SCAN correlation by Furness et al
  Functional family                     .... MGGA
  Functional refs                              
    [ 0] J. W. Furness, A. D. Kaplan, J. Ning, J. P. Perdew, and J. Sun, J. Phys. Chem. Lett. 11, 8208 (2020)
    [ 1] J. W. Furness, A. D. Kaplan, J. Ning, J. P. Perdew, and J. Sun, J. Phys. Chem. Lett. 11, 9248 (2020)
  Functional external parameters         .... 0
 Gradients option       PostSCFGGA      .... off
   Density functional embedding theory  .... OFF
   NL short-range parameter             .... 12.300000
 RI-approximation to the Coulomb term is turned on
   Number of AuxJ basis functions       .... 979


General Settings:
 Integral files         IntName         .... scan
 Hartree-Fock type      HFTyp           .... UHF
 Total Charge           Charge          ....    0
 Multiplicity           Mult            ....    6
 Number of Electrons    NEL             ....  215
 Basis Dimension        Dim             ....  445
 Nuclear Repulsion      ENuc            ....   3160.7938369522 Eh

Convergence Acceleration:
 DIIS                   CNVDIIS         .... off
 Trust-Rad. Augm. Hess. CNVTRAH         .... auto
   Auto Start mean grad. ratio tolernc. ....  1.125000
   Auto Start start iteration           ....   200
   Auto Start num. interpolation iter.  ....    10
   Max. Number of Micro iterations      ....    16
   Max. Number of Macro iterations      .... Maxiter - #DIIS iter
   Number of Davidson start vectors     ....     2
   Converg. threshold I  (grad. norm)   ....   5.000e-05
   Converg. threshold II (energy diff.) ....   1.000e-06
   Grad. Scal. Fac. for Micro threshold ....   0.100
   Minimum threshold for Micro iter.    ....   0.010
   NR start threshold (gradient norm)   ....   0.001
   Initial trust radius                 ....   0.400
   Minimum AH scaling param. (alpha)    ....   1.000
   Maximum AH scaling param. (alpha)    .... 1000.000
   Orbital update algorithm             .... Taylor
   White noise on init. David. guess    .... on
   Maximum white noise                  ....   0.010
   Quad. conv. algorithm                .... NR
 SOSCF                  CNVSOSCF        .... off
 Level Shifting         CNVShift        .... off
 Zerner damping         CNVZerner       .... off
 Static damping         CNVDamp         .... off
 Fernandez-Rico         CNVRico         .... off

SCF Procedure:
 Maximum # iterations   MaxIter         ....   400
 SCF integral mode      SCFMode         .... Direct
   Integral package                     .... SHARK and LIBINT hybrid scheme
 Reset frequency        DirectResetFreq ....    20
 Integral Threshold     Thresh          ....  1.000e-10 Eh
 Primitive CutOff       TCut            ....  1.000e-11 Eh

Convergence Tolerance:
 Convergence Check Mode ConvCheckMode   .... All-Criteria
 Convergence forced     ConvForced      .... 0
 Energy Change          TolE            ....  1.000e-06 Eh
 Max Density Change     TolMaxP         ....  1.000e-05
 RMS Density Change     TolRMSP         ....  1.000e-06


Diagonalization of the overlap matrix:
Smallest eigenvalue                        ... 4.567e-04
Time for diagonalization                   ...    0.050 sec
Threshold for overlap eigenvalues          ... 1.000e-08
Number of eigenvalues below threshold      ... 0
Time for construction of square roots      ...    0.050 sec
Total time needed                          ...    0.101 sec

Time for model grid setup =    0.623 sec

------------------------------
INITIAL GUESS: MODEL POTENTIAL
------------------------------
Loading Hartree-Fock densities                     ... done
  calling /home/ehlert/src/miniconda3/envs/orca500/Programs/ORCA501/orca scan_atom79.inp > scan_atom79.out in order to generate an atomic fitting density for atom 0 (Au with ECP) on-the-fly... 
    atom 0 (Au), assumed electronic state with S=2: 1s2 2s2 2p6 3s2 3p6 4s2 3d10 4p6 5s2 4d10 5p6 6s1 4f14 5d10           ... done
Calculating cut-offs                               ... done
Initializing the effective Hamiltonian             ... done
Setting up the integral package (SHARK)            ... done
Starting the Coulomb interaction                   ... done (   0.5 sec)
Reading the grid                                   ... done
Mapping shells                                     ... done
Starting the XC term evaluation                    ... done (   0.5 sec)
  promolecular density results
     # of electrons  =    815.011785220
     EX              =  -3708.785121232
     EC              =    -49.490746645
     EX+EC           =  -3758.275867877
Transforming the Hamiltonian                       ... done (   0.0 sec)
Diagonalizing the Hamiltonian                      ... done (   0.1 sec)
Back transforming the eigenvectors                 ... done (   0.0 sec)
Now organizing SCF variables                       ... done
                      ------------------
                      INITIAL GUESS DONE (   2.8 sec)
                      ------------------
-------------------
DFT GRID GENERATION
-------------------

General Integration Accuracy     IntAcc      ... 4.388
Radial Grid Type                 RadialGrid  ... OptM3 with GC (2021)
Angular Grid (max. ang.)         AngularGrid ... 4 (Lebedev-302)
Angular grid pruning method      GridPruning ... 4 (adaptive)
Weight generation scheme         WeightScheme... Becke
Basis function cutoff            BFCut       ... 1.0000e-10
Integration weight cutoff        WCut        ... 1.0000e-14
Angular grids for H and He will be reduced by one unit
Partially contracted basis set               ... off
Rotationally invariant grid construction     ... off

Total number of grid points                  ...   123498
Total number of batches                      ...     1935
Average number of points per batch           ...       63
Average number of grid points per atom       ...    11227
Time for grid setup =    1.984 sec

--------------
SCF ITERATIONS
--------------
ITER       Energy         Delta-E        Max-DP      RMS-DP      [F,P]   Gradient Norm
               ***  Starting incremental Fock matrix formation  ***
                             ****Resetting KDIIS****
                             ****Turning on KDIIS(Cayley)****
  0  -2507.7603216587   0.000000000000 0.15676539  0.00127981  0.3131073   0.217310913
  1  -2508.6437072559  -0.883385597212 0.25094068  0.00133605  0.2688404   0.167147675
  2  -2509.0098596755  -0.366152419555 0.11123322  0.00121276  0.2127020   0.127013317
  3  -2509.2216570821  -0.211797406616 0.15020100  0.00165152  0.1249028   0.073913880
  4  -2509.3131560714  -0.091498989364 0.06306285  0.00050908  0.0239213   0.016457827
  5  -2509.3362453429  -0.023089271494 0.04581557  0.00041401  0.0171934   0.006885253
  6  -2509.3468773644  -0.010632021439 0.01655164  0.00021865  0.0175695   0.004832994
  7  -2509.3537072507  -0.006829886332 0.01805952  0.00021719  0.0159120   0.003552056
  8  -2509.3594703293  -0.005763078586 0.00734515  0.00007684  0.0158305   0.003612132
  9  -2509.3610431343  -0.001572804990 0.00469243  0.00004952  0.0186544   0.002020000
 10  -2509.3623667074  -0.001323573117 0.00152983  0.00001412  0.0189287   0.002256916
 11  -2509.3626879766  -0.000321269225 0.00537234  0.00006878  0.0189510   0.002319036
 12  -2509.3647549843  -0.002067007635 0.00286073  0.00002594  0.0197578   0.002500453
 13  -2509.3652969426  -0.000541958339 0.00446521  0.00004292  0.0190951   0.002536674
 14  -2509.3663086658  -0.001011723168 0.02225032  0.00008702  0.0186149   0.002740728
 15  -2509.3676321425  -0.001323476690 0.00501201  0.00007040  0.0204552   0.002965073
 16  -2509.3699337498  -0.002301607317 0.00626808  0.00007979  0.0204014   0.002585083
 17  -2509.3720411398  -0.002107390063 0.00359930  0.00003857  0.0202604   0.002947007
 18  -2509.3730534173  -0.001012277442 0.00750559  0.00005380  0.0209240   0.002484876
 19  -2509.3719779272   0.001075490097 0.02307455  0.00009869  0.0229843   0.003342579
               *** Restarting incremental Fock matrix formation ***
                             ****Resetting KDIIS****
 20  -2509.3708311051   0.001146822065 0.00807443  0.00003347  0.0191837   0.004328213
 21  -2509.3719321347  -0.001101029638 0.00548181  0.00004740  0.0197000   0.003366919
 22  -2509.3737238268  -0.001791692031 0.00755578  0.00008366  0.0196921   0.002912838
 23  -2509.3768369707  -0.003113143944 0.01790678  0.00020564  0.0200198   0.002412820
 24  -2509.3694263521   0.007410618639 0.05624834  0.00077879  0.0201953   0.002773222
 25  -2509.3449968746   0.024429477527 0.01518498  0.00014817  0.0191157   0.006683904
 26  -2509.3469209234  -0.001924048858 0.02891700  0.00025868  0.0085547   0.003211584
 27  -2509.3432343898   0.003686533658 0.01285878  0.00016543  0.0137732   0.005712815
 28  -2509.3453842768  -0.002149887066 0.03372547  0.00013356  0.0103402   0.004268984
 29  -2509.3466975211  -0.001313244276 0.01629558  0.00008152  0.0065837   0.002425965
 30  -2509.3476401291  -0.000942607977 0.00767261  0.00010255  0.0056680   0.001110463
 31  -2509.3486689785  -0.001028849452 0.00287123  0.00005196  0.0051348   0.001052725
 32  -2509.3491440144  -0.000475035887 0.00258011  0.00002274  0.0048708   0.001326022
 33  -2509.3493025311  -0.000158516654 0.00118313  0.00000929  0.0047099   0.000902336
 34  -2509.3491895021   0.000113028964 0.00116751  0.00001437  0.0046747   0.000943565
 35  -2509.3492335763  -0.000044074150 0.00697094  0.00004451  0.0046585   0.001020459
 36  -2509.3495689203  -0.000335344085 0.00396429  0.00006008  0.0052300   0.001194936
 37  -2509.3502829024  -0.000713982025 0.00098170  0.00001771  0.0056484   0.001391896
 38  -2509.3504921398  -0.000209237414 0.00180209  0.00002253  0.0058506   0.001058853
 39  -2509.3501467682   0.000345371530 0.00606079  0.00010611  0.0055864   0.001211025
               *** Restarting incremental Fock matrix formation ***
                             ****Resetting KDIIS****
 40  -2509.3486632309   0.001483537358 0.00217694  0.00001446  0.0043078   0.001657616
 41  -2509.3488595100  -0.000196279096 0.00127696  0.00001774  0.0043284   0.001208322
 42  -2509.3490905063  -0.000230996339 0.00166968  0.00003133  0.0045652   0.001036887
 43  -2509.3495087308  -0.000418224453 0.00750502  0.00012556  0.0049660   0.000896566
 44  -2509.3479772498   0.001531480943 0.00536698  0.00008084  0.0045320   0.001204258
 45  -2509.3473427983   0.000634451505 0.00261848  0.00004019  0.0053136   0.000855579
 46  -2509.3474403289  -0.000097530555 0.00551381  0.00008695  0.0046602   0.000773320
 47  -2509.3480137766  -0.000573447738 0.00656456  0.00009060  0.0040545   0.001571578
 48  -2509.3478147180   0.000199058637 0.00907420  0.00013821  0.0047169   0.000841631
 49  -2509.3487426067  -0.000927888756 0.00453156  0.00004652  0.0031355   0.000806342
 50  -2509.3490658416  -0.000323234841 0.00330756  0.00004267  0.0027407   0.000663744
 51  -2509.3492810119  -0.000215170297 0.00148364  0.00002174  0.0028963   0.000620891
 52  -2509.3494223110  -0.000141299167 0.00895905  0.00011679  0.0028090   0.000505226
 53  -2509.3502133585  -0.000791047417 0.00152572  0.00002225  0.0035012   0.000561714
 54  -2509.3500755817   0.000137776728 0.00480978  0.00006367  0.0035605   0.000604266
 55  -2509.3496508354   0.000424746338 0.00145695  0.00001529  0.0032896   0.000542711
 56  -2509.3495605317   0.000090303730 0.00036163  0.00000624  0.0031901   0.000490914
 57  -2509.3495777421  -0.000017210422 0.00064472  0.00001025  0.0031487   0.000493630
 58  -2509.3496379544  -0.000060212294 0.00104284  0.00001417  0.0030788   0.000498268
 59  -2509.3495626942   0.000075260218 0.00310463  0.00004134  0.0029197   0.000482686
               *** Restarting incremental Fock matrix formation ***
                             ****Resetting KDIIS****
 60  -2509.3498493935  -0.000286699339 0.00036556  0.00000516  0.0029706   0.000497756
 61  -2509.3498864583  -0.000037064763 0.00075056  0.00001040  0.0029862   0.000487865
 62  -2509.3499619952  -0.000075536882 0.00207839  0.00003323  0.0030004   0.000484377
 63  -2509.3497244295   0.000237565699 0.00595448  0.00009321  0.0026430   0.000544394
 64  -2509.3491200296   0.000604399821 0.00178207  0.00002120  0.0029331   0.000460690
 65  -2509.3492260262  -0.000105996554 0.00263566  0.00002895  0.0030076   0.000450843
 66  -2509.3493783118  -0.000152285650 0.00954787  0.00009603  0.0030994   0.000434250
 67  -2509.3499184703  -0.000540158499 0.01642081  0.00015266  0.0032514   0.000528516
 68  -2509.3507849631  -0.000866492775 0.00193432  0.00002968  0.0028585   0.000522763
 69  -2509.3506745926   0.000110370499 0.00473598  0.00003907  0.0033010   0.000417941
 70  -2509.3504641015   0.000210491081 0.00052488  0.00000496  0.0034913   0.000453178
 71  -2509.3504478513   0.000016250228 0.00665215  0.00005715  0.0034508   0.000431150
 72  -2509.3507669269  -0.000319075568 0.01192957  0.00010149  0.0033887   0.000423864
 73  -2509.3502096706   0.000557256296 0.00448946  0.00006126  0.0032333   0.000474883
 74  -2509.3499311020   0.000278568568 0.00289889  0.00002787  0.0029892   0.000504068
 75  -2509.3497864656   0.000144636401 0.00579483  0.00005914  0.0030604   0.000506327
 76  -2509.3494783644   0.000308101194 0.01028725  0.00010225  0.0030099   0.000444781
 77  -2509.3500168098  -0.000538445371 0.00131734  0.00001148  0.0036567   0.000520548
 78  -2509.3500884620  -0.000071652175 0.00073230  0.00000740  0.0033025   0.000411976
 79  -2509.3501098110  -0.000021349045 0.00153737  0.00002205  0.0032986   0.000415711
               *** Restarting incremental Fock matrix formation ***
                             ****Resetting KDIIS****
 80  -2509.3502083264  -0.000098515373 0.00058617  0.00000499  0.0033348   0.000426428
 81  -2509.3502365251  -0.000028198696 0.00127571  0.00001081  0.0032856   0.000416176
 82  -2509.3502949404  -0.000058415349 0.00159984  0.00001357  0.0033029   0.000412668
 83  -2509.3503674227  -0.000072482289 0.02046171  0.00018334  0.0033473   0.000413308
 84  -2509.3493919057   0.000975516978 0.00580885  0.00006041  0.0029671   0.000467274
 85  -2509.3490835817   0.000308324026 0.00277437  0.00003239  0.0028900   0.000428844
 86  -2509.3492586900  -0.000175108322 0.00114601  0.00001771  0.0030351   0.000403804
 87  -2509.3493373328  -0.000078642734 0.00197374  0.00001991  0.0030529   0.000451264
 88  -2509.3492726119   0.000064720911 0.01028042  0.00010546  0.0028742   0.000445194
 89  -2509.3498213995  -0.000548787687 0.00323226  0.00003203  0.0030262   0.000409353
 90  -2509.3496504601   0.000170939403 0.00068294  0.00001082  0.0031180   0.000424361
 91  -2509.3495996571   0.000050803047 0.00372302  0.00004243  0.0032448   0.000412391
 92  -2509.3498366790  -0.000237021931 0.00148804  0.00002103  0.0031277   0.000400667
 93  -2509.3497346392   0.000102039776 0.00144367  0.00001951  0.0031321   0.000417293
 94  -2509.3496351167   0.000099522518 0.00543735  0.00005356  0.0032077   0.000399156
 95  -2509.3499191331  -0.000284016378 0.00157940  0.00001428  0.0030473   0.000434916
 96  -2509.3499840655  -0.000064932421 0.00039956  0.00000358  0.0032163   0.000401913
 97  -2509.3499680746   0.000015990880 0.00016603  0.00000261  0.0031591   0.000402722
 98  -2509.3499721789  -0.000004104272 0.00017021  0.00000261  0.0032153   0.000401645
 99  -2509.3499707201   0.000001458794 0.00482420  0.00004464  0.0032163   0.000403568
               *** Restarting incremental Fock matrix formation ***
                             ****Resetting KDIIS****
100  -2509.3502007260  -0.000230005917 0.00056223  0.00000502  0.0033434   0.000427526
101  -2509.3502286408  -0.000027914808 0.00121773  0.00001078  0.0032707   0.000408672
102  -2509.3502850912  -0.000056450388 0.00202858  0.00001773  0.0032959   0.000404570
103  -2509.3503776838  -0.000092592553 0.02985448  0.00031549  0.0033287   0.000404970
Warning: badly conditioned DIIS matrix, 1 vectors out of 5 destroyed
104  -2509.3486952297   0.001682454075 0.02048738  0.00023039  0.0030997   0.000962960
105  -2509.3499250865  -0.001229856800 0.02827053  0.00033033  0.0029464   0.000482192
106  -2509.3481798376   0.001745248936 0.04425879  0.00048028  0.0035421   0.001013884
107  -2509.3505903310  -0.002410493399 0.01881500  0.00015161  0.0042093   0.001636204
108  -2509.3514874365  -0.000897105503 0.01401740  0.00010644  0.0032730   0.001194305
109  -2509.3520684097  -0.000580973252 0.05129835  0.00042796  0.0036700   0.001248186
110  -2509.3497855602   0.002282849493 0.03238275  0.00028822  0.0032017   0.000686443
111  -2509.3511827270  -0.001397166735 0.00565731  0.00005481  0.0043060   0.001364338
112  -2509.3510664006   0.000116326324 0.00955296  0.00007948  0.0035598   0.000448128
113  -2509.3506371415   0.000429259150 0.01540435  0.00013878  0.0034537   0.000517365
114  -2509.3499071779   0.000729963625 0.00571642  0.00006519  0.0032780   0.000565229
115  -2509.3495661195   0.000341058339 0.01477974  0.00014251  0.0028477   0.000985264
116  -2509.3503107233  -0.000744603809 0.03814105  0.00043822  0.0037096   0.000652621
117  -2509.3480461248   0.002264598525 0.04793488  0.00052078  0.0040391   0.001214970
118  -2509.3507737019  -0.002727577111 0.02691829  0.00021937  0.0027262   0.000683570
119  -2509.3519406610  -0.001166959067 0.02950492  0.00024490  0.0034066   0.001115513
               *** Restarting incremental Fock matrix formation ***
                             ****Resetting KDIIS****
120  -2509.3506079361   0.001332724853 0.00077620  0.00000794  0.0026127   0.000899579
121  -2509.3506585569  -0.000050620792 0.00138824  0.00001195  0.0029886   0.000645880
122  -2509.3507287129  -0.000070155955 0.00279463  0.00002310  0.0029066   0.000536795
123  -2509.3508541440  -0.000125431109 0.00069418  0.00000708  0.0030710   0.000456908
124  -2509.3508385689   0.000015575098 0.03918408  0.00037302  0.0032871   0.000455504
125  -2509.3488808993   0.001957669555 0.04346116  0.00040685  0.0030436   0.000955255
126  -2509.3510126073  -0.002131707936 0.04664779  0.00044644  0.0036389   0.000483211
127  -2509.3487185936   0.002294013639 0.00552146  0.00007262  0.0025147   0.000547606
128  -2509.3484006812   0.000317912488 0.02605163  0.00028987  0.0026297   0.000681173
129  -2509.3469551159   0.001445565278 0.01451896  0.00017300  0.0051199   0.001713531
130  -2509.3476028275  -0.000647711578 0.00573647  0.00008213  0.0051385   0.001923689
131  -2509.3476815219  -0.000078694427 0.07542966  0.00073861  0.0068222   0.002520987
132  -2509.3511992076  -0.003517685727 0.06882883  0.00067226  0.0094126   0.003712625
133  -2509.3483997163   0.002799491270 0.01157407  0.00009021  0.0041563   0.001900677
134  -2509.3484763438  -0.000076627414 0.04314245  0.00042221  0.0055413   0.002601666
135  -2509.3511272508  -0.002650907027 0.02043210  0.00015980  0.0038121   0.000482315
136  -2509.3520218211  -0.000894570365 0.04608994  0.00038178  0.0031668   0.000604707
137  -2509.3499036811   0.002118140095 0.03820985  0.00031701  0.0039674   0.000827524
138  -2509.3515995428  -0.001695861743 0.00177216  0.00002418  0.0035759   0.000867558
                          ***Energy convergence achieved***
139  -2509.3515985708   0.000000972002 0.00410971  0.00002895  0.0036317   0.000709015
               *** Restarting incremental Fock matrix formation ***
                             ****Resetting KDIIS****
140  -2509.3514660072   0.000132563583 0.00099531  0.00000688  0.0036936   0.000675428
141  -2509.3515100493  -0.000044042063 0.00166545  0.00001294  0.0035723   0.000550103
142  -2509.3515790995  -0.000069050232 0.00328067  0.00002419  0.0036875   0.000497547
143  -2509.3517088706  -0.000129771061 0.00351496  0.00002718  0.0036871   0.000454003
144  -2509.3515666535   0.000142217048 0.06315050  0.00057865  0.0035377   0.000523913
145  -2509.3485336715   0.003032982066 0.05892137  0.00054985  0.0041405   0.001594823
146  -2509.3514070819  -0.002873410420 0.04134863  0.00035028  0.0037343   0.000513199
147  -2509.3496090547   0.001798027144 0.03785316  0.00032254  0.0026703   0.000786828
148  -2509.3512461163  -0.001637061548 0.01249913  0.00009781  0.0034335   0.000572116
149  -2509.3507456180   0.000500498229 0.00481538  0.00004454  0.0031783   0.000624769
150  -2509.3505424477   0.000203170314 0.00877248  0.00007363  0.0029155   0.000652235
151  -2509.3508919284  -0.000349480653 0.00371317  0.00003126  0.0041412   0.000662455
152  -2509.3507586761   0.000133252272 0.01255658  0.00010508  0.0034771   0.000453178
153  -2509.3502541938   0.000504482357 0.01163201  0.00009974  0.0031498   0.000460322
154  -2509.3507312227  -0.000477028987 0.00844728  0.00006938  0.0031873   0.000611090
155  -2509.3504538488   0.000277373934 0.00262680  0.00002182  0.0031492   0.000434293
156  -2509.3505350238  -0.000081175001 0.00502896  0.00004534  0.0032560   0.000441627
157  -2509.3503209866   0.000214037204 0.00752093  0.00006492  0.0027282   0.000545579
158  -2509.3506162159  -0.000295229258 0.00374997  0.00003448  0.0032887   0.000425922
159  -2509.3507723151  -0.000156099276 0.00243100  0.00002034  0.0032574   0.000534149
               *** Restarting incremental Fock matrix formation ***
                             ****Resetting KDIIS****
160  -2509.3508742280  -0.000101912814 0.00056917  0.00000500  0.0033075   0.000422518
161  -2509.3509023518  -0.000028123800 0.00117912  0.00001049  0.0032230   0.000409991
162  -2509.3509581730  -0.000055821288 0.00032119  0.00000442  0.0032155   0.000408525
163  -2509.3509425015   0.000015671538 0.03304610  0.00033892  0.0032745   0.000427262
164  -2509.3492838234   0.001658678080 0.00044774  0.00000812  0.0023783   0.000742434
165  -2509.3493007558  -0.000016932408 0.00597509  0.00005904  0.0025441   0.000841196
166  -2509.3495968973  -0.000296141425 0.01267580  0.00011349  0.0027481   0.000441150
167  -2509.3501345615  -0.000537664201 0.00467249  0.00004216  0.0026710   0.000515548
168  -2509.3499324002   0.000202161272 0.00662888  0.00005592  0.0027308   0.000511974
169  -2509.3496674192   0.000264980977 0.01434558  0.00015392  0.0029274   0.000421470
170  -2509.3489514152   0.000716004010 0.01794981  0.00019796  0.0026282   0.000487700
171  -2509.3480386045   0.000912810689 0.00991594  0.00010530  0.0029298   0.000878001
172  -2509.3475453503   0.000493254176 0.00239822  0.00004232  0.0037431   0.001172097
173  -2509.3473880989   0.000157251391 0.01974060  0.00021680  0.0057552   0.002185204
174  -2509.3485707797  -0.001182680787 0.01214666  0.00014918  0.0032718   0.001222812
175  -2509.3492653679  -0.000694588192 0.00401678  0.00003917  0.0025436   0.000562405
176  -2509.3494474938  -0.000182125864 0.00127574  0.00001540  0.0025370   0.000590146
177  -2509.3493995273   0.000047966487 0.01097463  0.00009868  0.0028096   0.000505509
178  -2509.3498702620  -0.000470734701 0.00243880  0.00002824  0.0023965   0.000690358
179  -2509.3497271266   0.000143135436 0.00332252  0.00003835  0.0034059   0.000857884
               *** Restarting incremental Fock matrix formation ***
                             ****Resetting KDIIS****
180  -2509.3496183904   0.000108736158 0.00052610  0.00000497  0.0031356   0.000490513
181  -2509.3496461662  -0.000027775778 0.00115322  0.00001018  0.0030557   0.000424947
182  -2509.3496957374  -0.000049571251 0.00201799  0.00001735  0.0030927   0.000401433
183  -2509.3497800842  -0.000084346756 0.01570238  0.00014306  0.0031243   0.000388907
184  -2509.3491200692   0.000660014949 0.00598786  0.00006378  0.0026175   0.000595600
185  -2509.3488823535   0.000237715718 0.00511575  0.00005558  0.0025735   0.000419359
186  -2509.3491196676  -0.000237314048 0.00411706  0.00004451  0.0028272   0.000356334
187  -2509.3493121636  -0.000192496001 0.00038385  0.00000629  0.0029577   0.000387395
                           ***RMSP convergence achieved***
188  -2509.3493367345  -0.000024570952 0.00005918  0.00000070  0.0028839   0.000356665
189  -2509.3493400279  -0.000003293409 0.01743999  0.00019880  0.0028830   0.000355360
190  -2509.3484423304   0.000897697507 0.00288027  0.00003048  0.0026631   0.000394774
191  -2509.3485730317  -0.000130701229 0.01022420  0.00011492  0.0027243   0.000364775
192  -2509.3490705867  -0.000497555009 0.00624458  0.00007644  0.0030433   0.000445532
193  -2509.3487451525   0.000325434211 0.00155460  0.00001613  0.0028183   0.000339980
194  -2509.3488138604  -0.000068707965 0.00253115  0.00002903  0.0028170   0.000337670
195  -2509.3489410402  -0.000127179781 0.00027387  0.00000346  0.0028347   0.000338091
196  -2509.3489272429   0.000013797317 0.00055137  0.00000627  0.0028851   0.000346151
197  -2509.3489459220  -0.000018679146 0.00033651  0.00000406  0.0028273   0.000340659
198  -2509.3489362069   0.000009715137 0.00074188  0.00001011  0.0027812   0.000350725
199  -2509.3489408759  -0.000004668983 0.00309922  0.00003470  0.0028723   0.000342985
               *** Restarting incremental Fock matrix formation ***
                             ****Resetting KDIIS****

 WARNING: the maximum gradient error descreased on average only by a factor   1.0
          during the last 200 iterations

                      *** Initiating the TRAH-SCF procedure ***

                    *** KDIIS BlockDiag ( 0.211 sec) ***

TRAH GRID
---------

General Integration Accuracy     IntAcc      ... 3.467
Radial Grid Type                 RadialGrid  ... OptM3 with GC (2021)
Angular Grid (max. ang.)         AngularGrid ... 1 (Lebedev-50)
Angular grid pruning method      GridPruning ... 4 (adaptive)
Weight generation scheme         WeightScheme... Becke
Basis function cutoff            BFCut       ... 1.0000e-10
Integration weight cutoff        WCut        ... 1.0000e-14
Angular grids for H and He will be reduced by one unit
Partially contracted basis set               ... off
Rotationally invariant grid construction     ... off

Total number of grid points                  ...    53314
Total number of batches                      ...      840
Average number of points per batch           ...       63
Average number of grid points per atom       ...     4847

 --------------------------------------------------------------------------------------------
   Iter.        energy            ||Error||_2        Shift      TRadius  Mac/Mic        Rej.
 --------------------------------------------------------------------------------------------
WARNING: 2 diagonal Hessian elements are negative!
    0      -2509.349094823103     5.107662e-03                     0.400 (TRAH MAcro)   No
WARNING : negative HOMO - LUMO gap : (op =  beta) -0.053952
    0     dE    -5.022868e-06     1.419248e-02    -5.0229e-06      0.001 (TRAH MIcro)
    0     dE    -1.269504e-03     5.953947e-02    -1.1641e-03      0.301 (TRAH MIcro)
    0     dE    -3.268178e-03     2.379869e-02    -1.0672e-02      0.400 (TRAH MIcro)
    0     dE    -3.653875e-03     2.260304e-02    -1.3838e-02      0.386 (TRAH MIcro)
    0     dE    -4.390326e-03     1.616770e-02    -1.6685e-02      0.400 (TRAH MIcro)
    0     dE    -4.508185e-03     8.279628e-03    -1.7515e-02      0.399 (TRAH MIcro)
    0     dE    -4.562230e-03     5.510464e-03    -1.7816e-02      0.400 (TRAH MIcro)
    0     dE    -4.591515e-03     5.531119e-03    -1.8086e-02      0.400 (TRAH MIcro)
    0     dE    -4.616645e-03     5.315155e-03    -1.8330e-02      0.400 (TRAH MIcro)
    0     dE    -4.650746e-03     6.720643e-03    -1.8676e-02      0.400 (TRAH MIcro)
    0     dE    -4.700931e-03     8.577028e-03    -1.9222e-02      0.400 (TRAH MIcro)
    0     dE    -4.762648e-03     1.014578e-02    -1.9920e-02      0.400 (TRAH MIcro)
    0     dE    -2.776867e-03     8.207922e-03    -2.5465e-02      0.260 (TRAH MIcro)
    0     dE    -5.602703e-03     3.745175e-02    -2.7887e-02      0.400 (TRAH MIcro)
WARNING: 2 diagonal Hessian elements are negative!
    1      -2509.353810724135     4.499236e-02                     0.480 (TRAH MAcro)   No
WARNING : small    HOMO - LUMO gap : (op = alpha) 0.015032
WARNING : negative HOMO - LUMO gap : (op =  beta) -0.049159
    1     dE    -1.306900e-04     1.431011e-01    -1.3069e-04      0.003 (TRAH MIcro)
    1     dE    -1.881154e-03     5.204759e-02    -1.8362e-03      0.156 (TRAH MIcro)
    1     dE    -4.808416e-03     7.189554e-02    -3.9380e-03      0.470 (TRAH MIcro)
    1     dE    -6.223622e-03     3.205091e-02    -1.0313e-02      0.480 (TRAH MIcro)
    1     dE    -6.912011e-03     5.496631e-02    -1.4663e-02      0.464 (TRAH MIcro)
    1     dE    -7.695579e-03     3.092947e-02    -1.6091e-02      0.471 (TRAH MIcro)
    1     dE    -8.226874e-03     3.555762e-02    -1.7412e-02      0.465 (TRAH MIcro)
    1     dE    -9.800345e-03     8.573344e-02    -2.1452e-02      0.448 (TRAH MIcro)
    1     dE    -1.955416e-02     8.577393e-02    -5.8862e-02      0.466 (TRAH MIcro)
    1     dE    -2.384412e-02     4.000880e-02    -7.3667e-02      0.480 (TRAH MIcro)
    1     dE    -2.458246e-02     1.696471e-02    -7.6605e-02      0.480 (TRAH MIcro)
    1     dE    -2.470632e-02     7.218820e-03    -7.7111e-02      0.480 (TRAH MIcro)
    1     dE    -2.473061e-02     4.386145e-03    -7.7222e-02      0.480 (TRAH MIcro)
WARNING: 2 diagonal Hessian elements are negative!
    2      -2509.376350341493     5.910536e-02                     0.576 (TRAH MAcro)   No
WARNING : small    HOMO - LUMO gap : (op = alpha) 0.013542
WARNING : negative HOMO - LUMO gap : (op =  beta) -0.024216
    2     dE    -8.838354e-04     1.671406e-01    -8.8364e-04      0.015 (TRAH MIcro)
    2     dE    -2.428374e-03     4.870445e-02    -2.4104e-03      0.086 (TRAH MIcro)
    2     dE    -6.711136e-03     9.034120e-02    -5.9520e-03      0.357 (TRAH MIcro)
    2     dE    -1.059023e-02     1.352383e-01    -8.4408e-03      0.505 (TRAH MIcro)
    2     dE    -1.962258e-02     1.557150e-01    -2.0093e-02      0.576 (TRAH MIcro)
    2     dE    -2.930844e-02     1.075487e-01    -3.9855e-02      0.576 (TRAH MIcro)
    2     dE    -3.572179e-02     6.744457e-02    -5.5513e-02      0.576 (TRAH MIcro)
    2     dE    -3.589062e-02     3.766739e-02    -6.5059e-02      0.544 (TRAH MIcro)
    2     dE    -3.641644e-02     1.866444e-02    -6.5555e-02      0.547 (TRAH MIcro)
    2     dE    -3.647298e-02     5.563523e-03    -6.5628e-02      0.547 (TRAH MIcro)
WARNING: 1 diagonal Hessian elements are negative!
    3      -2509.408163673086     3.264401e-02                     0.691 (TRAH MAcro)   No
WARNING : small    HOMO - LUMO gap : (op = alpha) 0.018039
WARNING : negative HOMO - LUMO gap : (op =  beta) -0.004740
    3     dE    -2.009487e-04     1.653776e-01    -2.0094e-04      0.006 (TRAH MIcro)
    3     dE    -8.104845e-03     1.294752e-01    -7.2951e-03      0.333 (TRAH MIcro)
    3     dE    -1.036739e-02     3.106823e-02    -8.8485e-03      0.414 (TRAH MIcro)
    3     dE    -1.069897e-02     2.207657e-02    -9.0751e-03      0.423 (TRAH MIcro)
    3     dE    -1.088252e-02     9.600604e-03    -9.2076e-03      0.427 (TRAH MIcro)
    3     dE    -1.091687e-02     8.390888e-03    -9.2303e-03      0.427 (TRAH MIcro)
    3     dE    -1.093951e-02     6.337625e-03    -9.2430e-03      0.428 (TRAH MIcro)
    3     dE    -1.097013e-02     1.206635e-02    -9.2592e-03      0.430 (TRAH MIcro)
    3     dE    -1.101627e-02     1.171047e-02    -9.2911e-03      0.431 (TRAH MIcro)
    3     dE    -1.117143e-02     1.746813e-02    -9.3872e-03      0.436 (TRAH MIcro)
    3     dE    -1.213276e-02     2.868852e-02    -9.7469e-03      0.495 (TRAH MIcro)
    3     dE    -1.539005e-02     3.178416e-02    -1.0609e-02      0.691 (TRAH MIcro)
    3     dE    -1.586533e-02     1.504794e-02    -1.2061e-02      0.691 (TRAH MIcro)
    3     dE    -1.595318e-02     6.925944e-03    -1.2327e-02      0.691 (TRAH MIcro)
    4      -2509.418607800335     4.401514e-02                     0.691 (TRAH MAcro)   No
WARNING : small    HOMO - LUMO gap : (op = alpha) 0.010821
WARNING : small    HOMO - LUMO gap : (op =  beta) 0.010909
    4     dE    -4.956107e-04     1.897359e-01    -4.9555e-04      0.011 (TRAH MIcro)
    4     dE    -1.208993e-03     3.747091e-02    -1.2058e-03      0.051 (TRAH MIcro)
    4     dE    -1.403012e-03     1.220578e-02    -1.3973e-03      0.064 (TRAH MIcro)
    4     dE    -1.529096e-03     9.689805e-03    -1.5157e-03      0.094 (TRAH MIcro)
    4     dE    -1.582675e-03     5.283084e-03    -1.5614e-03      0.117 (TRAH MIcro)
    4     dE    -1.607385e-03     3.775583e-03    -1.5801e-03      0.131 (TRAH MIcro)
    5      -2509.420091773396     3.979076e-03                     0.829 (TRAH MAcro)   No
WARNING : small    HOMO - LUMO gap : (op = alpha) 0.014926
WARNING : small    HOMO - LUMO gap : (op =  beta) 0.009541
    5     dE    -2.170906e-07     7.945236e-03    -2.1712e-07      0.000 (TRAH MIcro)
    5     dE    -1.039315e-05     2.663627e-03    -1.0392e-05      0.011 (TRAH MIcro)
    5     dE    -1.689289e-05     2.589619e-03    -1.6886e-05      0.020 (TRAH MIcro)
    5     dE    -1.923334e-05     1.203708e-03    -1.9221e-05      0.025 (TRAH MIcro)
    5     dE    -2.022775e-05     8.886207e-04    -2.0210e-05      0.030 (TRAH MIcro)
    5     dE    -2.105008e-05     7.161307e-04    -2.1026e-05      0.034 (TRAH MIcro)
    5     dE    -2.128216e-05     3.100173e-04    -2.1256e-05      0.035 (TRAH MIcro)
    6      -2509.420118114326     3.708206e-04                           (NR   MAcro)
WARNING : small    HOMO - LUMO gap : (op = alpha) 0.014458
WARNING : small    HOMO - LUMO gap : (op =  beta) 0.009691
    6     dE    -8.173070e-08     2.687198e-04                           (NR   MIcro)
    6     dE    -1.487496e-07     1.872516e-04                           (NR   MIcro)
    6     dE    -1.701125e-07     1.467844e-04                           (NR   MIcro)
    6     dE    -1.808022e-07     8.650397e-05                           (NR   MIcro)
    6     dE    -1.853198e-07     5.678524e-05                           (NR   MIcro)
    6     dE    -1.874715e-07     3.504850e-05                           (NR   MIcro)
    6     dE    -1.881561e-07     2.490951e-05                           (NR   MIcro)
    6     dE    -1.884012e-07     1.479540e-05                           (NR   MIcro)
    6     dE    -1.885046e-07     6.679189e-06                           (NR   MIcro)
    6     dE    -1.885279e-07     4.401583e-06                           (NR   MIcro)
    7      -2509.420118099706     1.867642e-05                           (NR   MAcro)
WARNING : small    HOMO - LUMO gap : (op = alpha) 0.014525
WARNING : small    HOMO - LUMO gap : (op =  beta) 0.009653

               *****************************************************
               *                     SUCCESS                       *
               *           SCF CONVERGED AFTER 282 CYCLES          *
               *****************************************************


----------------
TOTAL SCF ENERGY
----------------

Total Energy       :        -2509.42011810 Eh          -68284.79295 eV

Components:
Nuclear Repulsion  :         3160.79383695 Eh           86009.57295 eV
Electronic Energy  :        -5670.21395505 Eh         -154294.36589 eV
One Electron Energy:       -10289.21571045 Eh         -279983.79358 eV
Two Electron Energy:         4619.00175540 Eh          125689.42769 eV

Virial components:
Potential Energy   :        -4117.39313227 Eh         -112039.96313 eV
Kinetic Energy     :         1607.97301417 Eh           43755.17019 eV
Virial Ratio       :            2.56061084


DFT components:
N(Alpha)           :      109.999977891872 electrons
N(Beta)            :      104.999971952821 electrons
N(Total)           :      214.999949844693 electrons
E(X)               :     -172.447545498494 Eh       
E(C)               :       -8.894952095259 Eh       
E(XC)              :     -181.342497593752 Eh       
DFET-embed. en.    :        0.000000000000 Eh       

---------------
SCF CONVERGENCE
---------------

  Last Energy change         ...    1.4620e-08  Tolerance :   1.0000e-06
  Last Orbital Gradient      ...    1.8676e-05  Tolerance :   5.0000e-05
  Last Orbital Rotation      ...    3.6367e-03

             **** THE GBW FILE WAS UPDATED (scan.gbw) ****
             **** DENSITY scan.scfp WAS UPDATED ****
             **** ENERGY FILE WAS UPDATED (scan.en.tmp) ****
----------------------
UHF SPIN CONTAMINATION
----------------------

Warning: in a DFT calculation there is little theoretical justification to 
         calculate <S**2> as in Hartree-Fock theory. We will do it anyways
         but you should keep in mind that the values have only limited relevance

Expectation value of <S**2>     :     9.257378
Ideal value S*(S+1) for S=2.5   :     8.750000
Deviation                       :     0.507378

             **** THE GBW FILE WAS UPDATED (scan.gbw) ****
             **** DENSITY scan.scfp WAS UPDATED ****
----------------
ORBITAL ENERGIES
----------------
                 SPIN UP ORBITALS
  NO   OCC          E(Eh)            E(eV) 
   0   1.0000    -235.041177     -6395.7956 
   1   1.0000     -27.222936      -740.7738 
   2   1.0000     -23.271064      -633.2378 
   3   1.0000     -23.269235      -633.1881 
   4   1.0000     -23.268583      -633.1703 
   5   1.0000      -4.120947      -112.1367 
   6   1.0000      -4.119814      -112.1058 
   7   1.0000      -4.118136      -112.0602 
   8   1.0000      -4.117606      -112.0458 
   9   1.0000      -4.114276      -111.9551 
  10   1.0000      -4.113499      -111.9340 
  11   1.0000      -4.112892      -111.9175 
  12   1.0000      -4.111357      -111.8757 
  13   1.0000      -4.108856      -111.8076 
  14   1.0000      -4.107668      -111.7753 
  15   1.0000      -3.244479       -88.2868 
  16   1.0000      -2.311262       -62.8926 
  17   1.0000      -2.310847       -62.8813 
  18   1.0000      -2.308794       -62.8255 
  19   1.0000      -2.307604       -62.7931 
  20   1.0000      -2.306758       -62.7701 
  21   1.0000      -2.306041       -62.7506 
  22   1.0000      -2.305516       -62.7363 
  23   1.0000      -2.305088       -62.7246 
  24   1.0000      -2.304686       -62.7137 
  25   1.0000      -2.303319       -62.6765 
  26   1.0000      -2.302622       -62.6575 
  27   1.0000      -2.302071       -62.6425 
  28   1.0000      -2.302007       -62.6408 
  29   1.0000      -2.301436       -62.6253 
  30   1.0000      -2.300490       -62.5995 
  31   1.0000      -2.300058       -62.5878 
  32   1.0000      -2.299885       -62.5830 
  33   1.0000      -2.298263       -62.5389 
  34   1.0000      -2.297738       -62.5246 
  35   1.0000      -2.297407       -62.5156 
  36   1.0000      -2.297382       -62.5149 
  37   1.0000      -2.295724       -62.4698 
  38   1.0000      -2.294819       -62.4452 
  39   1.0000      -2.292827       -62.3910 
  40   1.0000      -2.292656       -62.3863 
  41   1.0000      -2.292601       -62.3848 
  42   1.0000      -2.292144       -62.3724 
  43   1.0000      -2.291435       -62.3531 
  44   1.0000      -2.291084       -62.3436 
  45   1.0000      -2.289939       -62.3124 
  46   1.0000      -2.103901       -57.2501 
  47   1.0000      -2.099727       -57.1365 
  48   1.0000      -2.099206       -57.1223 
  49   1.0000      -0.418967       -11.4007 
  50   1.0000      -0.384709       -10.4685 
  51   1.0000      -0.382202       -10.4003 
  52   1.0000      -0.377697       -10.2777 
  53   1.0000      -0.375673       -10.2226 
  54   1.0000      -0.371884       -10.1195 
  55   1.0000      -0.368890       -10.0380 
  56   1.0000      -0.361666        -9.8414 
  57   1.0000      -0.356965        -9.7135 
  58   1.0000      -0.353688        -9.6243 
  59   1.0000      -0.351382        -9.5616 
  60   1.0000      -0.349626        -9.5138 
  61   1.0000      -0.344481        -9.3738 
  62   1.0000      -0.342676        -9.3247 
  63   1.0000      -0.339408        -9.2358 
  64   1.0000      -0.334055        -9.0901 
  65   1.0000      -0.328884        -8.9494 
  66   1.0000      -0.327145        -8.9021 
  67   1.0000      -0.324571        -8.8320 
  68   1.0000      -0.322822        -8.7844 
  69   1.0000      -0.318223        -8.6593 
  70   1.0000      -0.314812        -8.5665 
  71   1.0000      -0.312505        -8.5037 
  72   1.0000      -0.311691        -8.4815 
  73   1.0000      -0.310337        -8.4447 
  74   1.0000      -0.303283        -8.2527 
  75   1.0000      -0.299916        -8.1611 
  76   1.0000      -0.297535        -8.0963 
  77   1.0000      -0.294774        -8.0212 
  78   1.0000      -0.293232        -7.9793 
  79   1.0000      -0.292342        -7.9550 
  80   1.0000      -0.289624        -7.8811 
  81   1.0000      -0.288329        -7.8458 
  82   1.0000      -0.285127        -7.7587 
  83   1.0000      -0.282202        -7.6791 
  84   1.0000      -0.281582        -7.6622 
  85   1.0000      -0.280327        -7.6281 
  86   1.0000      -0.279667        -7.6101 
  87   1.0000      -0.276943        -7.5360 
  88   1.0000      -0.276345        -7.5197 
  89   1.0000      -0.273117        -7.4319 
  90   1.0000      -0.272570        -7.4170 
  91   1.0000      -0.270837        -7.3698 
  92   1.0000      -0.268488        -7.3059 
  93   1.0000      -0.267891        -7.2897 
  94   1.0000      -0.266184        -7.2432 
  95   1.0000      -0.265343        -7.2204 
  96   1.0000      -0.262148        -7.1334 
  97   1.0000      -0.261100        -7.1049 
  98   1.0000      -0.260757        -7.0956 
  99   1.0000      -0.258319        -7.0292 
 100   1.0000      -0.256856        -6.9894 
 101   1.0000      -0.254311        -6.9201 
 102   1.0000      -0.250480        -6.8159 
 103   1.0000      -0.248151        -6.7525 
 104   1.0000      -0.245231        -6.6731 
 105   1.0000      -0.243268        -6.6197 
 106   1.0000      -0.236463        -6.4345 
 107   1.0000      -0.227524        -6.1912 
 108   1.0000      -0.212024        -5.7695 
 109   1.0000      -0.187387        -5.0991 
 110   0.0000      -0.172862        -4.7038 
 111   0.0000      -0.133047        -3.6204 
 112   0.0000      -0.126553        -3.4437 
 113   0.0000      -0.123633        -3.3642 
 114   0.0000      -0.099892        -2.7182 
 115   0.0000      -0.069178        -1.8824 
 116   0.0000      -0.060523        -1.6469 
 117   0.0000      -0.051191        -1.3930 
 118   0.0000      -0.047528        -1.2933 
 119   0.0000      -0.041823        -1.1381 
 120   0.0000      -0.029202        -0.7946 
 121   0.0000      -0.018233        -0.4962 
 122   0.0000      -0.002143        -0.0583 
 123   0.0000       0.002837         0.0772 
 124   0.0000       0.009029         0.2457 
 125   0.0000       0.028968         0.7882 
 126   0.0000       0.035358         0.9621 
 127   0.0000       0.037285         1.0146 
 128   0.0000       0.045815         1.2467 
 129   0.0000       0.054173         1.4741 
 130   0.0000       0.059526         1.6198 
 131   0.0000       0.066170         1.8006 
 132   0.0000       0.071636         1.9493 
 133   0.0000       0.076748         2.0884 
 134   0.0000       0.078841         2.1454 
 135   0.0000       0.082054         2.2328 
 136   0.0000       0.089325         2.4307 
 137   0.0000       0.097804         2.6614 
 138   0.0000       0.101414         2.7596 
 139   0.0000       0.106807         2.9064 
 140   0.0000       0.111615         3.0372 
 141   0.0000       0.123498         3.3606 
 142   0.0000       0.124521         3.3884 
 143   0.0000       0.143696         3.9102 
 144   0.0000       0.156284         4.2527 
 145   0.0000       0.157517         4.2863 
 146   0.0000       0.163768         4.4564 
 147   0.0000       0.169322         4.6075 
 148   0.0000       0.176854         4.8124 
 149   0.0000       0.179356         4.8805 
 150   0.0000       0.182519         4.9666 
 151   0.0000       0.188884         5.1398 
 152   0.0000       0.192896         5.2490 
 153   0.0000       0.203576         5.5396 
 154   0.0000       0.224441         6.1074 
 155   0.0000       0.227033         6.1779 
 156   0.0000       0.234262         6.3746 
 157   0.0000       0.245597         6.6830 
 158   0.0000       0.254540         6.9264 
 159   0.0000       0.257911         7.0181 
 160   0.0000       0.266087         7.2406 
 161   0.0000       0.269863         7.3433 
 162   0.0000       0.275141         7.4870 
 163   0.0000       0.280369         7.6292 
 164   0.0000       0.283487         7.7141 
 165   0.0000       0.286299         7.7906 
 166   0.0000       0.294109         8.0031 
 167   0.0000       0.295959         8.0535 
 168   0.0000       0.302990         8.2448 
 169   0.0000       0.307904         8.3785 
 170   0.0000       0.309135         8.4120 
 171   0.0000       0.317902         8.6506 
 172   0.0000       0.325332         8.8527 
 173   0.0000       0.331044         9.0082 
 174   0.0000       0.337705         9.1894 
 175   0.0000       0.339643         9.2422 
 176   0.0000       0.343496         9.3470 
 177   0.0000       0.350880         9.5479 
 178   0.0000       0.354236         9.6392 
 179   0.0000       0.357721         9.7341 
 180   0.0000       0.368800        10.0356 
 181   0.0000       0.375946        10.2300 
 182   0.0000       0.383696        10.4409 
 183   0.0000       0.389997        10.6124 
 184   0.0000       0.392884        10.6909 
 185   0.0000       0.399436        10.8692 
 186   0.0000       0.407209        11.0807 
 187   0.0000       0.412815        11.2333 
 188   0.0000       0.413706        11.2575 
 189   0.0000       0.414622        11.2824 
 190   0.0000       0.427957        11.6453 
 191   0.0000       0.436673        11.8825 
 192   0.0000       0.438231        11.9249 
 193   0.0000       0.441143        12.0041 
 194   0.0000       0.449718        12.2374 
 195   0.0000       0.453394        12.3375 
 196   0.0000       0.460689        12.5360 
 197   0.0000       0.476322        12.9614 
 198   0.0000       0.477679        12.9983 
 199   0.0000       0.482137        13.1196 
 200   0.0000       0.488530        13.2936 
 201   0.0000       0.493997        13.4423 
 202   0.0000       0.500828        13.6282 
 203   0.0000       0.504961        13.7407 
 204   0.0000       0.514335        13.9958 
 205   0.0000       0.517441        14.0803 
 206   0.0000       0.524819        14.2811 
 207   0.0000       0.534468        14.5436 
 208   0.0000       0.542136        14.7523 
 209   0.0000       0.544530        14.8174 
 210   0.0000       0.550916        14.9912 
 211   0.0000       0.556404        15.1405 
 212   0.0000       0.566988        15.4285 
 213   0.0000       0.586071        15.9478 
 214   0.0000       0.615552        16.7500 
 215   0.0000       0.623376        16.9629 
 216   0.0000       0.641737        17.4626 
 217   0.0000       0.657261        17.8850 
 218   0.0000       0.697676        18.9847 
 219   0.0000       0.700848        19.0710 
 220   0.0000       0.708693        19.2845 
 221   0.0000       0.719282        19.5727 
 222   0.0000       0.739958        20.1353 
 223   0.0000       0.752044        20.4641 
 224   0.0000       0.763434        20.7741 
 225   0.0000       0.767407        20.8822 
 226   0.0000       0.787857        21.4387 
 227   0.0000       0.794666        21.6240 
 228   0.0000       0.809824        22.0364 
 229   0.0000       0.828705        22.5502 
 230   0.0000       0.836329        22.7577 
 231   0.0000       0.840233        22.8639 
 232   0.0000       0.850757        23.1503 
 233   0.0000       0.872405        23.7393 
 234   0.0000       0.882696        24.0194 
 235   0.0000       0.885375        24.0923 
 236   0.0000       0.892741        24.2927 
 237   0.0000       0.909936        24.7606 
 238   0.0000       0.922199        25.0943 
 239   0.0000       0.936120        25.4731 
 240   0.0000       0.947299        25.7773 
 241   0.0000       0.961343        26.1595 
 242   0.0000       0.974991        26.5308 
 243   0.0000       1.001335        27.2477 
 244   0.0000       1.021768        27.8037 
 245   0.0000       1.073762        29.2185 
 246   0.0000       1.085727        29.5441 
 247   0.0000       1.117115        30.3982 
 248   0.0000       1.200511        32.6676 
 249   0.0000       1.235681        33.6246 
 250   0.0000       1.276193        34.7270 
 251   0.0000       1.300519        35.3889 
 252   0.0000       1.307760        35.5860 
 253   0.0000       1.328928        36.1620 
 254   0.0000       1.341239        36.4970 
 255   0.0000       1.359074        36.9823 
 256   0.0000       1.368493        37.2386 
 257   0.0000       1.373634        37.3785 
 258   0.0000       1.385833        37.7104 
 259   0.0000       1.402726        38.1701 
 260   0.0000       1.408940        38.3392 
 261   0.0000       1.419215        38.6188 
 262   0.0000       1.428533        38.8723 
 263   0.0000       1.432005        38.9668 
 264   0.0000       1.433236        39.0003 
 265   0.0000       1.453376        39.5484 
 266   0.0000       1.455934        39.6180 
 267   0.0000       1.459001        39.7014 
 268   0.0000       1.465103        39.8675 
 269   0.0000       1.468648        39.9639 
 270   0.0000       1.471643        40.0454 
 271   0.0000       1.477401        40.2021 
 272   0.0000       1.484024        40.3823 
 273   0.0000       1.485001        40.4089 
 274   0.0000       1.489491        40.5311 
 275   0.0000       1.494093        40.6563 
 276   0.0000       1.498553        40.7777 
 277   0.0000       1.502076        40.8736 
 278   0.0000       1.507400        41.0184 
 279   0.0000       1.513193        41.1761 
 280   0.0000       1.516522        41.2667 
 281   0.0000       1.518269        41.3142 
 282   0.0000       1.526692        41.5434 
 283   0.0000       1.530130        41.6370 
 284   0.0000       1.535268        41.7768 
 285   0.0000       1.537087        41.8263 
 286   0.0000       1.540018        41.9060 
 287   0.0000       1.541015        41.9332 
 288   0.0000       1.543323        41.9960 
 289   0.0000       1.546101        42.0716 
 290   0.0000       1.548954        42.1492 
 291   0.0000       1.550364        42.1876 
 292   0.0000       1.553958        42.2854 
 293   0.0000       1.554761        42.3072 
 294   0.0000       1.555851        42.3369 
 295   0.0000       1.557265        42.3753 
 296   0.0000       1.560103        42.4526 
 297   0.0000       1.564091        42.5611 
 298   0.0000       1.565494        42.5993 
 299   0.0000       1.567462        42.6528 
 300   0.0000       1.567579        42.6560 
 301   0.0000       1.569553        42.7097 
 302   0.0000       1.572586        42.7922 
 303   0.0000       1.574260        42.8378 
 304   0.0000       1.576389        42.8957 
 305   0.0000       1.577307        42.9207 
 306   0.0000       1.579222        42.9728 
 307   0.0000       1.579364        42.9767 
 308   0.0000       1.582042        43.0495 
 309   0.0000       1.583028        43.0764 
 310   0.0000       1.584024        43.1035 
 311   0.0000       1.588850        43.2348 
 312   0.0000       1.593008        43.3480 
 313   0.0000       1.595280        43.4098 
 314   0.0000       1.596773        43.4504 
 315   0.0000       1.598725        43.5035 
 316   0.0000       1.602425        43.6042 
 317   0.0000       1.603467        43.6326 
 318   0.0000       1.605555        43.6894 
 319   0.0000       1.606511        43.7154 
 320   0.0000       1.609094        43.7857 
 321   0.0000       1.612205        43.8703 
 322   0.0000       1.615407        43.9575 
 323   0.0000       1.615977        43.9730 
 324   0.0000       1.619932        44.0806 
 325   0.0000       1.621990        44.1366 
 326   0.0000       1.625703        44.2376 
 327   0.0000       1.627293        44.2809 
 328   0.0000       1.630319        44.3632 
 329   0.0000       1.632222        44.4150 
 330   0.0000       1.637162        44.5494 
 331   0.0000       1.639187        44.6045 
 332   0.0000       1.640786        44.6480 
 333   0.0000       1.645680        44.7812 
 334   0.0000       1.649418        44.8829 
 335   0.0000       1.653135        44.9841 
 336   0.0000       1.655794        45.0565 
 337   0.0000       1.656923        45.0872 
 338   0.0000       1.664078        45.2819 
 339   0.0000       1.671875        45.4940 
 340   0.0000       1.673827        45.5472 
 341   0.0000       1.674185        45.5569 
 342   0.0000       1.681175        45.7471 
 343   0.0000       1.684224        45.8301 
 344   0.0000       1.690277        45.9948 
 345   0.0000       1.692769        46.0626 
 346   0.0000       1.696131        46.1541 
 347   0.0000       1.697605        46.1942 
 348   0.0000       1.703510        46.3549 
 349   0.0000       1.715138        46.6713 
 350   0.0000       1.720197        46.8089 
 351   0.0000       1.738680        47.3119 
 352   0.0000       1.744327        47.4656 
 353   0.0000       1.760577        47.9077 
 354   0.0000       1.773628        48.2629 
 355   0.0000       1.785487        48.5856 
 356   0.0000       1.827797        49.7369 
 357   0.0000       1.837753        50.0078 
 358   0.0000       1.852506        50.4093 
[...]
      f+1     :     0.000046
      f-1     :    -0.000006
      f+2     :     0.000056
      f-2     :     0.000049
      f+3     :     0.000022
      f-3     :     0.000017
  8 Aus       :    -0.132111  s :    -0.132111
      pz      :     0.000591  p :     0.009221
      px      :     0.006133
      py      :     0.002497
      dz2     :     0.005511  d :     0.011464
      dxz     :     0.007141
      dyz     :     0.008552
      dx2y2   :    -0.005798
      dxy     :    -0.003943
      f0      :     0.000012  f :     0.000228
      f+1     :     0.000042
      f-1     :     0.000104
      f+2     :     0.000046
      f-2     :     0.000026
      f+3     :    -0.000002
      f-3     :    -0.000001
  9 Aus       :    -0.204376  s :    -0.204376
      pz      :     0.001910  p :     0.014608
      px      :     0.005991
      py      :     0.006707
      dz2     :     0.007264  d :     0.032251
      dxz     :     0.010859
      dyz     :     0.001219
      dx2y2   :     0.006118
      dxy     :     0.006791
      f0      :     0.000013  f :     0.000267
      f+1     :     0.000066
      f-1     :     0.000002
      f+2     :     0.000058
      f-2     :     0.000065
      f+3     :     0.000032
      f-3     :     0.000030
 10 Mns       :     0.039482  s :     0.039482
      pz      :     0.023152  p :     0.078084
      px      :     0.028026
      py      :     0.026906
      dz2     :     0.843845  d :     4.143554
      dxz     :     0.790975
      dyz     :     0.774855
      dx2y2   :     0.833588
      dxy     :     0.900290
      f0      :     0.000012  f :     0.000068
      f+1     :     0.000012
      f-1     :     0.000009
      f+2     :     0.000012
      f-2     :     0.000009
      f+3     :     0.000007
      f-3     :     0.000007


                     *******************************
                     * LOEWDIN POPULATION ANALYSIS *
                     *******************************

-------------------------------------------
LOEWDIN ATOMIC CHARGES AND SPIN POPULATIONS
-------------------------------------------
   0 Au:   -0.061446   -0.130890
   1 Au:    0.006207   -0.017013
   2 Au:    0.109081   -0.155409
   3 Au:    0.122010   -0.182340
   4 Au:    0.081968   -0.042690
   5 Au:   -0.030483   -0.124243
   6 Au:    0.035859   -0.117780
   7 Au:    0.022857   -0.122538
   8 Au:    0.016402   -0.077188
   9 Au:    0.061114   -0.105869
  10 Mn:   -0.363571    4.075960

----------------------------------------------------
LOEWDIN REDUCED ORBITAL CHARGES AND SPIN POPULATIONS
----------------------------------------------------
CHARGE
  0 Aus       :     2.577628  s :     2.577628
      pz      :     2.128038  p :     6.590628
      px      :     2.279757
      py      :     2.182833
      dz2     :     1.967143  d :     9.886804
      dxz     :     1.980201
      dyz     :     1.970882
      dx2y2   :     1.980720
      dxy     :     1.987857
      f0      :     0.000676  f :     0.006385
      f+1     :     0.001092
      f-1     :     0.000697
      f+2     :     0.001030
      f-2     :     0.000719
      f+3     :     0.001062
      f-3     :     0.001110
  1 Aus       :     2.620088  s :     2.620088
      pz      :     2.290822  p :     6.494837
      px      :     2.105676
      py      :     2.098339
      dz2     :     1.962105  d :     9.872969
      dxz     :     1.974098
      dyz     :     1.987157
      dx2y2   :     1.981654
      dxy     :     1.967955
      f0      :     0.001205  f :     0.005899
      f+1     :     0.001287
      f-1     :     0.001074
      f+2     :     0.000574
      f-2     :     0.000846
      f+3     :     0.000543
      f-3     :     0.000369
  2 Aus       :     2.728256  s :     2.728256
      pz      :     2.167511  p :     6.314833
      px      :     2.092952
      py      :     2.054370
      dz2     :     1.964969  d :     9.843574
      dxz     :     1.955571
      dyz     :     1.984967
      dx2y2   :     1.968258
      dxy     :     1.969809
      f0      :     0.000804  f :     0.004257
      f+1     :     0.000842
      f-1     :     0.000601
      f+2     :     0.000677
      f-2     :     0.000489
      f+3     :     0.000448
      f-3     :     0.000396
  3 Aus       :     2.736707  s :     2.736707
      pz      :     2.067302  p :     6.277271
      px      :     2.105747
      py      :     2.104222
      dz2     :     1.959155  d :     9.860647
      dxz     :     1.974277
      dyz     :     1.958132
      dx2y2   :     1.979618
      dxy     :     1.989464
      f0      :     0.000372  f :     0.003365
      f+1     :     0.000249
      f-1     :     0.000642
      f+2     :     0.000449
      f-2     :     0.000511
      f+3     :     0.000457
      f-3     :     0.000685
  4 Aus       :     2.791143  s :     2.791143
      pz      :     2.096312  p :     6.246454
      px      :     2.081942
      py      :     2.068200
      dz2     :     1.974563  d :     9.876383
      dxz     :     1.981398
      dyz     :     1.972205
      dx2y2   :     1.966908
      dxy     :     1.981310
      f0      :     0.000667  f :     0.004052
      f+1     :     0.000692
      f-1     :     0.000551
      f+2     :     0.000674
      f-2     :     0.000355
      f+3     :     0.000538
      f-3     :     0.000575
  5 Aus       :     2.558528  s :     2.558528
      pz      :     2.225305  p :     6.573790
      px      :     2.113371
      py      :     2.235114
      dz2     :     1.971444  d :     9.892052
      dxz     :     1.982497
      dyz     :     1.979624
      dx2y2   :     1.968172
      dxy     :     1.990316
      f0      :     0.000927  f :     0.006114
      f+1     :     0.000758
      f-1     :     0.001118
      f+2     :     0.001040
      f-2     :     0.000856
      f+3     :     0.000701
      f-3     :     0.000714
  6 Aus       :     2.786423  s :     2.786423
      pz      :     2.087451  p :     6.293847
      px      :     2.131218
      py      :     2.075177
      dz2     :     1.982063  d :     9.879716
      dxz     :     1.967980
      dyz     :     1.986432
      dx2y2   :     1.962715
      dxy     :     1.980526
      f0      :     0.000455  f :     0.004155
      f+1     :     0.000889
      f-1     :     0.000356
      f+2     :     0.000907
      f-2     :     0.000698
      f+3     :     0.000426
      f-3     :     0.000425
  7 Aus       :     2.681989  s :     2.681989
      pz      :     2.213614  p :     6.431520
      px      :     2.137727
      py      :     2.080179
      dz2     :     1.981105  d :     9.858460
      dxz     :     1.942043
      dyz     :     1.973749
      dx2y2   :     1.980355
      dxy     :     1.981209
      f0      :     0.000970  f :     0.005174
      f+1     :     0.001050
      f-1     :     0.000766
      f+2     :     0.000760
      f-2     :     0.000702
      f+3     :     0.000322
      f-3     :     0.000604
  8 Aus       :     2.609565  s :     2.609565
      pz      :     2.154171  p :     6.503776
      px      :     2.138075
      py      :     2.211530
      dz2     :     1.978981  d :     9.864567
      dxz     :     1.970060
      dyz     :     1.933501
      dx2y2   :     1.988144
      dxy     :     1.993881
      f0      :     0.000979  f :     0.005689
      f+1     :     0.000761
      f-1     :     0.001049
      f+2     :     0.000850
      f-2     :     0.000865
      f+3     :     0.000560
      f-3     :     0.000625
  9 Aus       :     2.664326  s :     2.664326
      pz      :     2.204907  p :     6.414007
      px      :     2.116883
      py      :     2.092218
      dz2     :     1.974558  d :     9.855725
      dxz     :     1.946820
      dyz     :     1.978102
      dx2y2   :     1.983692
      dxy     :     1.972554
      f0      :     0.000763  f :     0.004827
      f+1     :     0.001034
      f-1     :     0.000810
      f+2     :     0.000765
      f-2     :     0.000694
      f+3     :     0.000457
      f-3     :     0.000303
 10 Mns       :     6.317280  s :     6.317280
      pz      :     4.219699  p :    12.641726
      px      :     4.234394
      py      :     4.187633
      dz2     :     1.281896  d :     6.403386
      dxz     :     1.333042
      dyz     :     1.336428
      dx2y2   :     1.251290
      dxy     :     1.200729
      f0      :     0.000149  f :     0.001179
      f+1     :     0.000149
      f-1     :     0.000227
      f+2     :     0.000230
      f-2     :     0.000166
      f+3     :     0.000142
      f-3     :     0.000116

SPIN
  0 Aus       :    -0.100589  s :    -0.100589
      pz      :     0.003832  p :    -0.038839
      px      :    -0.024184
      py      :    -0.018486
      dz2     :     0.015143  d :     0.008351
      dxz     :     0.005624
      dyz     :     0.009656
      dx2y2   :    -0.022901
      dxy     :     0.000829
      f0      :     0.000072  f :     0.000187
      f+1     :    -0.000004
      f-1     :     0.000120
      f+2     :     0.000027
      f-2     :     0.000020
      f+3     :    -0.000014
      f-3     :    -0.000033
  1 Aus       :     0.001171  s :     0.001171
      pz      :    -0.016966  p :    -0.025623
      px      :    -0.010518
      py      :     0.001861
      dz2     :     0.004260  d :     0.007208
      dxz     :    -0.015013
      dyz     :     0.002971
      dx2y2   :     0.009750
      dxy     :     0.005239
      f0      :     0.000013  f :     0.000230
      f+1     :     0.000050
      f-1     :     0.000051
      f+2     :    -0.000013
      f-2     :    -0.000013
      f+3     :     0.000099
      f-3     :     0.000044
  2 Aus       :    -0.056589  s :    -0.056589
      pz      :    -0.073777  p :    -0.101163
      px      :    -0.018435
      py      :    -0.008950
      dz2     :    -0.006594  d :     0.002033
      dxz     :    -0.003197
      dyz     :    -0.001692
      dx2y2   :     0.003842
      dxy     :     0.009674
      f0      :     0.000052  f :     0.000310
      f+1     :     0.000015
      f-1     :    -0.000039
      f+2     :     0.000083
      f-2     :     0.000021
      f+3     :     0.000073
      f-3     :     0.000105
  3 Aus       :    -0.169584  s :    -0.169584
      pz      :    -0.005806  p :    -0.032748
      px      :    -0.011260
      py      :    -0.015681
      dz2     :     0.014238  d :     0.019548
      dxz     :     0.008650
      dyz     :     0.011445
      dx2y2   :    -0.008060
      dxy     :    -0.006724
      f0      :     0.000102  f :     0.000444
      f+1     :     0.000046
      f-1     :     0.000156
      f+2     :     0.000096
      f-2     :     0.000071
      f+3     :    -0.000007
      f-3     :    -0.000019
  4 Aus       :     0.008125  s :     0.008125
      pz      :     0.000785  p :    -0.025717
      px      :    -0.023067
      py      :    -0.003435
      dz2     :    -0.003303  d :    -0.025043
      dxz     :     0.001769
      dyz     :    -0.001857
      dx2y2   :    -0.015653
      dxy     :    -0.005999
      f0      :    -0.000006  f :    -0.000055
      f+1     :    -0.000010
      f-1     :     0.000000
      f+2     :    -0.000008
      f-2     :    -0.000001
      f+3     :    -0.000003
      f-3     :    -0.000026
  5 Aus       :    -0.069234  s :    -0.069234
      pz      :    -0.019584  p :    -0.041690
      px      :    -0.020109
      py      :    -0.001997
      dz2     :    -0.003078  d :    -0.013552
      dxz     :     0.000961
      dyz     :    -0.020275
      dx2y2   :     0.008022
      dxy     :     0.000818
      f0      :     0.000050  f :     0.000233
      f+1     :     0.000030
      f-1     :    -0.000015
      f+2     :     0.000089
      f-2     :    -0.000043
      f+3     :     0.000096
      f-3     :     0.000027
  6 Aus       :    -0.024624  s :    -0.024624
      pz      :    -0.003871  p :    -0.056688
      px      :    -0.040898
      py      :    -0.011919
      dz2     :     0.000750  d :    -0.036383
      dxz     :    -0.029784
      dyz     :    -0.003799
      dx2y2   :    -0.003654
      dxy     :     0.000104
      f0      :     0.000003  f :    -0.000085
      f+1     :    -0.000023
      f-1     :    -0.000002
      f+2     :    -0.000009
      f-2     :     0.000004
      f+3     :    -0.000036
      f-3     :    -0.000022
  7 Aus       :    -0.127391  s :    -0.127391
      pz      :    -0.006226  p :    -0.031845
      px      :    -0.027371
      py      :     0.001751
      dz2     :     0.006361  d :     0.036322
      dxz     :     0.017905
      dyz     :     0.002798
      dx2y2   :     0.006376
      dxy     :     0.002882
      f0      :     0.000022  f :     0.000376
      f+1     :     0.000096
      f-1     :    -0.000014
      f+2     :     0.000128
      f-2     :     0.000072
      f+3     :     0.000041
      f-3     :     0.000031
  8 Aus       :    -0.063857  s :    -0.063857
      pz      :    -0.000725  p :    -0.021016
      px      :    -0.007500
      py      :    -0.012790
      dz2     :     0.005947  d :     0.007247
      dxz     :     0.008210
      dyz     :     0.010135
      dx2y2   :    -0.009016
      dxy     :    -0.008030
      f0      :     0.000027  f :     0.000438
      f+1     :     0.000062
      f-1     :     0.000204
      f+2     :     0.000097
      f-2     :     0.000059
      f+3     :    -0.000005
      f-3     :    -0.000006
  9 Aus       :    -0.105078  s :    -0.105078
      pz      :    -0.027342  p :    -0.040285
      px      :    -0.009841
      py      :    -0.003103
      dz2     :     0.008527  d :     0.038983
      dxz     :     0.014384
      dyz     :     0.000843
      dx2y2   :     0.007919
      dxy     :     0.007311
      f0      :     0.000035  f :     0.000511
      f+1     :     0.000108
      f-1     :     0.000008
      f+2     :     0.000104
      f-2     :     0.000137
      f+3     :     0.000054
      f-3     :     0.000065
 10 Mns       :     0.029695  s :     0.029695
      pz      :     0.009502  p :     0.039031
      px      :     0.013956
      py      :     0.015573
      dz2     :     0.830873  d :     4.007203
      dxz     :     0.762900
      dyz     :     0.729591
      dx2y2   :     0.800144
      dxy     :     0.883694
      f0      :     0.000008  f :     0.000032
      f+1     :     0.000007
      f-1     :     0.000001
      f+2     :     0.000006
      f-2     :     0.000002
      f+3     :     0.000003
      f-3     :     0.000003


                      *****************************
                      * MAYER POPULATION ANALYSIS *
                      *****************************

  NA   - Mulliken gross atomic population
  ZA   - Total nuclear charge
  QA   - Mulliken gross atomic charge
  VA   - Mayer's total valence
  BVA  - Mayer's bonded valence
  FA   - Mayer's free valence

  ATOM       NA         ZA         QA         VA         BVA        FA
  0 Au    18.9258    19.0000     0.0742     1.8242     1.7710     0.0532
  1 Au    18.9787    19.0000     0.0213     1.8378     1.8349     0.0029
  2 Au    18.8333    19.0000     0.1667     1.5367     1.5237     0.0131
  3 Au    18.7781    19.0000     0.2219     1.3372     1.2547     0.0825
  4 Au    18.7128    19.0000     0.2872     1.4065     1.4032     0.0033
  5 Au    18.9008    19.0000     0.0992     1.8579     1.8305     0.0273
  6 Au    18.8069    19.0000     0.1931     1.4208     1.4110     0.0098
  7 Au    18.8704    19.0000     0.1296     1.5296     1.4596     0.0699
  8 Au    18.8606    19.0000     0.1394     1.7734     1.7524     0.0210
  9 Au    18.8779    19.0000     0.1221     1.6473     1.6040     0.0433
 10 Mn    26.4547    25.0000    -1.4547     8.3547     4.6104     3.7443

  Mayer bond orders larger than 0.100000
B(  0-Au,  1-Au) :   0.1567 B(  0-Au,  2-Au) :   0.3490 B(  0-Au,  3-Au) :   0.1481 
B(  0-Au,  4-Au) :   0.4443 B(  0-Au, 10-Mn) :   0.4480 B(  1-Au,  4-Au) :   0.3212 
B(  1-Au,  5-Au) :   0.1878 B(  1-Au,  8-Au) :   0.5138 B(  1-Au, 10-Mn) :   0.4221 
B(  2-Au,  7-Au) :   0.2683 B(  2-Au, 10-Mn) :   0.6279 B(  3-Au,  5-Au) :   0.2099 
B(  3-Au, 10-Mn) :   0.6594 B(  4-Au,  5-Au) :   0.3119 B(  4-Au,  6-Au) :   0.1054 
B(  5-Au,  9-Au) :   0.3632 B(  5-Au, 10-Mn) :   0.5113 B(  6-Au,  7-Au) :   0.3862 
B(  6-Au,  8-Au) :   0.2548 B(  6-Au,  9-Au) :   0.3209 B(  6-Au, 10-Mn) :   0.1380 
B(  7-Au, 10-Mn) :   0.5220 B(  8-Au, 10-Mn) :   0.6091 B(  9-Au, 10-Mn) :   0.5997 


-------
TIMINGS
-------

Total SCF time: 0 days 0 hours 1 min 39 sec 

Total time                  ....      99.828 sec
Sum of individual times     ....      98.599 sec  ( 98.8%)

Fock matrix formation       ....      93.333 sec  ( 93.5%)
  Split-RI-J                ....      17.468 sec  ( 18.7% of F)
  XC integration            ....      75.492 sec  ( 80.9% of F)
    Basis function eval.    ....       3.219 sec  (  4.3% of XC)
    Density eval.           ....      23.400 sec  ( 31.0% of XC)
    XC-Functional eval.     ....       2.069 sec  (  2.7% of XC)
    XC-Potential eval.      ....      18.413 sec  ( 24.4% of XC)
Diagonalization             ....       2.809 sec  (  2.8%)
Density matrix formation    ....       0.148 sec  (  0.1%)
Population analysis         ....       0.154 sec  (  0.2%)
Initial guess               ....       0.231 sec  (  0.2%)
Orbital Transformation      ....       0.000 sec  (  0.0%)
Orbital Orthonormalization  ....       0.198 sec  (  0.2%)
DIIS solution               ....       0.000 sec  (  0.0%)
Grid generation             ....       1.924 sec  (  1.9%)

Maximum memory used throughout the entire SCF-calculation: 63.7 MB

-------------------------   --------------------
FINAL SINGLE POINT ENERGY     -2509.428449059003
-------------------------   --------------------


                            ***************************************
                            *     ORCA property calculations      *
                            ***************************************

                                    ---------------------
                                    Active property flags
                                    ---------------------
   (+) Dipole Moment


------------------------------------------------------------------------------
                       ORCA ELECTRIC PROPERTIES CALCULATION
------------------------------------------------------------------------------

Dipole Moment Calculation                       ... on
Quadrupole Moment Calculation                   ... off
Polarizability Calculation                      ... off
GBWName                                         ... scan_job2.gbw
Electron density                                ... scan_job2.scfp
The origin for moment calculation is the CENTER OF MASS  = (13.555595, 15.432085 12.787167)

-------------
DIPOLE MOMENT
-------------
                                X             Y             Z
Electronic contribution:    -15.01724     -14.43653      -2.23949
Nuclear contribution   :     14.95069      14.53085       2.12157
                        -----------------------------------------
Total Dipole Moment    :     -0.06655       0.09432      -0.11792
                        -----------------------------------------
Magnitude (a.u.)       :      0.16501
Magnitude (Debye)      :      0.41943



--------------------
Rotational spectrum 
--------------------
 
Rotational constants in cm-1:     0.002294     0.001428     0.001256 
Rotational constants in MHz :    68.782754    42.796420    37.655536 

 Dipole components along the rotational axes: 
x,y,z [a.u.] :    -0.103938    -0.031706     0.124180 
x,y,z [Debye]:    -0.264190    -0.080591     0.315639 

 

Timings for individual modules:

Sum of individual times         ...      110.020 sec (=   1.834 min)
GTO integral calculation        ...        9.940 sec (=   0.166 min)   9.0 %
SCF iterations                  ...      100.079 sec (=   1.668 min)  91.0 %



                             ****ORCA TERMINATED NORMALLY****
TOTAL RUN TIME: 0 days 0 hours 22 minutes 54 seconds 345 msec
