
                                 *****************
                                 * O   R   C   A *
                                 *****************

                                            #,                                       
                                            ###                                      
                                            ####                                     
                                            #####                                    
                                            ######                                   
                                           ########,                                 
                                     ,,################,,,,,                         
                               ,,#################################,,                 
                          ,,##########################################,,             
                       ,#########################################, ''#####,          
                    ,#############################################,,   '####,        
                  ,##################################################,,,,####,       
                ,###########''''           ''''###############################       
              ,#####''   ,,,,##########,,,,          '''####'''          '####       
            ,##' ,,,,###########################,,,                        '##       
           ' ,,###''''                  '''############,,,                           
         ,,##''                                '''############,,,,        ,,,,,,###''
      ,#''                                            '''#######################'''  
     '                                                          ''''####''''         
             ,#######,   #######,   ,#######,      ##                                
            ,#'     '#,  ##    ##  ,#'     '#,    #''#        ######   ,####,        
            ##       ##  ##   ,#'  ##            #'  '#       #        #'  '#        
            ##       ##  #######   ##           ,######,      #####,   #    #        
            '#,     ,#'  ##    ##  '#,     ,#' ,#      #,         ##   #,  ,#        
             '#######'   ##     ##  '#######'  #'      '#     #####' # '####'        



                  #######################################################
                  #                        -***-                        #
                  #          Department of theory and spectroscopy      #
                  #    Directorship and core code : Frank Neese         #
                  #        Max Planck Institute fuer Kohlenforschung    #
                  #                Kaiser Wilhelm Platz 1               #
                  #                 D-45470 Muelheim/Ruhr               #
                  #                      Germany                        #
                  #                                                     #
                  #                  All rights reserved                #
                  #                        -***-                        #
                  #######################################################


                         Program Version 5.0.3 -  RELEASE  -


 With contributions from (in alphabetic order):
   Daniel Aravena         : Magnetic Suceptibility
   Michael Atanasov       : Ab Initio Ligand Field Theory (pilot matlab implementation)
   Alexander A. Auer      : GIAO ZORA, VPT2 properties, NMR spectrum
   Ute Becker             : Parallelization
   Giovanni Bistoni       : ED, misc. LED, open-shell LED, HFLD
   Martin Brehm           : Molecular dynamics
   Dmytro Bykov           : SCF Hessian
   Vijay G. Chilkuri      : MRCI spin determinant printing, contributions to CSF-ICE
   Dipayan Datta          : RHF DLPNO-CCSD density
   Achintya Kumar Dutta   : EOM-CC, STEOM-CC
   Dmitry Ganyushin       : Spin-Orbit,Spin-Spin,Magnetic field MRCI
   Miquel Garcia          : C-PCM and meta-GGA Hessian, CC/C-PCM, Gaussian charge scheme
   Yang Guo               : DLPNO-NEVPT2, F12-NEVPT2, CIM, IAO-localization
   Andreas Hansen         : Spin unrestricted coupled pair/coupled cluster methods
   Benjamin Helmich-Paris : MC-RPA, TRAH-SCF, COSX integrals
   Lee Huntington         : MR-EOM, pCC
   Robert Izsak           : Overlap fitted RIJCOSX, COSX-SCS-MP3, EOM
   Marcus Kettner         : VPT2
   Christian Kollmar      : KDIIS, OOCD, Brueckner-CCSD(T), CCSD density, CASPT2, CASPT2-K
   Simone Kossmann        : Meta GGA functionals, TD-DFT gradient, OOMP2, MP2 Hessian
   Martin Krupicka        : Initial AUTO-CI
   Lucas Lang             : DCDCAS
   Marvin Lechner         : AUTO-CI (C++ implementation), FIC-MRCC
   Dagmar Lenk            : GEPOL surface, SMD
   Dimitrios Liakos       : Extrapolation schemes; Compound Job, initial MDCI parallelization
   Dimitrios Manganas     : Further ROCIS development; embedding schemes
   Dimitrios Pantazis     : SARC Basis sets
   Anastasios Papadopoulos: AUTO-CI, single reference methods and gradients
   Taras Petrenko         : DFT Hessian,TD-DFT gradient, ASA, ECA, R-Raman, ABS, FL, XAS/XES, NRVS
   Peter Pinski           : DLPNO-MP2, DLPNO-MP2 Gradient
   Christoph Reimann      : Effective Core Potentials
   Marius Retegan         : Local ZFS, SOC
   Christoph Riplinger    : Optimizer, TS searches, QM/MM, DLPNO-CCSD(T), (RO)-DLPNO pert. Triples
   Tobias Risthaus        : Range-separated hybrids, TD-DFT gradient, RPA, STAB
   Michael Roemelt        : Original ROCIS implementation
   Masaaki Saitow         : Open-shell DLPNO-CCSD energy and density
   Barbara Sandhoefer     : DKH picture change effects
   Avijit Sen             : IP-ROCIS
   Kantharuban Sivalingam : CASSCF convergence, NEVPT2, FIC-MRCI
   Bernardo de Souza      : ESD, SOC TD-DFT
   Georgi Stoychev        : AutoAux, RI-MP2 NMR, DLPNO-MP2 response
   Willem Van den Heuvel  : Paramagnetic NMR
   Boris Wezisla          : Elementary symmetry handling
   Frank Wennmohs         : Technical directorship


 We gratefully acknowledge several colleagues who have allowed us to
 interface, adapt or use parts of their codes:
   Stefan Grimme, W. Hujo, H. Kruse, P. Pracht,  : VdW corrections, initial TS optimization,
                  C. Bannwarth, S. Ehlert          DFT functionals, gCP, sTDA/sTD-DF
   Ed Valeev, F. Pavosevic, A. Kumar             : LibInt (2-el integral package), F12 methods
   Garnet Chan, S. Sharma, J. Yang, R. Olivares  : DMRG
   Ulf Ekstrom                                   : XCFun DFT Library
   Mihaly Kallay                                 : mrcc  (arbitrary order and MRCC methods)
   Jiri Pittner, Ondrej Demel                    : Mk-CCSD
   Frank Weinhold                                : gennbo (NPA and NBO analysis)
   Christopher J. Cramer and Donald G. Truhlar   : smd solvation model
   Lars Goerigk                                  : TD-DFT with DH, B97 family of functionals
   V. Asgeirsson, H. Jonsson                     : NEB implementation
   FAccTs GmbH                                   : IRC, NEB, NEB-TS, DLPNO-Multilevel, CI-OPT
                                                   MM, QMMM, 2- and 3-layer-ONIOM, Crystal-QMMM,
                                                   LR-CPCM, SF, NACMEs, symmetry and pop. for TD-DFT,
                                                   nearIR, NL-DFT gradient (VV10), updates on ESD,
                                                   ML-optimized integration grids
   S Lehtola, MJT Oliveira, MAL Marques          : LibXC Library
   Liviu Ungur et al                             : ANISO software


 Your calculation uses the libint2 library for the computation of 2-el integrals
 For citations please refer to: http://libint.valeyev.net

 Your ORCA version has been built with support for libXC version: 5.1.0
 For citations please refer to: https://tddft.org/programs/libxc/

 This ORCA versions uses:
   CBLAS   interface :  Fast vector & matrix operations
   LAPACKE interface :  Fast linear algebra routines
   SCALAPACK package :  Parallel linear algebra routines
   Shared memory     :  Shared parallel matrices
   BLAS/LAPACK       :  OpenBLAS 0.3.15  USE64BITINT DYNAMIC_ARCH NO_AFFINITY Haswell SINGLE_THREADED
        Core in use  :  Haswell
   Copyright (c) 2011-2014, The OpenBLAS Project




***************************************
The coordinates will be read from file: 5.xyz
***************************************


================================================================================

cite the ECPs for Au [Def2-ECP] as follows:
Ce-Yb(ecp-28): M. Dolg, H. Stoll, H.Preuss, J. Chem. Phys., 1989, 90, 1730-1734.
Y-Cd(ecp-28), Hf-Hg(ecp-46): D. Andrae,U. Haeussermann, M. Dolg, H. Stoll, H. Preuss, Theor. Chim. Acta, 1990, 77, 123-141.
In-Sb(ecp-28), Tl-Bi(ecp-46): B. Metz, H. Stoll, M. Dolg, J. Chem. Phys., 2000, 113, 2563-2569.
Te-Xe(ecp-28), Po-Rn(ecp-46): K. A. Peterson, D. Figgen, E. Goll, H. Stoll, M. Dolg, J. Chem. Phys., 2003, 119, 11113-11123.
Rb(ecp-28), Cs(ecp-46): T. Leininger, A. Nicklass, W. Kuechle, H. Stoll, M. Dolg, A. Bergner, Chem. Phys. Lett., 1996, 255, 274-280.
Sr(ecp-28), Ba(ecp-46): M. Kaupp, P. V. Schleyer, H. Stoll and H. Preuss, J. Chem. Phys., 1991, 94, 1360-1366.
La(ecp-46): M. Dolg, H. Stoll, A. Savin, H. Preuss, Theor. Chim. Acta, 1989, 75, 173-194.
Lu(ecp-28): X. Cao, M. Dolg, J. Chem. Phys., 2001, 115, 7348-7355.

ECP parameters for Au [Def2-ECP] have been obtained from:
TURBOMOLE (7.0.2)

----- Orbital basis set information -----
Your calculation utilizes the basis: def2-TZVP
   F. Weigend and R. Ahlrichs, Phys. Chem. Chem. Phys. 7, 3297 (2005).

----- AuxJ basis set information -----
Your calculation utilizes the auxiliary basis: def2/J
   F. Weigend, Phys. Chem. Chem. Phys. 8, 1057 (2006).

================================================================================
                                        WARNINGS
                       Please study these warnings very carefully!
================================================================================


WARNING: your system is open-shell and RHF/RKS was chosen
  ===> : WILL SWITCH to UHF/UKS


WARNING: Geometry Optimization
  ===> : Switching off AutoStart
         For restart on a previous wavefunction, please use MOREAD

INFO   : the flag for use of the SHARK integral package has been found!

================================================================================
                                       INPUT FILE
================================================================================
NAME = pbe.inp
|  1> %pal nprocs 1 end 
|  2> 
|  3> !PBE def2-TZVP OPT UNO
|  4> !SLOWCONV KDIIS 
|  5> 
|  6> %geom maxiter 300 end
|  7> 
|  8> *xyzfile 0 5 5.xyz                           ****END OF INPUT****
================================================================================

                       *****************************
                       * Geometry Optimization Run *
                       *****************************

Geometry optimization settings:
Update method            Update   .... BFGS
Choice of coordinates    CoordSys .... Z-matrix Internals
Initial Hessian          InHess   .... Almoef's Model

Convergence Tolerances:
Energy Change            TolE     ....  5.0000e-06 Eh
Max. Gradient            TolMAXG  ....  3.0000e-04 Eh/bohr
RMS Gradient             TolRMSG  ....  1.0000e-04 Eh/bohr
Max. Displacement        TolMAXD  ....  4.0000e-03 bohr
RMS Displacement         TolRMSD  ....  2.0000e-03 bohr
Strict Convergence                ....  False
------------------------------------------------------------------------------
                        ORCA OPTIMIZATION COORDINATE SETUP
------------------------------------------------------------------------------

The optimization will be done in new redundant internal coordinates
Making redundant internal coordinates   ...  (new redundants) done
Evaluating the initial hessian          ...  (Almloef) done
Evaluating the coordinates              ...  done
Calculating the B-matrix                .... done
Calculating the G-matrix                .... done
Diagonalizing the G-matrix              .... done
The first mode is                       ....  408
The number of degrees of freedom        ....   39

    -----------------------------------------------------------------
                    Redundant Internal Coordinates


    -----------------------------------------------------------------
         Definition                    Initial Value    Approx d2E/dq
    -----------------------------------------------------------------
      1. B(Au  1,Au  0)                  2.8042         0.006709   
      2. B(Au  2,Au  1)                  2.8509         0.005650   
      3. B(Au  3,Au  1)                  2.8589         0.005488   
      4. B(Au  3,Au  0)                  2.8818         0.005045   
      5. B(Au  7,Au  1)                  2.8586         0.005494   
      6. B(Au  9,Au  7)                  2.8828         0.005027   
      7. B(Au  9,Au  1)                  2.8615         0.005435   
      8. B(Au  9,Au  0)                  2.8741         0.005190   
      9. B(Au 10,Au  9)                  2.8057         0.006672   
     10. B(Au 10,Au  0)                  2.8674         0.005319   
     11. B(Au 11,Au 10)                  2.8816         0.005049   
     12. B(Au 11,Au  9)                  2.8276         0.006157   
     13. B(Au 12,Au  8)                  2.8515         0.005638   
     14. B(Au 12,Au  5)                  2.8586         0.005493   
     15. B(Au 12,Au 10)                  2.8037         0.006722   
     16. B(Au 12,Au 11)                  2.8595         0.005475   
     17. B(Au 13,Au  3)                  2.8278         0.006152   
     18. B(Au 13,Au 12)                  2.8608         0.005449   
     19. B(Au 13,Au 10)                  2.8737         0.005196   
     20. B(Au 13,Au  0)                  2.8055         0.006676   
     21. B(Au 13,Au  5)                  2.8827         0.005027   
     22. B(Cr 14,Au  8)                  2.5417         0.127934   
     23. B(Cr 14,Au  7)                  2.6782         0.077491   
     24. B(Cr 14,Au  4)                  2.5106         0.143423   
     25. B(Cr 14,Au  6)                  2.5109         0.143251   
     26. B(Cr 14,Au 11)                  2.7446         0.060701   
     27. B(Cr 14,Au  5)                  2.6786         0.077372   
     28. B(Cr 14,Au  3)                  2.7445         0.060727   
     29. B(Cr 14,Au  2)                  2.5416         0.127962   
     30. A(Au  3,Au  0,Au 13)           59.6130         0.134696   
     31. A(Au 10,Au  0,Au 13)           60.8599         0.135247   
     32. A(Au  3,Au  0,Au  9)           95.8097         0.132165   
     33. A(Au  9,Au  0,Au 13)          108.3919         0.134991   
     34. A(Au  1,Au  0,Au 10)          111.5312         0.135299   
     35. A(Au  3,Au  0,Au 10)           98.3157         0.132405   
     36. A(Au  9,Au  0,Au 10)           58.5063         0.132685   
     37. A(Au  1,Au  0,Au  9)           60.5072         0.135042   
     38. A(Au  1,Au  0,Au  3)           60.3511         0.134747   
     39. A(Au  1,Au  0,Au 13)          116.7476         0.137743   
     40. A(Au  2,Au  1,Au  9)          114.7823         0.133752   
     41. A(Au  2,Au  1,Au  3)           61.3654         0.133851   
     42. A(Au  2,Au  1,Au  7)           59.5354         0.133861   
     43. A(Au  0,Au  1,Au  7)          109.4436         0.135639   
     44. A(Au  3,Au  1,Au  9)           96.6002         0.133458   
     45. A(Au  0,Au  1,Au  2)          121.0495         0.135936   
     46. A(Au  0,Au  1,Au  3)           61.1692         0.135628   
     47. A(Au  0,Au  1,Au  9)           60.9551         0.135526   
     48. A(Au  3,Au  1,Au  7)           90.6276         0.133567   
     49. A(Au  7,Au  1,Au  9)           60.5267         0.133469   
     50. A(Au  1,Au  2,Cr 14)           89.3316         0.191594   
     51. A(Au  0,Au  3,Au 13)           58.8524         0.133858   
     52. A(Au  1,Au  3,Au 13)          114.2725         0.134722   
     53. A(Au  0,Au  3,Au  1)           58.4796         0.132714   
     54. A(Au  0,Au  3,Cr 14)          109.8479         0.173471   
     55. A(Au 13,Au  3,Cr 14)           98.4579         0.177352   
     56. A(Au  1,Au  3,Cr 14)           85.2964         0.175098   
     57. A(Au 12,Au  5,Au 13)           59.7714         0.132689   
     58. A(Au 12,Au  5,Cr 14)           86.5329         0.179968   
     59. A(Au 13,Au  5,Cr 14)           98.6657         0.178163   
     60. A(Au  9,Au  7,Cr 14)           98.6758         0.178190   
     61. A(Au  1,Au  7,Cr 14)           86.5352         0.180003   
     62. A(Au  1,Au  7,Au  9)           59.7869         0.132689   
     63. A(Au 12,Au  8,Cr 14)           89.3242         0.191538   
     64. A(Au  0,Au  9,Au 11)           99.4282         0.134155   
     65. A(Au  0,Au  9,Au  7)          106.8416         0.132130   
     66. A(Au  0,Au  9,Au  1)           58.5376         0.132900   
     67. A(Au 10,Au  9,Au 11)           61.5293         0.136797   
     68. A(Au  1,Au  9,Au  7)           59.6864         0.132583   
     69. A(Au  7,Au  9,Au 10)          115.9159         0.134653   
     70. A(Au  1,Au  9,Au 10)          111.6630         0.135468   
     71. A(Au  0,Au  9,Au 10)           60.6279         0.134985   
     72. A(Au  7,Au  9,Au 11)           59.7490         0.133829   
     73. A(Au  1,Au  9,Au 11)          101.3796         0.134630   
     74. A(Au  9,Au 10,Au 13)          108.3969         0.134998   
     75. A(Au  0,Au 10,Au 12)          111.5355         0.135318   
     76. A(Au 12,Au 10,Au 13)           60.5014         0.135074   
     77. A(Au 11,Au 10,Au 12)           60.3754         0.134776   
     78. A(Au  9,Au 10,Au 12)          116.7657         0.137757   
     79. A(Au 11,Au 10,Au 13)           95.8224         0.132186   
     80. A(Au  0,Au 10,Au 13)           58.5065         0.132697   
     81. A(Au  9,Au 10,Au 11)           59.6096         0.134700   
     82. A(Au  0,Au 10,Au 11)           98.3254         0.132414   
     83. A(Au  0,Au 10,Au  9)           60.8658         0.135241   
     84. A(Au  9,Au 11,Cr 14)           98.4616         0.177358   
     85. A(Au  9,Au 11,Au 12)          114.2642         0.134705   
     86. A(Au 10,Au 11,Au 12)           58.4636         0.132700   
     87. A(Au 12,Au 11,Cr 14)           85.2880         0.175043   
     88. A(Au  9,Au 11,Au 10)           58.8612         0.133875   
     89. A(Au 10,Au 11,Cr 14)          109.8424         0.173481   
     90. A(Au 11,Au 12,Au 13)           96.6002         0.133459   
     91. A(Au  8,Au 12,Au 13)          114.7782         0.133755   
     92. A(Au  8,Au 12,Au 10)          121.0468         0.135933   
     93. A(Au  5,Au 12,Au 10)          109.4526         0.135657   
     94. A(Au  5,Au 12,Au  8)           59.5255         0.133837   
     95. A(Au  5,Au 12,Au 11)           90.6313         0.133540   
     96. A(Au 10,Au 12,Au 11)           61.1611         0.135622   
     97. A(Au  8,Au 12,Au 11)           61.3713         0.133804   
     98. A(Au  5,Au 12,Au 13)           60.5329         0.133491   
     99. A(Au 10,Au 12,Au 13)           60.9615         0.135571   
    100. A(Au 10,Au 13,Au 12)           58.5372         0.132936   
    101. A(Au  3,Au 13,Au 12)          101.3871         0.134647   
    102. A(Au  0,Au 13,Au 12)          111.6768         0.135500   
    103. A(Au  3,Au 13,Au  5)           59.7516         0.133823   
    104. A(Au  0,Au 13,Au  5)          115.9306         0.134661   
    105. A(Au  0,Au 13,Au  3)           61.5346         0.136795   
    106. A(Au  5,Au 13,Au 10)          106.8479         0.132143   
    107. A(Au  3,Au 13,Au 10)           99.4273         0.134160   
    108. A(Au  0,Au 13,Au 10)           60.6337         0.135004   
    109. A(Au  5,Au 13,Au 12)           59.6957         0.132609   
    110. A(Au  6,Cr 14,Au  7)           65.0329         0.302503   
    111. A(Au  8,Cr 14,Au 11)           66.7885         0.285918   
    112. A(Au  5,Cr 14,Au  7)          149.9954         0.274719   
    113. A(Au  2,Cr 14,Au  6)          104.2697         0.328171   
    114. A(Au  7,Cr 14,Au 11)           63.2671         0.264794   
    115. A(Au  6,Cr 14,Au 11)           69.9659         0.291023   
    116. A(Au  4,Cr 14,Au  7)          132.2697         0.302561   
    117. A(Au  5,Cr 14,Au 11)           97.1137         0.264732   
    118. A(Au  4,Cr 14,Au 11)          162.1229         0.291078   
    119. A(Au  3,Cr 14,Au  7)           97.1060         0.264810   
    120. A(Au  4,Cr 14,Au  5)           65.0356         0.302487   
    121. A(Au  3,Cr 14,Au  4)           70.0049         0.291097   
    122. A(Au  3,Cr 14,Au 11)          101.9305         0.255357   
    123. A(Au  2,Cr 14,Au 11)          125.5679         0.285927   
    124. A(Au  2,Cr 14,Au  7)           65.7244         0.297118   
    125. A(Au  7,Cr 14,Au  8)          119.2347         0.297108   
    126. A(Au  6,Cr 14,Au  8)           67.0411         0.328159   
    127. A(Au  5,Cr 14,Au  6)          132.2605         0.302429   
    128. A(Au  3,Cr 14,Au  5)           63.2680         0.264749   
    129. A(Au  5,Cr 14,Au  8)           65.7145         0.297036   
    130. A(Au  4,Cr 14,Au  8)          104.2238         0.328224   
    131. A(Au  4,Cr 14,Au  6)          122.1283         0.334426   
    132. A(Au  3,Cr 14,Au  8)          125.5635         0.285936   
    133. A(Au  2,Cr 14,Au  8)          162.8928         0.322127   
    134. A(Au  3,Cr 14,Au  6)          162.1104         0.291042   
    135. A(Au  2,Cr 14,Au  5)          119.2109         0.297046   
    136. A(Au  2,Cr 14,Au  4)           67.0470         0.328236   
    137. A(Au  2,Cr 14,Au  3)           66.7677         0.285946   
    138. D(Au  3,Au  1,Au  0,Au  9)    117.1140         0.001502   
    139. D(Au  2,Au  1,Au  0,Au 13)      6.0802         0.001502   
    140. D(Au  7,Au  1,Au  0,Au  9)     37.5453         0.001502   
    141. D(Au  9,Au  1,Au  0,Au 13)    -96.9418         0.001502   
    142. D(Au  2,Au  1,Au  0,Au  9)    103.0220         0.001502   
    143. D(Au  2,Au  1,Au  0,Au 10)     73.2900         0.001502   
    144. D(Au  2,Au  1,Au  0,Au  3)    -14.0920         0.001502   
    145. D(Au  7,Au  1,Au  0,Au  3)    -79.5687         0.001502   
    146. D(Au  3,Au  1,Au  0,Au 10)     87.3820         0.001502   
    147. D(Au  9,Au  1,Au  0,Au  3)   -117.1140         0.001502   
    148. D(Au  7,Au  1,Au  0,Au 10)      7.8133         0.001502   
    149. D(Au  9,Au  1,Au  0,Au 10)    -29.7320         0.001502   
    150. D(Au  7,Au  1,Au  0,Au 13)    -59.3965         0.001502   
    151. D(Au  3,Au  1,Au  0,Au 13)     20.1722         0.001502   
    152. D(Cr 14,Au  2,Au  1,Au  0)    -40.8614         0.001501   
    153. D(Cr 14,Au  2,Au  1,Au  3)    -54.9265         0.001501   
    154. D(Cr 14,Au  2,Au  1,Au  7)     54.6853         0.001501   
    155. D(Cr 14,Au  2,Au  1,Au  9)     28.8825         0.001501   
    156. D(Cr 14,Au  3,Au  1,Au  7)     -4.7892         0.001501   
    157. D(Cr 14,Au  3,Au  1,Au  0)   -116.7499         0.001501   
    158. D(Au 13,Au  3,Au  0,Au  9)    107.9378         0.001501   
    159. D(Au  1,Au  3,Au  0,Au 10)   -110.0957         0.001501   
    160. D(Au  0,Au  3,Au  1,Au  9)     51.5687         0.001501   
    161. D(Cr 14,Au  3,Au  0,Au 10)    -38.9793         0.001501   
    162. D(Au 13,Au  3,Au  0,Au  1)    159.0850         0.001501   
    163. D(Cr 14,Au  3,Au  1,Au  9)    -65.1812         0.001501   
    164. D(Cr 14,Au  3,Au  0,Au  9)     19.9692         0.001501   
    165. D(Au 13,Au  3,Au  1,Au  9)     31.9872         0.001501   
    166. D(Cr 14,Au  3,Au  0,Au 13)    -87.9686         0.001501   
    167. D(Au  1,Au  3,Au  0,Au 13)   -159.0850         0.001501   
    168. D(Au 13,Au  3,Au  1,Au  0)    -19.5814         0.001501   
    169. D(Au  0,Au  3,Au  1,Au  7)    111.9607         0.001501   
    170. D(Cr 14,Au  3,Au  0,Au  1)     71.1164         0.001501   
    171. D(Au 13,Au  3,Au  1,Au  7)     92.3793         0.001501   
    172. D(Au  0,Au  3,Au  1,Au  2)    166.2514         0.001501   
    173. D(Au 13,Au  3,Au  1,Au  2)    146.6699         0.001501   
    174. D(Au 13,Au  3,Au  0,Au 10)     48.9893         0.001501   
    175. D(Au  1,Au  3,Au  0,Au  9)    -51.1472         0.001501   
    176. D(Cr 14,Au  3,Au  1,Au  2)     49.5015         0.001501   
    177. D(Au  9,Au  7,Au  1,Au  0)    -37.7304         0.001501   
    178. D(Cr 14,Au  7,Au  1,Au  2)    -50.8735         0.001501   
    179. D(Au  9,Au  7,Au  1,Au  3)    -97.2295         0.001501   
    180. D(Cr 14,Au  7,Au  1,Au  9)    102.1301         0.001501   
    181. D(Cr 14,Au  7,Au  1,Au  3)      4.9006         0.001501   
    182. D(Au  9,Au  7,Au  1,Au  2)   -153.0036         0.001501   
    183. D(Cr 14,Au  7,Au  1,Au  0)     64.3997         0.001501   
    184. D(Au  0,Au  9,Au  1,Au  7)   -138.6958         0.001501   
    185. D(Au 10,Au  9,Au  0,Au  3)    -96.2087         0.001501   
    186. D(Au 10,Au  9,Au  0,Au 13)    -36.3403         0.001501   
    187. D(Au 11,Au  9,Au  0,Au 10)     49.6105         0.001501   
    188. D(Au  0,Au  9,Au  1,Au  3)    -51.7183         0.001501   
    189. D(Au  7,Au  9,Au  0,Au 10)    110.7089         0.001501   
    190. D(Au  7,Au  9,Au  0,Au  1)    -36.5373         0.001501   
    191. D(Au 11,Au  9,Au  0,Au  3)    -46.5982         0.001501   
    192. D(Au  1,Au  9,Au  0,Au  3)     51.0375         0.001501   
    193. D(Au  7,Au  9,Au  0,Au  3)     14.5002         0.001501   
    194. D(Au  1,Au  9,Au  0,Au 13)    110.9059         0.001501   
    195. D(Au  0,Au  9,Au  1,Au  2)   -113.1678         0.001501   
    196. D(Au 11,Au  9,Au  0,Au  1)    -97.6357         0.001501   
    197. D(Au  7,Au  9,Au  0,Au 13)     74.3686         0.001501   
    198. D(Au 11,Au  9,Au  0,Au 13)     13.2702         0.001501   
    199. D(Au 11,Au  9,Au  7,Au  1)    127.2699         0.001501   
    200. D(Au 10,Au  9,Au  7,Cr 14)     20.2135         0.001501   
    201. D(Au  1,Au  9,Au  7,Cr 14)    -80.8163         0.001501   
    202. D(Au  7,Au  9,Au  1,Au  3)     86.9776         0.001501   
    203. D(Au 11,Au  9,Au  1,Au  2)    -18.9962         0.001501   
    204. D(Au 11,Au  9,Au  1,Au  3)     42.4533         0.001501   
    205. D(Au  7,Au  9,Au  1,Au  2)     25.5281         0.001501   
    206. D(Au 11,Au  9,Au  1,Au  7)    -44.5243         0.001501   
    207. D(Au 10,Au  9,Au  1,Au  0)     30.4850         0.001501   
    208. D(Au 10,Au  9,Au  1,Au  3)    -21.2332         0.001501   
    209. D(Au 10,Au  9,Au  1,Au  2)    -82.6827         0.001501   
    210. D(Au 11,Au  9,Au  7,Cr 14)     46.4536         0.001501   
    211. D(Au  0,Au  9,Au  7,Cr 14)    -44.7835         0.001501   
    212. D(Au  0,Au  9,Au  7,Au  1)     36.0327         0.001501   
    213. D(Au 10,Au  9,Au  7,Au  1)    101.0298         0.001501   
    214. D(Au 10,Au  9,Au  1,Au  7)   -108.2108         0.001501   
    215. D(Au 11,Au  9,Au  1,Au  0)     94.1716         0.001501   
    216. D(Au  1,Au  9,Au  0,Au 10)    147.2462         0.001501   
    217. D(Au  7,Au  9,Au  1,Au  0)    138.6958         0.001501   
    218. D(Au 10,Au  9,Au  0,Au  1)   -147.2462         0.001501   
    219. D(Au 12,Au 10,Au  9,Au  7)      5.4089         0.001502   
    220. D(Au 12,Au 10,Au  9,Au  1)     71.1535         0.001502   
    221. D(Au 13,Au 10,Au  9,Au  7)    -60.1701         0.001502   
    222. D(Au 12,Au 10,Au  0,Au  3)    -17.7870         0.001501   
    223. D(Au 11,Au 10,Au  9,Au  1)     91.4962         0.001502   
    224. D(Au  0,Au 10,Au  9,Au 11)   -121.2690         0.001502   
    225. D(Au  0,Au 10,Au  9,Au  7)    -95.5174         0.001502   
    226. D(Au  0,Au 10,Au  9,Au  1)    -29.7728         0.001502   
    227. D(Au 13,Au 10,Au  9,Au  0)     35.3473         0.001502   
    228. D(Au 13,Au 10,Au  9,Au  1)      5.5745         0.001502   
    229. D(Au 11,Au 10,Au  9,Au  7)     25.7516         0.001502   
    230. D(Au 13,Au 10,Au  9,Au 11)    -85.9217         0.001502   
    231. D(Au 12,Au 10,Au  0,Au 13)     30.3939         0.001501   
    232. D(Au 12,Au 10,Au  0,Au  1)    -79.1162         0.001501   
    233. D(Au 13,Au 10,Au  0,Au  9)   -139.9245         0.001501   
    234. D(Au 13,Au 10,Au  0,Au  3)    -48.1810         0.001501   
    235. D(Au 12,Au 10,Au  9,Au  0)    100.9263         0.001502   
    236. D(Au 13,Au 10,Au  0,Au  1)   -109.5102         0.001501   
    237. D(Au 12,Au 10,Au  9,Au 11)    -20.3428         0.001502   
    238. D(Au 12,Au 10,Au  0,Au  9)   -109.5306         0.001501   
    239. D(Au 11,Au 10,Au  0,Au  9)    -48.1719         0.001501   
    240. D(Au 11,Au 10,Au  0,Au  3)     43.5717         0.001501   
    241. D(Au 11,Au 10,Au  0,Au 13)     91.7526         0.001501   
    242. D(Au 11,Au 10,Au  0,Au  1)    -17.7576         0.001501   
    243. D(Au  9,Au 10,Au  0,Au  3)     91.7436         0.001501   
    244. D(Au  9,Au 10,Au  0,Au  1)     30.4144         0.001501   
    245. D(Au 11,Au 10,Au  9,Au  0)    121.2690         0.001502   
    246. D(Au  9,Au 10,Au  0,Au 13)    139.9245         0.001501   
    247. D(Au 12,Au 11,Au  9,Au  0)    -29.5304         0.001501   
    248. D(Cr 14,Au 11,Au 10,Au 12)     71.1002         0.001501   
    249. D(Au 12,Au 11,Au  9,Au  7)   -133.6028         0.001501   
    250. D(Cr 14,Au 11,Au 10,Au  0)    -38.9938         0.001501   
    251. D(Au 12,Au 11,Au  9,Au 10)     19.5006         0.001501   
    252. D(Cr 14,Au 11,Au 10,Au 13)     19.9565         0.001501   
    253. D(Au 12,Au 11,Au  9,Au  1)    -89.1145         0.001501   
    254. D(Au  9,Au 11,Au 10,Au 13)    107.9365         0.001501   
    255. D(Au 10,Au 11,Au  9,Au  7)   -153.1034         0.001501   
    256. D(Au  9,Au 11,Au 10,Au  0)     48.9862         0.001501   
    257. D(Cr 14,Au 11,Au 10,Au  9)    -87.9799         0.001501   
    258. D(Au 10,Au 11,Au  9,Au  1)   -108.6151         0.001501   
    259. D(Au 10,Au 11,Au  9,Au  0)    -49.0310         0.001501   
    260. D(Cr 14,Au 11,Au  9,Au 10)    108.1231         0.001501   
    261. D(Cr 14,Au 11,Au  9,Au  7)    -44.9803         0.001501   
    262. D(Au  9,Au 11,Au 10,Au 12)    159.0801         0.001501   
    263. D(Cr 14,Au 11,Au  9,Au  1)     -0.4920         0.001501   
    264. D(Cr 14,Au 11,Au  9,Au  0)     59.0921         0.001501   
    265. D(Au 12,Au 11,Au 10,Au 13)    -51.1436         0.001501   
    266. D(Au 12,Au 11,Au 10,Au  9)   -159.0801         0.001501   
    267. D(Au 12,Au 11,Au 10,Au  0)   -110.0939         0.001501   
    268. D(Au 13,Au 12,Au 11,Au 10)     51.5720         0.001501   
    269. D(Au 13,Au 12,Au 11,Au  9)     31.9855         0.001501   
    270. D(Au 13,Au 12,Au 11,Cr 14)    -65.1836         0.001501   
    271. D(Au 10,Au 12,Au 11,Au  9)    -19.5865         0.001501   
    272. D(Au 10,Au 12,Au 11,Cr 14)   -116.7556         0.001501   
    273. D(Au  8,Au 12,Au 11,Au 10)    166.2493         0.001501   
    274. D(Au  8,Au 12,Au 11,Au  9)    146.6628         0.001501   
    275. D(Au  5,Au 12,Au 11,Au 10)    111.9707         0.001501   
    276. D(Au  5,Au 12,Au 11,Au  9)     92.3842         0.001501   
    277. D(Au  5,Au 12,Au 11,Cr 14)     -4.7849         0.001501   
    278. D(Au 10,Au 12,Au  5,Cr 14)     64.3855         0.001501   
    279. D(Au 11,Au 12,Au 10,Au 13)    117.1157         0.001502   
    280. D(Au 11,Au 12,Au 10,Au  9)     20.1795         0.001502   
    281. D(Au  8,Au 12,Au 10,Au 11)    -14.0946         0.001502   
    282. D(Au  5,Au 12,Au 10,Au 13)     37.5518         0.001502   
    283. D(Au  5,Au 12,Au 10,Au 11)    -79.5639         0.001502   
    284. D(Au  5,Au 12,Au 10,Au  0)      7.8378         0.001502   
    285. D(Au 13,Au 12,Au  8,Cr 14)     28.8969         0.001501   
    286. D(Au  5,Au 12,Au 10,Au  9)    -59.3844         0.001502   
    287. D(Au 11,Au 12,Au  8,Cr 14)    -54.9177         0.001501   
    288. D(Au 10,Au 12,Au  8,Cr 14)    -40.8520         0.001501   
    289. D(Au  5,Au 12,Au  8,Cr 14)     54.7023         0.001501   
    290. D(Au 13,Au 12,Au  5,Cr 14)    102.1225         0.001501   
    291. D(Au 11,Au 12,Au  5,Au 13)    -97.2270         0.001501   
    292. D(Au  8,Au 12,Au 10,Au  9)      6.0849         0.001502   
    293. D(Au 11,Au 12,Au  5,Cr 14)      4.8955         0.001501   
    294. D(Au 10,Au 12,Au  5,Au 13)    -37.7370         0.001501   
    295. D(Au  8,Au 12,Au 11,Cr 14)     49.4937         0.001501   
    296. D(Au 11,Au 12,Au 10,Au  0)     87.4016         0.001502   
    297. D(Au 13,Au 12,Au 10,Au  0)    -29.7141         0.001502   
    298. D(Au  8,Au 12,Au  5,Au 13)   -153.0016         0.001501   
    299. D(Au  8,Au 12,Au 10,Au 13)    103.0211         0.001502   
    300. D(Au  8,Au 12,Au  5,Cr 14)    -50.8791         0.001501   
    301. D(Au 13,Au 12,Au 10,Au 11)   -117.1157         0.001502   
    302. D(Au 13,Au 12,Au 10,Au  9)    -96.9362         0.001502   
    303. D(Au  8,Au 12,Au 10,Au  0)     73.3071         0.001502   
    304. D(Au 10,Au 13,Au 12,Au 11)    -51.7115         0.001501   
    305. D(Au 10,Au 13,Au 12,Au  8)   -113.1680         0.001501   
    306. D(Au 10,Au 13,Au 12,Au  5)   -138.6943         0.001501   
    307. D(Au  5,Au 13,Au 12,Au 10)    138.6943         0.001501   
    308. D(Au  5,Au 13,Au 12,Au  8)     25.5262         0.001501   
    309. D(Au  3,Au 13,Au 12,Au 11)     42.4544         0.001501   
    310. D(Au  3,Au 13,Au 12,Au  8)    -19.0021         0.001501   
    311. D(Au  3,Au 13,Au 12,Au  5)    -44.5284         0.001501   
    312. D(Au  0,Au 13,Au 12,Au 11)    -21.2408         0.001501   
    313. D(Au  0,Au 13,Au 12,Au  8)    -82.6974         0.001501   
    314. D(Au  0,Au 13,Au 12,Au  5)   -108.2236         0.001501   
    315. D(Au 12,Au 13,Au 10,Au 11)     51.0551         0.001501   
    316. D(Au 12,Au 13,Au 10,Au  9)    110.9236         0.001501   
    317. D(Au 12,Au 13,Au 10,Au  0)    147.2675         0.001501   
    318. D(Au  5,Au 13,Au 10,Au 12)    -36.5440         0.001501   
    319. D(Au  5,Au 13,Au 10,Au 11)     14.5110         0.001501   
    320. D(Au  5,Au 13,Au 10,Au  0)    110.7235         0.001501   
    321. D(Au  3,Au 13,Au 10,Au 12)    -97.6451         0.001501   
    322. D(Au  3,Au 13,Au 10,Au 11)    -46.5900         0.001501   
    323. D(Au  3,Au 13,Au 10,Au  0)     49.6225         0.001501   
    324. D(Au  0,Au 13,Au 10,Au 12)   -147.2675         0.001501   
    325. D(Au  0,Au 13,Au 10,Au 11)    -96.2125         0.001501   
    326. D(Au 12,Au 13,Au  5,Cr 14)    -80.8160         0.001501   
    327. D(Au 10,Au 13,Au  5,Au 12)     36.0352         0.001501   
    328. D(Au 10,Au 13,Au  5,Cr 14)    -44.7807         0.001501   
    329. D(Au  3,Au 13,Au  5,Au 12)    127.2683         0.001501   
    330. D(Au  3,Au 13,Au  5,Cr 14)     46.4524         0.001501   
    331. D(Au  0,Au 13,Au  5,Au 12)    101.0428         0.001501   
    332. D(Au  0,Au 13,Au  5,Cr 14)     20.2269         0.001501   
    333. D(Au 12,Au 13,Au  3,Au  1)    -89.1263         0.001501   
    334. D(Au 12,Au 13,Au  3,Au  0)   -108.6272         0.001501   
    335. D(Au  0,Au 13,Au 10,Au  9)    -36.3440         0.001501   
    336. D(Au 12,Au 13,Au  3,Cr 14)     -0.4951         0.001501   
    337. D(Au 10,Au 13,Au  3,Au  1)    -29.5423         0.001501   
    338. D(Au 10,Au 13,Au  3,Au  0)    -49.0432         0.001501   
    339. D(Au  3,Au 13,Au 10,Au  9)     13.2785         0.001501   
    340. D(Au 10,Au 13,Au  3,Cr 14)     59.0889         0.001501   
    341. D(Au  5,Au 13,Au  3,Au  1)   -133.6227         0.001501   
    342. D(Au  5,Au 13,Au  3,Au  0)   -153.1235         0.001501   
    343. D(Au  5,Au 13,Au 10,Au  9)     74.3795         0.001501   
    344. D(Au  5,Au 13,Au  3,Cr 14)    -44.9914         0.001501   
    345. D(Au  0,Au 13,Au  3,Au  1)     19.5009         0.001501   
    346. D(Au  0,Au 13,Au  3,Cr 14)    108.1321         0.001501   
    347. D(Au 12,Au 13,Au  0,Au 10)    -29.7568         0.001502   
    348. D(Au 12,Au 13,Au  0,Au  9)      5.5893         0.001502   
    349. D(Au 12,Au 13,Au  0,Au  3)     91.4999         0.001502   
    350. D(Au 12,Au 13,Au  0,Au  1)     71.1704         0.001502   
    351. D(Au  0,Au 13,Au 12,Au 10)     30.4706         0.001501   
    352. D(Au 10,Au 13,Au  0,Au  9)     35.3461         0.001502   
    353. D(Au 10,Au 13,Au  0,Au  3)    121.2567         0.001502   
    354. D(Au 10,Au 13,Au  0,Au  1)    100.9272         0.001502   
    355. D(Au  3,Au 13,Au 12,Au 10)     94.1659         0.001501   
    356. D(Au  5,Au 13,Au  0,Au 10)    -95.5200         0.001502   
    357. D(Au  5,Au 13,Au  0,Au  9)    -60.1739         0.001502   
    358. D(Au  5,Au 13,Au  0,Au  3)     25.7367         0.001502   
    359. D(Au  5,Au 13,Au 12,Au 11)     86.9828         0.001501   
    360. D(Au  5,Au 13,Au  0,Au  1)      5.4072         0.001502   
    361. D(Au  3,Au 13,Au  0,Au 10)   -121.2567         0.001502   
    362. D(Au  3,Au 13,Au  0,Au  9)    -85.9106         0.001502   
    363. D(Au  3,Au 13,Au  0,Au  1)    -20.3295         0.001502   
    364. D(Au 11,Cr 14,Au  3,Au 13)    -44.6359         0.001518   
    365. D(Au 11,Cr 14,Au  3,Au  1)     69.2406         0.001518   
    366. D(Au 11,Cr 14,Au  3,Au  0)     15.2131         0.001518   
    367. D(Au  8,Cr 14,Au  3,Au  1)    139.1118         0.001518   
    368. D(Au  8,Cr 14,Au  3,Au  0)     85.0843         0.001518   
    369. D(Au  7,Cr 14,Au  3,Au 13)   -108.7244         0.001518   
    370. D(Au  7,Cr 14,Au  3,Au  0)    -48.8755         0.001518   
    371. D(Au  6,Cr 14,Au  3,Au 13)   -105.6052         0.001518   
    372. D(Au  6,Cr 14,Au  3,Au  1)      8.2713         0.001518   
    373. D(Au  6,Cr 14,Au  3,Au  0)    -45.7562         0.001518   
    374. D(Au  5,Cr 14,Au  3,Au 13)     47.3873         0.001518   
    375. D(Au  5,Cr 14,Au  3,Au  1)    161.2638         0.001518   
    376. D(Au  5,Cr 14,Au  3,Au  0)    107.2363         0.001518   
    377. D(Au  4,Cr 14,Au  3,Au 13)    118.7480         0.001518   
    378. D(Au  4,Cr 14,Au  3,Au  1)   -127.3755         0.001518   
    379. D(Au  4,Cr 14,Au  3,Au  0)    178.5970         0.001518   
    380. D(Au  2,Cr 14,Au  3,Au 13)   -168.4341         0.001518   
    381. D(Au  2,Cr 14,Au  3,Au  1)    -54.5577         0.001518   
    382. D(Au  2,Cr 14,Au  3,Au  0)   -108.5852         0.001518   
    383. D(Au  7,Cr 14,Au  3,Au  1)      5.1520         0.001518   
    384. D(Au 11,Cr 14,Au  2,Au  1)    -33.7433         0.001564   
    385. D(Au  8,Cr 14,Au  2,Au  1)   -166.2927         0.001564   
    386. D(Au  7,Cr 14,Au  2,Au  1)    -55.4400         0.001564   
    387. D(Au  8,Cr 14,Au  3,Au 13)     25.2353         0.001518   
    388. D(Au  6,Cr 14,Au  2,Au  1)   -109.1063         0.001564   
    389. D(Au  5,Cr 14,Au  2,Au  1)     91.3038         0.001564   
    390. D(Au  4,Cr 14,Au  2,Au  1)    131.6701         0.001564   
    391. D(Au  2,Cr 14,Au  5,Au 13)    -84.2823         0.001526   
    392. D(Au  3,Cr 14,Au  2,Au  1)     54.5149         0.001564   
    393. D(Au  8,Cr 14,Au 11,Au 12)    -54.5552         0.001518   
    394. D(Au  8,Cr 14,Au 11,Au 10)   -108.5625         0.001518   
    395. D(Au  8,Cr 14,Au 11,Au  9)   -168.4222         0.001518   
    396. D(Au  7,Cr 14,Au 11,Au 12)    161.2518         0.001518   
    397. D(Au  7,Cr 14,Au 11,Au 10)    107.2446         0.001518   
    398. D(Au  7,Cr 14,Au 11,Au  9)     47.3849         0.001518   
    399. D(Au  6,Cr 14,Au 11,Au 12)   -127.3744         0.001518   
    400. D(Au  6,Cr 14,Au 11,Au  9)    118.7586         0.001518   
    401. D(Au  5,Cr 14,Au 11,Au 12)      5.1468         0.001518   
    402. D(Au  5,Cr 14,Au 11,Au 10)    -48.8605         0.001518   
    403. D(Au  4,Cr 14,Au 11,Au 12)      8.1472         0.001518   
    404. D(Au  4,Cr 14,Au 11,Au 10)    -45.8600         0.001518   
    405. D(Au  4,Cr 14,Au 11,Au  9)   -105.7197         0.001518   
    406. D(Au  3,Cr 14,Au 11,Au 10)     15.2303         0.001518   
    407. D(Au  3,Cr 14,Au 11,Au  9)    -44.6294         0.001518   
    408. D(Au  2,Cr 14,Au 11,Au 12)    139.0830         0.001518   
    409. D(Au  2,Cr 14,Au 11,Au 10)     85.0758         0.001518   
    410. D(Au  2,Cr 14,Au 11,Au  9)     25.2161         0.001518   
    411. D(Au 11,Cr 14,Au  8,Au 12)     54.5136         0.001564   
    412. D(Au  7,Cr 14,Au  8,Au 12)     91.2971         0.001564   
    413. D(Au  5,Cr 14,Au  8,Au 12)    -55.4441         0.001564   
    414. D(Au  4,Cr 14,Au  8,Au 12)   -109.1416         0.001564   
    415. D(Au  3,Cr 14,Au  8,Au 12)    -33.7618         0.001564   
    416. D(Au  2,Cr 14,Au  8,Au 12)   -166.1808         0.001564   
    417. D(Au 11,Cr 14,Au  7,Au  9)    -46.2392         0.001526   
    418. D(Au 11,Cr 14,Au  7,Au  1)   -104.9597         0.001526   
    419. D(Au  8,Cr 14,Au  7,Au  9)    -84.2774         0.001526   
    420. D(Au  8,Cr 14,Au  7,Au  1)   -142.9979         0.001526   
    421. D(Au  6,Cr 14,Au  7,Au  9)   -125.3676         0.001526   
    422. D(Au  6,Cr 14,Au  7,Au  1)    175.9119         0.001526   
    423. D(Au  6,Cr 14,Au  8,Au 12)    131.6194         0.001564   
    424. D(Au  5,Cr 14,Au  7,Au  9)      7.2528         0.001526   
    425. D(Au  5,Cr 14,Au  7,Au  1)    -51.4676         0.001526   
    426. D(Au  4,Cr 14,Au  7,Au  9)    122.9447         0.001526   
    427. D(Au  4,Cr 14,Au  7,Au  1)     64.2242         0.001526   
    428. D(Au  3,Cr 14,Au  7,Au  9)     53.5759         0.001526   
    429. D(Au  3,Cr 14,Au  7,Au  1)     -5.1446         0.001526   
    430. D(Au  2,Cr 14,Au  7,Au  9)    114.0844         0.001526   
    431. D(Au  3,Cr 14,Au 11,Au 12)     69.2375         0.001518   
    432. D(Au  2,Cr 14,Au  7,Au  1)     55.3639         0.001526   
    433. D(Au 11,Cr 14,Au  5,Au 12)     -5.1403         0.001526   
    434. D(Au 11,Cr 14,Au  5,Au 13)     53.5655         0.001526   
    435. D(Au  5,Cr 14,Au 11,Au  9)   -108.7202         0.001518   
    436. D(Au  8,Cr 14,Au  5,Au 12)     55.3839         0.001526   
    437. D(Au  8,Cr 14,Au  5,Au 13)    114.0897         0.001526   
    438. D(Au  7,Cr 14,Au  5,Au 12)    -51.4788         0.001526   
    439. D(Au  6,Cr 14,Au 11,Au 10)    178.6183         0.001518   
    440. D(Au  7,Cr 14,Au  5,Au 13)      7.2270         0.001526   
    441. D(Au  6,Cr 14,Au  5,Au 12)     64.1841         0.001526   
    442. D(Au  6,Cr 14,Au  5,Au 13)    122.8899         0.001526   
    443. D(Au  4,Cr 14,Au  5,Au 12)    175.8752         0.001526   
    444. D(Au  4,Cr 14,Au  5,Au 13)   -125.4189         0.001526   
    445. D(Au  3,Cr 14,Au  5,Au 12)   -104.9517         0.001526   
    446. D(Au  3,Cr 14,Au  5,Au 13)    -46.2459         0.001526   
    447. D(Au  2,Cr 14,Au  5,Au 12)   -142.9881         0.001526   
    -----------------------------------------------------------------

Number of atoms                         .... 15
Number of degrees of freedom            .... 447

         *************************************************************
         *                GEOMETRY OPTIMIZATION CYCLE   1            *
         *************************************************************
---------------------------------
CARTESIAN COORDINATES (ANGSTROEM)
---------------------------------
  Au     8.986371    4.933286    6.256554
  Au    10.059194    7.179713    7.547337
  Au     8.590227    8.557264    9.565347
  Au     7.756631    5.912232    8.671965
  Au     6.157684    7.632014   10.571715
  Au     4.923761    6.145981    8.554150
  Au     5.989453   10.609827    7.344154
  Au     8.506128    9.487535    6.888959
  Au     4.119642    8.540057    7.267020
  Au     9.016090    7.465897    4.898133
  Au     6.918207    5.667659    4.411192
  Au     6.369168    8.307127    5.428598
  Au     4.494302    6.168883    5.728050
  Au     6.324457    4.282678    6.858170
  Cr     6.482075    8.290653    8.170874

----------------------------
CARTESIAN COORDINATES (A.U.)
----------------------------
  NO LB      ZA    FRAG     MASS         X           Y           Z
   0 Au   19.0000*   0   196.966   16.981780    9.322560   11.823174
   1 Au   19.0000*   0   196.966   19.009122   13.567692   14.262399
   2 Au   19.0000*   0   196.966   16.233176   16.170885   18.075887
   3 Au   19.0000*   0   196.966   14.657909   11.172499   16.387639
   4 Au   19.0000*   0   196.966   11.636335   14.422417   19.977645
   5 Au   19.0000*   0   196.966    9.304560   11.614221   16.165001
   6 Au   19.0000*   0   196.966   11.318425   20.049667   13.878439
   7 Au   19.0000*   0   196.966   16.074253   17.928842   13.018246
   8 Au   19.0000*   0   196.966    7.784995   16.138368   13.732677
   9 Au   19.0000*   0   196.966   17.037942   14.108500    9.256131
  10 Au   19.0000*   0   196.966   13.073516   10.710324    8.335945
  11 Au   19.0000*   0   196.966   12.035984   15.698195   10.258564
  12 Au   19.0000*   0   196.966    8.492999   11.657500   10.824445
  13 Au   19.0000*   0   196.966   11.951492    8.093089   12.960063
  14 Cr   24.0000    0    52.000   12.249347   15.667064   15.440714
* core charge reduced due to ECP

--------------------------------
INTERNAL COORDINATES (ANGSTROEM)
--------------------------------
 Au     0   0   0     0.000000000000     0.00000000     0.00000000
 Au     1   0   0     2.804193940740     0.00000000     0.00000000
 Au     2   1   0     2.850943436346   121.04946939     0.00000000
 Au     2   1   3     2.858862585983    61.16923883    14.09203645
 Au     3   2   1     2.790363425121   122.97349896     6.67482473
 Au     5   3   2     2.793103120506   107.51909886   331.72855281
 Au     3   2   1     3.988827137121   100.97795855   283.17968078
 Au     7   3   2     2.792919169368    45.28801943   336.51228451
 Au     7   3   2     2.790356803435    94.04924984    87.29859299
 Au     2   1   3     2.861510952674    60.95511613   256.97802094
 Au    10   2   1     2.805687951426   111.66295652    30.48503885
 Au    10   2   1     2.827588469674   101.37957222    94.17158723
 Au    11  10   2     2.803685809817   116.76569656    71.15348578
 Au     1   2   3     2.805533697073   116.74763136     6.08015847
 Cr     5   3   2     2.510591807145    57.00799311   297.08281289

---------------------------
INTERNAL COORDINATES (A.U.)
---------------------------
 Au     0   0   0     0.000000000000     0.00000000     0.00000000
 Au     1   0   0     5.299158574399     0.00000000     0.00000000
 Au     2   1   0     5.387502317994   121.04946939     0.00000000
 Au     2   1   3     5.402467342022    61.16923883    14.09203645
 Au     3   2   1     5.273022687589   122.97349896     6.67482473
 Au     5   3   2     5.278199961557   107.51909886   331.72855281
 Au     3   2   1     7.537790884712   100.97795855   283.17968078
 Au     7   3   2     5.277852344285    45.28801943   336.51228451
 Au     7   3   2     5.273010174417    94.04924984    87.29859299
 Au     2   1   3     5.407472029770    60.95511613   256.97802094
 Au    10   2   1     5.301981845438   111.66295652    30.48503885
 Au    10   2   1     5.343367827117   101.37957222    94.17158723
 Au    11  10   2     5.298198346116   116.76569656    71.15348578
 Au     1   2   3     5.301690346955   116.74763136     6.08015847
 Cr     5   3   2     4.744330949571    57.00799311   297.08281289

---------------------
BASIS SET INFORMATION
---------------------
There are 2 groups of distinct atoms

 Group   1 Type Au  : 8s7p6d1f contracted to 6s4p3d1f pattern {311111/4111/411/1}
 Group   2 Type Cr  : 17s11p7d1f contracted to 6s4p4d1f pattern {842111/6311/4111/1}

Atom   0Au   basis set group =>   1
Atom   1Au   basis set group =>   1
Atom   2Au   basis set group =>   1
Atom   3Au   basis set group =>   1
Atom   4Au   basis set group =>   1
Atom   5Au   basis set group =>   1
Atom   6Au   basis set group =>   1
Atom   7Au   basis set group =>   1
Atom   8Au   basis set group =>   1
Atom   9Au   basis set group =>   1
Atom  10Au   basis set group =>   1
Atom  11Au   basis set group =>   1
Atom  12Au   basis set group =>   1
Atom  13Au   basis set group =>   1
Atom  14Cr   basis set group =>   2
---------------------------------
AUXILIARY/J BASIS SET INFORMATION
---------------------------------
There are 2 groups of distinct atoms

 Group   1 Type Au  : 11s5p5d3f3g contracted to 8s5p5d2f3g pattern {41111111/11111/11111/21/111}
 Group   2 Type Cr  : 19s5p5d3f3g contracted to 8s5p5d2f3g pattern {121111111/11111/11111/21/111}

Atom   0Au   basis set group =>   1
Atom   1Au   basis set group =>   1
Atom   2Au   basis set group =>   1
Atom   3Au   basis set group =>   1
Atom   4Au   basis set group =>   1
Atom   5Au   basis set group =>   1
Atom   6Au   basis set group =>   1
Atom   7Au   basis set group =>   1
Atom   8Au   basis set group =>   1
Atom   9Au   basis set group =>   1
Atom  10Au   basis set group =>   1
Atom  11Au   basis set group =>   1
Atom  12Au   basis set group =>   1
Atom  13Au   basis set group =>   1
Atom  14Cr   basis set group =>   2
-------------------------
ECP PARAMETER INFORMATION
-------------------------

 Group 1, Type Au ECP Def2-ECP (replacing 60 core electrons, lmax=3)

Atom   0Au   ECP group =>   1
Atom   1Au   ECP group =>   1
Atom   2Au   ECP group =>   1
Atom   3Au   ECP group =>   1
Atom   4Au   ECP group =>   1
Atom   5Au   ECP group =>   1
Atom   6Au   ECP group =>   1
Atom   7Au   ECP group =>   1
Atom   8Au   ECP group =>   1
Atom   9Au   ECP group =>   1
Atom  10Au   ECP group =>   1
Atom  11Au   ECP group =>   1
Atom  12Au   ECP group =>   1
Atom  13Au   ECP group =>   1

------------------------------------------------------------------------------
                           ORCA GTO INTEGRAL CALCULATION
                           -- RI-GTO INTEGRALS CHOSEN --
------------------------------------------------------------------------------
------------------------------------------------------------------------------
                   ___                                                        
                  /   \      - P O W E R E D   B Y -                         
                 /     \                                                     
                 |  |  |   _    _      __       _____    __    __             
                 |  |  |  | |  | |    /  \     |  _  \  |  |  /  |          
                  \  \/   | |  | |   /    \    | | | |  |  | /  /          
                 / \  \   | |__| |  /  /\  \   | |_| |  |  |/  /          
                |  |  |   |  __  | /  /__\  \  |    /   |      \           
                |  |  |   | |  | | |   __   |  |    \   |  |\   \          
                \     /   | |  | | |  |  |  |  | |\  \  |  | \   \       
                 \___/    |_|  |_| |__|  |__|  |_| \__\ |__|  \__/        
                                                                              
                      - O R C A' S   B I G   F R I E N D -                    
                                      &                                       
                       - I N T E G R A L  F E E D E R -                       
                                                                              
 v1 FN, 2020, v2 2021                                                         
------------------------------------------------------------------------------


Reading SHARK input file pbe.SHARKINP.tmp ... ok
----------------------
SHARK INTEGRAL PACKAGE
----------------------

Number of atoms                             ...     15
Number of basis functions                   ...    605
Number of shells                            ...    211
Maximum angular momentum                    ...      3
Integral batch strategy                     ... SHARK/LIBINT Hybrid
RI-J (if used) integral strategy            ... SPLIT-RIJ (Revised 2003 algorithm where possible)
Printlevel                                  ...      1
Contraction scheme used                     ... SEGMENTED contraction
Coulomb Range Separation                    ... NOT USED
Exchange Range Separation                   ... NOT USED
Finite Nucleus Model                        ... NOT USED
Auxiliary Coulomb fitting basis             ... AVAILABLE
   # of basis functions in Aux-J            ...   1335
   # of shells in Aux-J                     ...    345
   Maximum angular momentum in Aux-J        ...      4
Auxiliary J/K fitting basis                 ... NOT available
Auxiliary Correlation fitting basis         ... NOT available
Auxiliary 'external' fitting basis          ... NOT available
Integral threshold                          ...     2.500000e-11
Primitive cut-off                           ...     2.500000e-12
Primitive pair pre-selection threshold      ...     2.500000e-12

Calculating pre-screening integrals         ... done (  0.3 sec) Dimension = 211
Organizing shell pair data                  ... done (  0.3 sec)
Shell pair information
Total number of shell pairs                 ...     22366
Shell pairs after pre-screening             ...     17931
Total number of primitive shell pairs       ...     59609
Primitive shell pairs kept                  ...     34464
          la=0 lb=0:   2800 shell pairs
          la=1 lb=0:   4094 shell pairs
          la=1 lb=1:   1540 shell pairs
          la=2 lb=0:   3560 shell pairs
          la=2 lb=1:   2506 shell pairs
          la=2 lb=2:   1035 shell pairs
          la=3 lb=0:    939 shell pairs
          la=3 lb=1:    720 shell pairs
          la=3 lb=2:    636 shell pairs
          la=3 lb=3:    101 shell pairs

Calculating one electron integrals          ... done (  0.1 sec)
Calculating ECP integrals                   ... done (  9.3 sec)
Calculating RI/J V-Matrix + Cholesky decomp.... done (  0.1 sec)
Calculating Nuclear repulsion               ... done (  0.0 sec) ENN=   5525.781588085427 Eh

SHARK setup successfully completed in  10.7 seconds

Maximum memory used throughout the entire GTOINT-calculation: 510.3 MB
-------------------------------------------------------------------------------
                                 ORCA SCF
-------------------------------------------------------------------------------

------------
SCF SETTINGS
------------
Hamiltonian:
 Density Functional     Method          .... DFT(GTOs)
 Exchange Functional    Exchange        .... PBE
   PBE kappa parameter   XKappa         ....  0.804000
   PBE mue parameter    XMuePBE         ....  0.219520
 Correlation Functional Correlation     .... PBE
   PBE beta parameter  CBetaPBE         ....  0.066725
 LDA part of GGA corr.  LDAOpt          .... PW91-LDA
 Gradients option       PostSCFGGA      .... off
   Density functional embedding theory  .... OFF
   NL short-range parameter             ....  6.400000
 RI-approximation to the Coulomb term is turned on
   Number of AuxJ basis functions       .... 1335


General Settings:
 Integral files         IntName         .... pbe
 Hartree-Fock type      HFTyp           .... UHF
 Total Charge           Charge          ....    0
 Multiplicity           Mult            ....    5
 Number of Electrons    NEL             ....  290
 Basis Dimension        Dim             ....  605
 Nuclear Repulsion      ENuc            ....   5525.7815880854 Eh

Convergence Acceleration:
 DIIS                   CNVDIIS         .... off
 Trust-Rad. Augm. Hess. CNVTRAH         .... auto
   Auto Start mean grad. ratio tolernc. ....  1.125000
   Auto Start start iteration           ....    20
   Auto Start num. interpolation iter.  ....    10
   Max. Number of Micro iterations      ....    16
   Max. Number of Macro iterations      .... Maxiter - #DIIS iter
   Number of Davidson start vectors     ....     2
   Converg. threshold I  (grad. norm)   ....   1.000e-05
   Converg. threshold II (energy diff.) ....   1.000e-08
   Grad. Scal. Fac. for Micro threshold ....   0.100
   Minimum threshold for Micro iter.    ....   0.010
   NR start threshold (gradient norm)   ....   0.001
   Initial trust radius                 ....   0.400
   Minimum AH scaling param. (alpha)    ....   1.000
   Maximum AH scaling param. (alpha)    .... 1000.000
   Orbital update algorithm             .... Taylor
   White noise on init. David. guess    .... on
   Maximum white noise                  ....   0.010
   Quad. conv. algorithm                .... NR
 SOSCF                  CNVSOSCF        .... off
 Level Shifting         CNVShift        .... off
 Zerner damping         CNVZerner       .... off
 Static damping         CNVDamp         .... off
 Fernandez-Rico         CNVRico         .... off

SCF Procedure:
 Maximum # iterations   MaxIter         ....   125
 SCF integral mode      SCFMode         .... Direct
   Integral package                     .... SHARK and LIBINT hybrid scheme
 Reset frequency        DirectResetFreq ....    20
 Integral Threshold     Thresh          ....  2.500e-11 Eh
 Primitive CutOff       TCut            ....  2.500e-12 Eh

Convergence Tolerance:
 Convergence Check Mode ConvCheckMode   .... Total+1el-Energy
 Convergence forced     ConvForced      .... 0
 Energy Change          TolE            ....  1.000e-08 Eh
 1-El. energy change                    ....  1.000e-05 Eh


Diagonalization of the overlap matrix:
Smallest eigenvalue                        ... 8.397e-05
Time for diagonalization                   ...    0.047 sec
Threshold for overlap eigenvalues          ... 1.000e-08
Number of eigenvalues below threshold      ... 0
Time for construction of square roots      ...    0.024 sec
Total time needed                          ...    0.072 sec

Time for model grid setup =    1.250 sec

------------------------------
INITIAL GUESS: MODEL POTENTIAL
------------------------------
Loading Hartree-Fock densities                     ... done
  calling /media/Programs/ORCA501/orca pbe_atom79.inp > pbe_atom79.out in order to generate an atomic fitting density for atom 0 (Au with ECP) on-the-fly... 
    atom 0 (Au), assumed electronic state with S=2: 1s2 2s2 2p6 3s2 3p6 4s2 3d10 4p6 5s2 4d10 5p6 6s1 4f14 5d10           ... done
Calculating cut-offs                               ... done
Initializing the effective Hamiltonian             ... done
Setting up the integral package (SHARK)            ... done
Starting the Coulomb interaction                   ... done (   2.2 sec)
Reading the grid                                   ... done
Mapping shells                                     ... done
Starting the XC term evaluation                    ... done (   2.5 sec)
  promolecular density results
     # of electrons  =   1130.013714553
     EX              =  -5168.722024470
     EC              =    -68.836863467
     EX+EC           =  -5237.558887937
Transforming the Hamiltonian                       ... done (   0.0 sec)
Diagonalizing the Hamiltonian                      ... done (   0.0 sec)
Back transforming the eigenvectors                 ... done (   0.0 sec)
Now organizing SCF variables                       ... done
                      ------------------
                      INITIAL GUESS DONE (   6.5 sec)
                      ------------------
-------------------
DFT GRID GENERATION
-------------------

General Integration Accuracy     IntAcc      ... 4.388
Radial Grid Type                 RadialGrid  ... OptM3 with GC (2021)
Angular Grid (max. ang.)         AngularGrid ... 4 (Lebedev-302)
Angular grid pruning method      GridPruning ... 4 (adaptive)
Weight generation scheme         WeightScheme... Becke
Basis function cutoff            BFCut       ... 1.0000e-11
Integration weight cutoff        WCut        ... 1.0000e-14
Angular grids for H and He will be reduced by one unit
Partially contracted basis set               ... off
Rotationally invariant grid construction     ... off

Total number of grid points                  ...   165825
Total number of batches                      ...     2598
Average number of points per batch           ...       63
Average number of grid points per atom       ...    11055
Time for grid setup =    2.985 sec

--------------
SCF ITERATIONS
--------------
ITER       Energy         Delta-E        Max-DP      RMS-DP      [F,P]   Gradient Norm
               ***  Starting incremental Fock matrix formation  ***
                             ****Resetting KDIIS****
                             ****Turning on KDIIS(Cayley)****
  0  -2943.8661279496   0.000000000000 0.71462257  0.00221565  0.4277985   0.215258932
  1  -2944.9621668652  -1.096038915556 1.02446870  0.00220942  0.3827090   0.165801140
  2  -2945.4240158506  -0.461848985451 0.10023311  0.00118392  0.3022736   0.124842872
  3  -2945.6561100525  -0.232094201883 0.13574779  0.00152319  0.1761066   0.071764128
  4  -2945.7508703531  -0.094760300607 0.22966626  0.00069293  0.0236569   0.012889084
  5  -2945.7696104279  -0.018740074792 0.16016844  0.00076136  0.0214018   0.008093837
  6  -2945.7838781928  -0.014267764891 0.07474250  0.00039980  0.0313842   0.006511591
  7  -2945.7928373839  -0.008959191092 0.12011074  0.00036696  0.0104880   0.005730150
  8  -2945.7889222251   0.003915158738 0.10384461  0.00031440  0.0125218   0.009193951
  9  -2945.8005492582  -0.011627033049 0.03214530  0.00019247  0.0071719   0.002497048
 10  -2945.8018261007  -0.001276842524 0.02204569  0.00012473  0.0051024   0.003112513
 11  -2945.8031855787  -0.001359478037 0.03758063  0.00013256  0.0037470   0.001163737
 12  -2945.8029794203   0.000206158486 0.03459434  0.00008597  0.0046090   0.002839729
 13  -2945.8038161302  -0.000836709894 0.03014531  0.00010415  0.0035817   0.001074737
 14  -2945.8043179761  -0.000501845908 0.03949115  0.00009079  0.0019007   0.000877497
 15  -2945.8041296382   0.000188337889 0.05469056  0.00011531  0.0027524   0.001489165
 16  -2945.8044858093  -0.000356171137 0.02418197  0.00005477  0.0016840   0.000686649
 17  -2945.8044998207  -0.000014011381 0.00618704  0.00004612  0.0017928   0.000437153
 18  -2945.8046199991  -0.000120178437 0.01688445  0.00003835  0.0011978   0.000515411
 19  -2945.8045844242   0.000035574903 0.00351265  0.00002216  0.0018336   0.000564039
               *** Restarting incremental Fock matrix formation ***
                             ****Resetting KDIIS****
 20  -2945.8046521220  -0.000067697746 0.00031296  0.00000277  0.0013003   0.000271853
 21  -2945.8046596857  -0.000007563705 0.00105700  0.00000404  0.0012665   0.000197637

 WARNING: the maximum gradient error descreased on average only by a factor   1.1
          during the last 20 iterations

                      *** Initiating the TRAH-SCF procedure ***

                    *** KDIIS BlockDiag ( 0.097 sec) ***

TRAH GRID
---------

General Integration Accuracy     IntAcc      ... 3.467
Radial Grid Type                 RadialGrid  ... OptM3 with GC (2021)
Angular Grid (max. ang.)         AngularGrid ... 1 (Lebedev-50)
Angular grid pruning method      GridPruning ... 4 (adaptive)
Weight generation scheme         WeightScheme... Becke
Basis function cutoff            BFCut       ... 1.0000e-11
Integration weight cutoff        WCut        ... 1.0000e-14
Angular grids for H and He will be reduced by one unit
Partially contracted basis set               ... off
Rotationally invariant grid construction     ... off

Total number of grid points                  ...    71513
Total number of batches                      ...     1125
Average number of points per batch           ...       63
Average number of grid points per atom       ...     4768

 --------------------------------------------------------------------------------------------
   Iter.        energy            ||Error||_2        Shift      TRadius  Mac/Mic        Rej.
 --------------------------------------------------------------------------------------------
    0      -2945.804668760747     3.004900e-03                     0.400 (TRAH MAcro)   No
WARNING : small    HOMO - LUMO gap : (op = alpha) 0.011995
    0     dE    -1.718827e-06     7.284866e-03    -1.7188e-06      0.001 (TRAH MIcro)
    0     dE    -8.009379e-05     1.190130e-02    -7.9978e-05      0.038 (TRAH MIcro)
    0     dE    -1.487396e-04     6.439104e-03    -1.4795e-04      0.073 (TRAH MIcro)
    0     dE    -1.664194e-04     2.573830e-03    -1.6529e-04      0.083 (TRAH MIcro)
    0     dE    -1.695854e-04     1.379400e-03    -1.6840e-04      0.084 (TRAH MIcro)
    0     dE    -1.707226e-04     9.177600e-04    -1.6951e-04      0.085 (TRAH MIcro)
    0     dE    -1.711231e-04     4.141430e-04    -1.6991e-04      0.085 (TRAH MIcro)
    0     dE    -1.711895e-04     2.292749e-04    -1.6997e-04      0.085 (TRAH MIcro)
    1      -2945.804839563923     4.243156e-04                           (NR   MAcro)
WARNING : small    HOMO - LUMO gap : (op = alpha) 0.011895
    1     dE    -8.568668e-08     2.850977e-04                           (NR   MIcro)
    1     dE    -1.345975e-07     2.197255e-04                           (NR   MIcro)
    1     dE    -1.747135e-07     1.140018e-04                           (NR   MIcro)
    1     dE    -1.820481e-07     7.651372e-05                           (NR   MIcro)
    1     dE    -1.848677e-07     4.492220e-05                           (NR   MIcro)
    1     dE    -1.858683e-07     2.585902e-05                           (NR   MIcro)
    1     dE    -1.862072e-07     1.068878e-05                           (NR   MIcro)
    1     dE    -1.862617e-07     6.766456e-06                           (NR   MIcro)
    1     dE    -1.862893e-07     4.096398e-06                           (NR   MIcro)
    1     dE    -1.862971e-07     1.535968e-06                           (NR   MIcro)
    2      -2945.804839750205     1.581082e-06                           (NR   MAcro)
WARNING : small    HOMO - LUMO gap : (op = alpha) 0.011919
    2     dE    -1.436745e-12     8.951079e-07                           (NR   MIcro)
    3      -2945.804839750206     8.953449e-07                           (NR   MAcro)
WARNING : small    HOMO - LUMO gap : (op = alpha) 0.011919

               *****************************************************
               *                     SUCCESS                       *
               *           SCF CONVERGED AFTER  45 CYCLES          *
               *****************************************************


----------------
TOTAL SCF ENERGY
----------------

Total Energy       :        -2945.80483975 Eh          -80159.42492 eV

Components:
Nuclear Repulsion  :         5525.78158809 Eh          150364.16138 eV
Electronic Energy  :        -8471.58642784 Eh         -230523.58629 eV
One Electron Energy:       -15818.10923621 Eh         -430432.63509 eV
Two Electron Energy:         7346.52280837 Eh          199909.04880 eV

Virial components:
Potential Energy   :        -4629.55346150 Eh         -125976.55421 eV
Kinetic Energy     :         1683.74862175 Eh           45817.12930 eV
Virial Ratio       :            2.74955145


DFT components:
N(Alpha)           :      147.000045016182 electrons
N(Beta)            :      143.000023527354 electrons
N(Total)           :      290.000068543536 electrons
E(X)               :     -216.139919858878 Eh       
E(C)               :      -12.621134282741 Eh       
E(XC)              :     -228.761054141619 Eh       
DFET-embed. en.    :        0.000000000000 Eh       

---------------
SCF CONVERGENCE
---------------

  Last Energy change         ...   -9.0949e-13  Tolerance :   1.0000e-08
  Last Orbital Gradient      ...    8.9534e-07  Tolerance :   1.0000e-05
  Last Orbital Rotation      ...    2.3402e-06

             **** THE GBW FILE WAS UPDATED (pbe.gbw) ****
             **** DENSITY pbe.scfp WAS UPDATED ****
             **** ENERGY FILE WAS UPDATED (pbe.en.tmp) ****
----------------------
UHF SPIN CONTAMINATION
----------------------

Warning: in a DFT calculation there is little theoretical justification to 
         calculate <S**2> as in Hartree-Fock theory. We will do it anyways
         but you should keep in mind that the values have only limited relevance

Expectation value of <S**2>     :     6.236531
Ideal value S*(S+1) for S=2.0   :     6.000000
Deviation                       :     0.236531

             **** THE GBW FILE WAS UPDATED (pbe.gbw) ****
             **** DENSITY pbe.scfp WAS UPDATED ****
----------------
ORBITAL ENERGIES
----------------
                 SPIN UP ORBITALS
  NO   OCC          E(Eh)            E(eV) 
   0   1.0000    -214.491299     -5836.6050 
   1   1.0000     -24.294934      -661.0988 
   2   1.0000     -20.661500      -562.2280 
   3   1.0000     -20.659031      -562.1608 
   4   1.0000     -20.653853      -562.0199 
   5   1.0000      -4.038028      -109.8803 
   6   1.0000      -4.037991      -109.8793 
   7   1.0000      -4.034821      -109.7931 
   8   1.0000      -4.034818      -109.7930 
   9   1.0000      -4.034589      -109.7867 
  10   1.0000      -4.034573      -109.7863 
  11   1.0000      -4.028577      -109.6231 
  12   1.0000      -4.028568      -109.6229 
  13   1.0000      -4.020866      -109.4133 
  14   1.0000      -4.020853      -109.4130 
  15   1.0000      -4.015516      -109.2677 
  16   1.0000      -4.015496      -109.2672 
  17   1.0000      -4.014816      -109.2487 
  18   1.0000      -4.014746      -109.2468 
  19   1.0000      -2.799916       -76.1896 
  20   1.0000      -2.256073       -61.3909 
  21   1.0000      -2.256002       -61.3889 
  22   1.0000      -2.251358       -61.2626 
  23   1.0000      -2.251235       -61.2592 
  24   1.0000      -2.250323       -61.2344 
  25   1.0000      -2.250317       -61.2342 
  26   1.0000      -2.249944       -61.2241 
  27   1.0000      -2.249686       -61.2171 
  28   1.0000      -2.248680       -61.1897 
  29   1.0000      -2.248402       -61.1821 
  30   1.0000      -2.247152       -61.1481 
  31   1.0000      -2.247112       -61.1470 
  32   1.0000      -2.246449       -61.1290 
  33   1.0000      -2.246350       -61.1263 
  34   1.0000      -2.245446       -61.1017 
  35   1.0000      -2.245405       -61.1006 
  36   1.0000      -2.245054       -61.0910 
  37   1.0000      -2.245034       -61.0905 
  38   1.0000      -2.244796       -61.0840 
  39   1.0000      -2.244771       -61.0833 
  40   1.0000      -2.239415       -60.9376 
  41   1.0000      -2.239391       -60.9369 
  42   1.0000      -2.237051       -60.8732 
  43   1.0000      -2.237036       -60.8728 
  44   1.0000      -2.235997       -60.8446 
  45   1.0000      -2.235937       -60.8429 
  46   1.0000      -2.234391       -60.8009 
  47   1.0000      -2.234368       -60.8002 
  48   1.0000      -2.231895       -60.7329 
  49   1.0000      -2.231604       -60.7250 
  50   1.0000      -2.231310       -60.7170 
  51   1.0000      -2.230750       -60.7018 
  52   1.0000      -2.229944       -60.6798 
  53   1.0000      -2.229696       -60.6731 
  54   1.0000      -2.229424       -60.6657 
  55   1.0000      -2.228644       -60.6445 
  56   1.0000      -2.228160       -60.6313 
  57   1.0000      -2.227997       -60.6269 
  58   1.0000      -2.225922       -60.5704 
  59   1.0000      -2.225147       -60.5493 
  60   1.0000      -2.224164       -60.5226 
  61   1.0000      -2.223596       -60.5071 
  62   1.0000      -1.794526       -48.8315 
  63   1.0000      -1.791720       -48.7552 
  64   1.0000      -1.783710       -48.5372 
  65   1.0000      -0.422817       -11.5054 
  66   1.0000      -0.385441       -10.4884 
  67   1.0000      -0.380848       -10.3634 
  68   1.0000      -0.376639       -10.2489 
  69   1.0000      -0.371709       -10.1147 
  70   1.0000      -0.370985       -10.0950 
  71   1.0000      -0.360628        -9.8132 
  72   1.0000      -0.356669        -9.7055 
  73   1.0000      -0.354913        -9.6577 
  74   1.0000      -0.353660        -9.6236 
  75   1.0000      -0.352683        -9.5970 
  76   1.0000      -0.350901        -9.5485 
  77   1.0000      -0.348760        -9.4903 
  78   1.0000      -0.348088        -9.4720 
  79   1.0000      -0.346308        -9.4235 
  80   1.0000      -0.345089        -9.3903 
  81   1.0000      -0.341170        -9.2837 
  82   1.0000      -0.340969        -9.2782 
  83   1.0000      -0.339744        -9.2449 
  84   1.0000      -0.336787        -9.1645 
  85   1.0000      -0.334758        -9.1092 
  86   1.0000      -0.332413        -9.0454 
  87   1.0000      -0.330744        -9.0000 
  88   1.0000      -0.327603        -8.9145 
  89   1.0000      -0.327297        -8.9062 
  90   1.0000      -0.325956        -8.8697 
  91   1.0000      -0.320315        -8.7162 
  92   1.0000      -0.318309        -8.6616 
  93   1.0000      -0.313591        -8.5333 
  94   1.0000      -0.313419        -8.5286 
  95   1.0000      -0.308680        -8.3996 
  96   1.0000      -0.306886        -8.3508 
  97   1.0000      -0.303956        -8.2711 
  98   1.0000      -0.303378        -8.2553 
  99   1.0000      -0.302194        -8.2231 
 100   1.0000      -0.300872        -8.1871 
 101   1.0000      -0.298774        -8.1300 
 102   1.0000      -0.297152        -8.0859 
 103   1.0000      -0.297004        -8.0819 
 104   1.0000      -0.295508        -8.0412 
 105   1.0000      -0.292268        -7.9530 
 106   1.0000      -0.287645        -7.8272 
 107   1.0000      -0.286003        -7.7825 
 108   1.0000      -0.283482        -7.7139 
 109   1.0000      -0.281479        -7.6594 
 110   1.0000      -0.281149        -7.6504 
 111   1.0000      -0.280303        -7.6274 
 112   1.0000      -0.280196        -7.6245 
 113   1.0000      -0.279409        -7.6031 
 114   1.0000      -0.278290        -7.5727 
 115   1.0000      -0.274205        -7.4615 
 116   1.0000      -0.271561        -7.3895 
 117   1.0000      -0.267162        -7.2699 
 118   1.0000      -0.265632        -7.2282 
 119   1.0000      -0.265527        -7.2254 
 120   1.0000      -0.262666        -7.1475 
 121   1.0000      -0.260670        -7.0932 
 122   1.0000      -0.260595        -7.0911 
 123   1.0000      -0.258403        -7.0315 
 124   1.0000      -0.258043        -7.0217 
 125   1.0000      -0.256968        -6.9925 
 126   1.0000      -0.255442        -6.9509 
 127   1.0000      -0.254824        -6.9341 
 128   1.0000      -0.251431        -6.8418 
 129   1.0000      -0.251370        -6.8401 
 130   1.0000      -0.248937        -6.7739 
 131   1.0000      -0.248750        -6.7688 
 132   1.0000      -0.247806        -6.7431 
 133   1.0000      -0.243984        -6.6391 
 134   1.0000      -0.243756        -6.6329 
 135   1.0000      -0.242257        -6.5921 
 136   1.0000      -0.241387        -6.5685 
 137   1.0000      -0.238974        -6.5028 
 138   1.0000      -0.236287        -6.4297 
 139   1.0000      -0.218715        -5.9515 
 140   1.0000      -0.217342        -5.9142 
 141   1.0000      -0.212796        -5.7905 
 142   1.0000      -0.212423        -5.7803 
 143   1.0000      -0.206664        -5.6236 
 144   1.0000      -0.203347        -5.5334 
 145   1.0000      -0.196268        -5.3407 
 146   1.0000      -0.189497        -5.1565 
 147   0.0000      -0.177578        -4.8321 
 148   0.0000      -0.174218        -4.7407 
 149   0.0000      -0.138089        -3.7576 
 150   0.0000      -0.131537        -3.5793 
 151   0.0000      -0.127879        -3.4798 
 152   0.0000      -0.121072        -3.2945 
 153   0.0000      -0.111666        -3.0386 
 154   0.0000      -0.110255        -3.0002 
 155   0.0000      -0.072309        -1.9676 
 156   0.0000      -0.069715        -1.8971 
 157   0.0000      -0.067871        -1.8469 
 158   0.0000      -0.057552        -1.5661 
 159   0.0000      -0.052694        -1.4339 
 160   0.0000      -0.040910        -1.1132 
 161   0.0000      -0.038475        -1.0469 
 162   0.0000      -0.023857        -0.6492 
 163   0.0000      -0.011909        -0.3241 
 164   0.0000      -0.009842        -0.2678 
 165   0.0000      -0.009719        -0.2645 
 166   0.0000      -0.003477        -0.0946 
 167   0.0000       0.000021         0.0006 
 168   0.0000       0.014066         0.3828 
 169   0.0000       0.025485         0.6935 
 170   0.0000       0.025754         0.7008 
 171   0.0000       0.034386         0.9357 
 172   0.0000       0.035843         0.9753 
 173   0.0000       0.045695         1.2434 
 174   0.0000       0.048653         1.3239 
 175   0.0000       0.057186         1.5561 
 176   0.0000       0.063875         1.7381 
 177   0.0000       0.065838         1.7915 
 178   0.0000       0.066099         1.7986 
 179   0.0000       0.069115         1.8807 
 180   0.0000       0.070907         1.9295 
 181   0.0000       0.072440         1.9712 
 182   0.0000       0.076875         2.0919 
 183   0.0000       0.082414         2.2426 
 184   0.0000       0.084367         2.2957 
 185   0.0000       0.089896         2.4462 
 186   0.0000       0.090251         2.4559 
 187   0.0000       0.105340         2.8665 
 188   0.0000       0.108960         2.9649 
 189   0.0000       0.111220         3.0264 
 190   0.0000       0.115273         3.1367 
 191   0.0000       0.119308         3.2465 
 192   0.0000       0.129954         3.5362 
 193   0.0000       0.131268         3.5720 
 194   0.0000       0.132036         3.5929 
 195   0.0000       0.135613         3.6902 
 196   0.0000       0.136324         3.7096 
 197   0.0000       0.143130         3.8948 
 198   0.0000       0.143865         3.9148 
 199   0.0000       0.149690         4.0733 
 200   0.0000       0.151801         4.1307 
 201   0.0000       0.161677         4.3995 
 202   0.0000       0.163861         4.4589 
 203   0.0000       0.169166         4.6032 
 204   0.0000       0.175047         4.7633 
 205   0.0000       0.190593         5.1863 
 206   0.0000       0.190675         5.1885 
 207   0.0000       0.198447         5.4000 
 208   0.0000       0.202423         5.5082 
 209   0.0000       0.206029         5.6063 
 210   0.0000       0.212596         5.7850 
 211   0.0000       0.216265         5.8849 
 212   0.0000       0.223831         6.0907 
 213   0.0000       0.226546         6.1646 
 214   0.0000       0.232323         6.3218 
 215   0.0000       0.235455         6.4070 
 216   0.0000       0.236965         6.4481 
 217   0.0000       0.240495         6.5442 
 218   0.0000       0.245409         6.6779 
 219   0.0000       0.249648         6.7933 
 220   0.0000       0.265579         7.2268 
 221   0.0000       0.270157         7.3514 
 222   0.0000       0.274773         7.4770 
 223   0.0000       0.276742         7.5305 
 224   0.0000       0.277476         7.5505 
 225   0.0000       0.281557         7.6616 
 226   0.0000       0.282119         7.6768 
 227   0.0000       0.289896         7.8885 
 228   0.0000       0.291741         7.9387 
 229   0.0000       0.294208         8.0058 
 230   0.0000       0.299990         8.1632 
 231   0.0000       0.300900         8.1879 
 232   0.0000       0.302830         8.2404 
 233   0.0000       0.304179         8.2771 
 234   0.0000       0.307061         8.3556 
 235   0.0000       0.316430         8.6105 
 236   0.0000       0.320400         8.7185 
 237   0.0000       0.326512         8.8848 
 238   0.0000       0.329284         8.9603 
 239   0.0000       0.332282         9.0419 
 240   0.0000       0.335980         9.1425 
 241   0.0000       0.338385         9.2079 
 242   0.0000       0.347525         9.4566 
 243   0.0000       0.354589         9.6488 
 244   0.0000       0.355083         9.6623 
 245   0.0000       0.365914         9.9570 
 246   0.0000       0.368881        10.0378 
 247   0.0000       0.370581        10.0840 
 248   0.0000       0.380665        10.3584 
 249   0.0000       0.384855        10.4724 
 250   0.0000       0.393211        10.6998 
 251   0.0000       0.398407        10.8412 
 252   0.0000       0.401455        10.9241 
[...]
 220( 0) :     0.259718 a.u.     7.067 eV
 221( 0) :     0.267650 a.u.     7.283 eV
 222( 0) :     0.276783 a.u.     7.532 eV
 223( 0) :     0.280206 a.u.     7.625 eV
 224( 0) :     0.281885 a.u.     7.670 eV
 225( 0) :     0.285559 a.u.     7.770 eV
 226( 0) :     0.287481 a.u.     7.823 eV
 227( 0) :     0.289812 a.u.     7.886 eV
 228( 0) :     0.293855 a.u.     7.996 eV
 229( 0) :     0.301416 a.u.     8.202 eV
 230( 0) :     0.302819 a.u.     8.240 eV
 231( 0) :     0.304016 a.u.     8.273 eV
 232( 0) :     0.308211 a.u.     8.387 eV
 233( 0) :     0.308758 a.u.     8.402 eV
 234( 0) :     0.312449 a.u.     8.502 eV
 235( 0) :     0.317666 a.u.     8.644 eV
 236( 0) :     0.325202 a.u.     8.849 eV
 237( 0) :     0.326775 a.u.     8.892 eV
 238( 0) :     0.328490 a.u.     8.939 eV
 239( 0) :     0.335026 a.u.     9.117 eV
 240( 0) :     0.342443 a.u.     9.318 eV
 241( 0) :     0.343822 a.u.     9.356 eV
 242( 0) :     0.349960 a.u.     9.523 eV
 243( 0) :     0.351488 a.u.     9.564 eV
 244( 0) :     0.353590 a.u.     9.622 eV
 245( 0) :     0.354196 a.u.     9.638 eV
 246( 0) :     0.370351 a.u.    10.078 eV
 247( 0) :     0.371970 a.u.    10.122 eV
 248( 0) :     0.383887 a.u.    10.446 eV
 249( 0) :     0.384162 a.u.    10.454 eV
 250( 0) :     0.394832 a.u.    10.744 eV
 251( 0) :     0.401067 a.u.    10.914 eV
 252( 0) :     0.401277 a.u.    10.919 eV
 253( 0) :     0.402564 a.u.    10.954 eV
 254( 0) :     0.407730 a.u.    11.095 eV
 255( 0) :     0.413839 a.u.    11.261 eV
 256( 0) :     0.420192 a.u.    11.434 eV
 257( 0) :     0.421325 a.u.    11.465 eV
 258( 0) :     0.426710 a.u.    11.611 eV
 259( 0) :     0.429539 a.u.    11.688 eV
 260( 0) :     0.433533 a.u.    11.797 eV
 261( 0) :     0.436405 a.u.    11.875 eV
 262( 0) :     0.443244 a.u.    12.061 eV
 263( 0) :     0.451236 a.u.    12.279 eV
 264( 0) :     0.452135 a.u.    12.303 eV
 265( 0) :     0.458958 a.u.    12.489 eV
 266( 0) :     0.464766 a.u.    12.647 eV
 267( 0) :     0.468725 a.u.    12.755 eV
 268( 0) :     0.472946 a.u.    12.870 eV
 269( 0) :     0.475093 a.u.    12.928 eV
 270( 0) :     0.479068 a.u.    13.036 eV
 271( 0) :     0.481318 a.u.    13.097 eV
 272( 0) :     0.484411 a.u.    13.181 eV
 273( 0) :     0.490666 a.u.    13.352 eV
 274( 0) :     0.497094 a.u.    13.527 eV
 275( 0) :     0.498380 a.u.    13.562 eV
 276( 0) :     0.499295 a.u.    13.587 eV
 277( 0) :     0.507478 a.u.    13.809 eV
 278( 0) :     0.508969 a.u.    13.850 eV
 279( 0) :     0.511876 a.u.    13.929 eV
 280( 0) :     0.518185 a.u.    14.101 eV
 281( 0) :     0.520726 a.u.    14.170 eV
 282( 0) :     0.523545 a.u.    14.246 eV
 283( 0) :     0.524669 a.u.    14.277 eV
 284( 0) :     0.529243 a.u.    14.401 eV
 285( 0) :     0.531857 a.u.    14.473 eV
 286( 0) :     0.539505 a.u.    14.681 eV
 287( 0) :     0.547495 a.u.    14.898 eV
 288( 0) :     0.549442 a.u.    14.951 eV
 289( 0) :     0.559662 a.u.    15.229 eV
 290( 0) :     0.559957 a.u.    15.237 eV
 291( 0) :     0.562958 a.u.    15.319 eV
 292( 0) :     0.584411 a.u.    15.903 eV
 293( 0) :     0.596915 a.u.    16.243 eV
 294( 0) :     0.605106 a.u.    16.466 eV
 295( 0) :     0.664542 a.u.    18.083 eV
 296( 0) :     0.686781 a.u.    18.688 eV
 297( 0) :     0.705525 a.u.    19.198 eV
 298( 0) :     0.710177 a.u.    19.325 eV
 299( 0) :     0.712488 a.u.    19.388 eV
 300( 0) :     0.721447 a.u.    19.632 eV
 301( 0) :     0.723097 a.u.    19.676 eV
 302( 0) :     0.732459 a.u.    19.931 eV
 303( 0) :     0.736705 a.u.    20.047 eV
 304( 0) :     0.740885 a.u.    20.161 eV
 305( 0) :     0.745089 a.u.    20.275 eV
 306( 0) :     0.754468 a.u.    20.530 eV
 307( 0) :     0.763484 a.u.    20.775 eV
 308( 0) :     0.771776 a.u.    21.001 eV
 309( 0) :     0.782966 a.u.    21.306 eV
 310( 0) :     0.785388 a.u.    21.371 eV
 311( 0) :     0.799424 a.u.    21.753 eV
 312( 0) :     0.803908 a.u.    21.875 eV
 313( 0) :     0.820449 a.u.    22.326 eV
 314( 0) :     0.833182 a.u.    22.672 eV
 315( 0) :     0.837028 a.u.    22.777 eV
 316( 0) :     0.841904 a.u.    22.909 eV
 317( 0) :     0.852914 a.u.    23.209 eV
 318( 0) :     0.859167 a.u.    23.379 eV
 319( 0) :     0.879566 a.u.    23.934 eV
 320( 0) :     0.882428 a.u.    24.012 eV
 321( 0) :     0.886112 a.u.    24.112 eV
 322( 0) :     0.900879 a.u.    24.514 eV
 323( 0) :     0.908087 a.u.    24.710 eV
 324( 0) :     0.917978 a.u.    24.979 eV
 325( 0) :     0.919532 a.u.    25.022 eV
 326( 0) :     0.924824 a.u.    25.166 eV
 327( 0) :     0.935411 a.u.    25.454 eV
 328( 0) :     0.952635 a.u.    25.923 eV
 329( 0) :     0.959065 a.u.    26.097 eV
 330( 0) :     0.974043 a.u.    26.505 eV
 331( 0) :     0.977568 a.u.    26.601 eV
 332( 0) :     1.002147 a.u.    27.270 eV
 333( 0) :     1.026121 a.u.    27.922 eV
 334( 0) :     1.027075 a.u.    27.948 eV
 335( 0) :     1.097731 a.u.    29.871 eV
 336( 0) :     1.174367 a.u.    31.956 eV
 337( 0) :     1.179371 a.u.    32.092 eV
 338( 0) :     1.203925 a.u.    32.760 eV
 339( 0) :     1.225269 a.u.    33.341 eV
 340( 0) :     1.237106 a.u.    33.663 eV
 341( 0) :     1.252593 a.u.    34.085 eV
 342( 0) :     1.260421 a.u.    34.298 eV
 343( 0) :     1.271208 a.u.    34.591 eV
 344( 0) :     1.275277 a.u.    34.702 eV
 345( 0) :     1.292065 a.u.    35.159 eV
 346( 0) :     1.299370 a.u.    35.358 eV
 347( 0) :     1.302436 a.u.    35.441 eV
 348( 0) :     1.306261 a.u.    35.545 eV
 349( 0) :     1.314289 a.u.    35.764 eV
 350( 0) :     1.315168 a.u.    35.788 eV
 351( 0) :     1.323826 a.u.    36.023 eV
 352( 0) :     1.325119 a.u.    36.058 eV
 353( 0) :     1.343700 a.u.    36.564 eV
 354( 0) :     1.344841 a.u.    36.595 eV
 355( 0) :     1.348071 a.u.    36.683 eV
 356( 0) :     1.351703 a.u.    36.782 eV
 357( 0) :     1.352050 a.u.    36.791 eV
 358( 0) :     1.365573 a.u.    37.159 eV
 359( 0) :     1.378634 a.u.    37.515 eV
 360( 0) :     1.379022 a.u.    37.525 eV
 361( 0) :     1.383061 a.u.    37.635 eV
 362( 0) :     1.391149 a.u.    37.855 eV
 363( 0) :     1.399643 a.u.    38.086 eV
 364( 0) :     1.401283 a.u.    38.131 eV
 365( 0) :     1.404297 a.u.    38.213 eV
 366( 0) :     1.408010 a.u.    38.314 eV
 367( 0) :     1.413897 a.u.    38.474 eV
 368( 0) :     1.415909 a.u.    38.529 eV
 369( 0) :     1.425795 a.u.    38.798 eV
 370( 0) :     1.428329 a.u.    38.867 eV
 371( 0) :     1.429734 a.u.    38.905 eV
 372( 0) :     1.435125 a.u.    39.052 eV
 373( 0) :     1.436531 a.u.    39.090 eV
 374( 0) :     1.442292 a.u.    39.247 eV
 375( 0) :     1.445345 a.u.    39.330 eV
 376( 0) :     1.445887 a.u.    39.345 eV
 377( 0) :     1.447088 a.u.    39.377 eV
 378( 0) :     1.449512 a.u.    39.443 eV
 379( 0) :     1.453616 a.u.    39.555 eV
 380( 0) :     1.454253 a.u.    39.572 eV
 381( 0) :     1.460290 a.u.    39.737 eV
 382( 0) :     1.462692 a.u.    39.802 eV
 383( 0) :     1.462912 a.u.    39.808 eV
 384( 0) :     1.466883 a.u.    39.916 eV
 385( 0) :     1.468059 a.u.    39.948 eV
 386( 0) :     1.470746 a.u.    40.021 eV
 387( 0) :     1.475131 a.u.    40.140 eV
 388( 0) :     1.478011 a.u.    40.219 eV
 389( 0) :     1.479341 a.u.    40.255 eV
 390( 0) :     1.480418 a.u.    40.284 eV
 391( 0) :     1.482508 a.u.    40.341 eV
 392( 0) :     1.484587 a.u.    40.398 eV
 393( 0) :     1.487061 a.u.    40.465 eV
 394( 0) :     1.487790 a.u.    40.485 eV
 395( 0) :     1.489182 a.u.    40.523 eV
 396( 0) :     1.491310 a.u.    40.581 eV
 397( 0) :     1.491871 a.u.    40.596 eV
 398( 0) :     1.494600 a.u.    40.670 eV
 399( 0) :     1.495949 a.u.    40.707 eV
 400( 0) :     1.497510 a.u.    40.749 eV
 401( 0) :     1.499135 a.u.    40.794 eV
 402( 0) :     1.499559 a.u.    40.805 eV
 403( 0) :     1.500363 a.u.    40.827 eV
 404( 0) :     1.500708 a.u.    40.836 eV
 405( 0) :     1.506556 a.u.    40.995 eV
 406( 0) :     1.506905 a.u.    41.005 eV
 407( 0) :     1.508632 a.u.    41.052 eV
 408( 0) :     1.510465 a.u.    41.102 eV
 409( 0) :     1.513019 a.u.    41.171 eV
 410( 0) :     1.513175 a.u.    41.176 eV
 411( 0) :     1.515241 a.u.    41.232 eV
 412( 0) :     1.515845 a.u.    41.248 eV
 413( 0) :     1.517162 a.u.    41.284 eV
 414( 0) :     1.519966 a.u.    41.360 eV
 415( 0) :     1.520468 a.u.    41.374 eV
 416( 0) :     1.521939 a.u.    41.414 eV
 417( 0) :     1.523262 a.u.    41.450 eV
 418( 0) :     1.525929 a.u.    41.523 eV
 419( 0) :     1.526553 a.u.    41.540 eV
 420( 0) :     1.527427 a.u.    41.563 eV
 421( 0) :     1.527598 a.u.    41.568 eV
 422( 0) :     1.531533 a.u.    41.675 eV
 423( 0) :     1.532667 a.u.    41.706 eV
 424( 0) :     1.534496 a.u.    41.756 eV
 425( 0) :     1.537715 a.u.    41.843 eV
 426( 0) :     1.538834 a.u.    41.874 eV
 427( 0) :     1.539353 a.u.    41.888 eV
 428( 0) :     1.540163 a.u.    41.910 eV
 429( 0) :     1.543362 a.u.    41.997 eV
 430( 0) :     1.545097 a.u.    42.044 eV
 431( 0) :     1.545996 a.u.    42.069 eV
 432( 0) :     1.547892 a.u.    42.120 eV
 433( 0) :     1.554282 a.u.    42.294 eV
 434( 0) :     1.555595 a.u.    42.330 eV
 435( 0) :     1.558722 a.u.    42.415 eV
 436( 0) :     1.560830 a.u.    42.472 eV
 437( 0) :     1.562964 a.u.    42.530 eV
 438( 0) :     1.565399 a.u.    42.597 eV
 439( 0) :     1.565711 a.u.    42.605 eV
 440( 0) :     1.570032 a.u.    42.723 eV
 441( 0) :     1.570773 a.u.    42.743 eV
 442( 0) :     1.571699 a.u.    42.768 eV
 443( 0) :     1.576433 a.u.    42.897 eV
 444( 0) :     1.580892 a.u.    43.018 eV
 445( 0) :     1.583200 a.u.    43.081 eV
 446( 0) :     1.583560 a.u.    43.091 eV
 447( 0) :     1.586835 a.u.    43.180 eV
 448( 0) :     1.587602 a.u.    43.201 eV
 449( 0) :     1.590217 a.u.    43.272 eV
 450( 0) :     1.591018 a.u.    43.294 eV
 451( 0) :     1.595862 a.u.    43.426 eV
 452( 0) :     1.597421 a.u.    43.468 eV
 453( 0) :     1.599751 a.u.    43.531 eV
 454( 0) :     1.601887 a.u.    43.590 eV
 455( 0) :     1.605666 a.u.    43.692 eV
 456( 0) :     1.610181 a.u.    43.815 eV
 457( 0) :     1.612961 a.u.    43.891 eV
 458( 0) :     1.613331 a.u.    43.901 eV
 459( 0) :     1.615275 a.u.    43.954 eV
 460( 0) :     1.615632 a.u.    43.964 eV
 461( 0) :     1.622022 a.u.    44.137 eV
 462( 0) :     1.622531 a.u.    44.151 eV
 463( 0) :     1.626001 a.u.    44.246 eV
 464( 0) :     1.633077 a.u.    44.438 eV
 465( 0) :     1.635064 a.u.    44.492 eV
 466( 0) :     1.635594 a.u.    44.507 eV
 467( 0) :     1.645877 a.u.    44.787 eV
 468( 0) :     1.651868 a.u.    44.950 eV
 469( 0) :     1.656396 a.u.    45.073 eV
 470( 0) :     1.666103 a.u.    45.337 eV
 471( 0) :     1.668061 a.u.    45.390 eV
 472( 0) :     1.669709 a.u.    45.435 eV
 473( 0) :     1.682719 a.u.    45.789 eV
 474( 0) :     1.687959 a.u.    45.932 eV
 475( 0) :     1.691802 a.u.    46.036 eV
 476( 0) :     1.697791 a.u.    46.199 eV
 477( 0) :     1.701297 a.u.    46.295 eV
 478( 0) :     1.714396 a.u.    46.651 eV
 479( 0) :     1.722712 a.u.    46.877 eV
 480( 0) :     1.727332 a.u.    47.003 eV
 481( 0) :     1.735644 a.u.    47.229 eV
 482( 0) :     1.744883 a.u.    47.481 eV
 483( 0) :     1.748951 a.u.    47.591 eV
 484( 0) :     1.761005 a.u.    47.919 eV
 485( 0) :     1.763135 a.u.    47.977 eV
 486( 0) :     1.766312 a.u.    48.064 eV
 487( 0) :     1.790821 a.u.    48.731 eV
 488( 0) :     1.791733 a.u.    48.756 eV
 489( 0) :     1.798280 a.u.    48.934 eV
 490( 0) :     1.799661 a.u.    48.971 eV
 491( 0) :     1.800959 a.u.    49.007 eV
 492( 0) :     1.812892 a.u.    49.331 eV
 493( 0) :     1.815091 a.u.    49.391 eV
 494( 0) :     1.816921 a.u.    49.441 eV
 495( 0) :     1.833310 a.u.    49.887 eV
 496( 0) :     1.837839 a.u.    50.010 eV
 497( 0) :     1.849241 a.u.    50.320 eV
 498( 0) :     1.853978 a.u.    50.449 eV
 499( 0) :     1.856849 a.u.    50.527 eV
 500( 0) :     1.869314 a.u.    50.867 eV
 501( 0) :     1.885234 a.u.    51.300 eV
 502( 0) :     1.896498 a.u.    51.606 eV
 503( 0) :     1.912313 a.u.    52.037 eV
 504( 0) :     1.914739 a.u.    52.103 eV
 505( 0) :     1.926698 a.u.    52.428 eV
 506( 0) :     1.931189 a.u.    52.550 eV
 507( 0) :     2.159294 a.u.    58.757 eV
 508( 0) :     2.171861 a.u.    59.099 eV
 509( 0) :     2.208390 a.u.    60.093 eV
 510( 0) :     2.234556 a.u.    60.805 eV
 511( 0) :     2.284031 a.u.    62.152 eV
 512( 0) :     2.308091 a.u.    62.806 eV
 513( 0) :     2.329032 a.u.    63.376 eV
 514( 0) :     2.352006 a.u.    64.001 eV
 515( 0) :     2.381450 a.u.    64.803 eV
 516( 0) :     2.395330 a.u.    65.180 eV
 517( 0) :     2.416480 a.u.    65.756 eV
 518( 0) :     2.452917 a.u.    66.747 eV
 519( 0) :     2.460058 a.u.    66.942 eV
 520( 0) :     2.475867 a.u.    67.372 eV
 521( 0) :     2.479401 a.u.    67.468 eV
 522( 0) :     2.510858 a.u.    68.324 eV
 523( 0) :     2.515761 a.u.    68.457 eV
 524( 0) :     2.532236 a.u.    68.906 eV
 525( 0) :     2.564122 a.u.    69.773 eV
 526( 0) :     2.577699 a.u.    70.143 eV
 527( 0) :     2.841772 a.u.    77.329 eV
 528( 0) :     2.842883 a.u.    77.359 eV
 529( 0) :     2.854034 a.u.    77.662 eV
 530( 0) :     2.854565 a.u.    77.677 eV
 531( 0) :     2.856877 a.u.    77.740 eV
 532( 0) :     2.857551 a.u.    77.758 eV
 533( 0) :     2.900492 a.u.    78.926 eV
 534( 0) :     2.908457 a.u.    79.143 eV
 535( 0) :    24.061873 a.u.   654.757 eV
 536( 0) :    24.094368 a.u.   655.641 eV
 537( 0) :    24.293243 a.u.   661.053 eV
 538( 0) :    24.391273 a.u.   663.720 eV
 539( 0) :    24.508545 a.u.   666.911 eV
 540( 0) :    24.614171 a.u.   669.786 eV
 541( 0) :    24.686226 a.u.   671.746 eV
 542( 0) :    24.863555 a.u.   676.572 eV
 543( 0) :    25.111459 a.u.   683.318 eV
 544( 0) :    25.128396 a.u.   683.778 eV
 545( 0) :    25.246591 a.u.   686.995 eV
 546( 0) :    25.397014 a.u.   691.088 eV
 547( 0) :    25.409426 a.u.   691.426 eV
 548( 0) :    25.446808 a.u.   692.443 eV
 549( 0) :    25.466752 a.u.   692.986 eV
 550( 0) :    25.551965 a.u.   695.304 eV
 551( 0) :    25.574056 a.u.   695.905 eV
 552( 0) :    25.752899 a.u.   700.772 eV
 553( 0) :    25.894267 a.u.   704.619 eV
 554( 0) :    25.980597 a.u.   706.968 eV
 555( 0) :    26.015592 a.u.   707.920 eV
 556( 0) :    26.146552 a.u.   711.484 eV
 557( 0) :    26.176114 a.u.   712.288 eV
 558( 0) :    26.373322 a.u.   717.655 eV
 559( 0) :    26.412095 a.u.   718.710 eV
 560( 0) :    26.504069 a.u.   721.212 eV
 561( 0) :    26.662901 a.u.   725.534 eV
 562( 0) :    26.813776 a.u.   729.640 eV
 563( 0) :    26.836543 a.u.   730.259 eV
 564( 0) :    26.901750 a.u.   732.034 eV
 565( 0) :    26.916299 a.u.   732.430 eV
 566( 0) :    27.187759 a.u.   739.817 eV
 567( 0) :    27.197088 a.u.   740.070 eV
 568( 0) :    27.370559 a.u.   744.791 eV
 569( 0) :    27.392041 a.u.   745.375 eV
 570( 0) :    27.577039 a.u.   750.409 eV
 571( 0) :    27.743654 a.u.   754.943 eV
 572( 0) :    27.831134 a.u.   757.324 eV
 573( 0) :    28.004762 a.u.   762.048 eV
 574( 0) :    28.139719 a.u.   765.721 eV
 575( 0) :    28.332490 a.u.   770.966 eV
 576( 0) :    29.411109 a.u.   800.317 eV
 577( 0) :    43.897865 a.u.  1194.522 eV
 578( 0) :    44.007092 a.u.  1197.494 eV
 579( 0) :    44.033204 a.u.  1198.204 eV
 580( 0) :    44.037970 a.u.  1198.334 eV
 581( 0) :    44.102869 a.u.  1200.100 eV
 582( 0) :    44.122615 a.u.  1200.637 eV
 583( 0) :    44.140177 a.u.  1201.115 eV
 584( 0) :    44.155237 a.u.  1201.525 eV
 585( 0) :    44.156487 a.u.  1201.559 eV
 586( 0) :    44.168885 a.u.  1201.896 eV
 587( 0) :    44.170037 a.u.  1201.928 eV
 588( 0) :    44.189647 a.u.  1202.461 eV
 589( 0) :    44.235380 a.u.  1203.706 eV
 590( 0) :    44.255278 a.u.  1204.247 eV
 591( 0) :   205.088327 a.u.  5580.737 eV
 592( 0) :   205.131260 a.u.  5581.905 eV
 593( 0) :   205.141256 a.u.  5582.177 eV
 594( 0) :   205.144488 a.u.  5582.265 eV
 595( 0) :   205.171021 a.u.  5582.987 eV
 596( 0) :   205.182304 a.u.  5583.294 eV
 597( 0) :   205.188156 a.u.  5583.454 eV
 598( 0) :   205.197381 a.u.  5583.705 eV
 599( 0) :   205.200499 a.u.  5583.789 eV
 600( 0) :   205.203804 a.u.  5583.879 eV
 601( 0) :   205.206030 a.u.  5583.940 eV
 602( 0) :   205.210549 a.u.  5584.063 eV
 603( 0) :   205.225449 a.u.  5584.468 eV
 604( 0) :   205.234493 a.u.  5584.714 eV
-------
TIMINGS
-------

Total SCF time: 0 days 0 hours 7 min 53 sec 

Total time                  ....     473.108 sec
Sum of individual times     ....     450.665 sec  ( 95.3%)

Fock matrix formation       ....     442.430 sec  ( 93.5%)
  Split-RI-J                ....     154.167 sec  ( 34.8% of F)
  XC integration            ....     281.064 sec  ( 63.5% of F)
    Basis function eval.    ....      36.341 sec  ( 12.9% of XC)
    Density eval.           ....     114.689 sec  ( 40.8% of XC)
    XC-Functional eval.     ....       5.944 sec  (  2.1% of XC)
    XC-Potential eval.      ....     107.195 sec  ( 38.1% of XC)
Diagonalization             ....       2.322 sec  (  0.5%)
Density matrix formation    ....       0.581 sec  (  0.1%)
Population analysis         ....       1.047 sec  (  0.2%)
Initial guess               ....       0.195 sec  (  0.0%)
Orbital Transformation      ....       1.102 sec  (  0.2%)
Orbital Orthonormalization  ....       0.162 sec  (  0.0%)
DIIS solution               ....       0.000 sec  (  0.0%)
Grid generation             ....       2.988 sec  (  0.6%)

Maximum memory used throughout the entire SCF-calculation: 608.8 MB

-------------------------   --------------------
FINAL SINGLE POINT ENERGY     -2945.821092175263
-------------------------   --------------------

                                *** OPTIMIZATION RUN DONE ***

                            ***************************************
                            *     ORCA property calculations      *
                            ***************************************

                                    ---------------------
                                    Active property flags
                                    ---------------------
   (+) Dipole Moment


------------------------------------------------------------------------------
                       ORCA ELECTRIC PROPERTIES CALCULATION
------------------------------------------------------------------------------

Dipole Moment Calculation                       ... on
Quadrupole Moment Calculation                   ... off
Polarizability Calculation                      ... off
GBWName                                         ... pbe.gbw
Electron density                                ... pbe.scfp
The origin for moment calculation is the CENTER OF MASS  = (13.234622, 13.663057 13.539518)

-------------
DIPOLE MOMENT
-------------
                                X             Y             Z
Electronic contribution:     17.25479     -35.04152     -33.21275
Nuclear contribution   :    -17.47493      35.49108      33.64006
                        -----------------------------------------
Total Dipole Moment    :     -0.22014       0.44955       0.42732
                        -----------------------------------------
Magnitude (a.u.)       :      0.65815
Magnitude (Debye)      :      1.67288



--------------------
Rotational spectrum 
--------------------
 
Rotational constants in cm-1:     0.001038     0.001028     0.000965 
Rotational constants in MHz :    31.129881    30.818174    28.939542 

 Dipole components along the rotational axes: 
x,y,z [a.u.] :     0.024058     0.657694     0.004255 
x,y,z [Debye]:     0.061151     1.671727     0.010815 

 

Timings for individual modules:

Sum of individual times         ...     9920.204 sec (= 165.337 min)
GTO integral calculation        ...      188.505 sec (=   3.142 min)   1.9 %
SCF iterations                  ...     8013.748 sec (= 133.562 min)  80.8 %
SCF Gradient evaluation         ...     1709.587 sec (=  28.493 min)  17.2 %
Geometry relaxation             ...        8.365 sec (=   0.139 min)   0.1 %
                             ****ORCA TERMINATED NORMALLY****
TOTAL RUN TIME: 0 days 2 hours 45 minutes 32 seconds 350 msec
