
                                 *****************
                                 * O   R   C   A *
                                 *****************

                                            #,                                       
                                            ###                                      
                                            ####                                     
                                            #####                                    
                                            ######                                   
                                           ########,                                 
                                     ,,################,,,,,                         
                               ,,#################################,,                 
                          ,,##########################################,,             
                       ,#########################################, ''#####,          
                    ,#############################################,,   '####,        
                  ,##################################################,,,,####,       
                ,###########''''           ''''###############################       
              ,#####''   ,,,,##########,,,,          '''####'''          '####       
            ,##' ,,,,###########################,,,                        '##       
           ' ,,###''''                  '''############,,,                           
         ,,##''                                '''############,,,,        ,,,,,,###''
      ,#''                                            '''#######################'''  
     '                                                          ''''####''''         
             ,#######,   #######,   ,#######,      ##                                
            ,#'     '#,  ##    ##  ,#'     '#,    #''#        ######   ,####,        
            ##       ##  ##   ,#'  ##            #'  '#       #        #'  '#        
            ##       ##  #######   ##           ,######,      #####,   #    #        
            '#,     ,#'  ##    ##  '#,     ,#' ,#      #,         ##   #,  ,#        
             '#######'   ##     ##  '#######'  #'      '#     #####' # '####'        



                  #######################################################
                  #                        -***-                        #
                  #          Department of theory and spectroscopy      #
                  #    Directorship and core code : Frank Neese         #
                  #        Max Planck Institute fuer Kohlenforschung    #
                  #                Kaiser Wilhelm Platz 1               #
                  #                 D-45470 Muelheim/Ruhr               #
                  #                      Germany                        #
                  #                                                     #
                  #                  All rights reserved                #
                  #                        -***-                        #
                  #######################################################


                         Program Version 5.0.3 -  RELEASE  -


 With contributions from (in alphabetic order):
   Daniel Aravena         : Magnetic Suceptibility
   Michael Atanasov       : Ab Initio Ligand Field Theory (pilot matlab implementation)
   Alexander A. Auer      : GIAO ZORA, VPT2 properties, NMR spectrum
   Ute Becker             : Parallelization
   Giovanni Bistoni       : ED, misc. LED, open-shell LED, HFLD
   Martin Brehm           : Molecular dynamics
   Dmytro Bykov           : SCF Hessian
   Vijay G. Chilkuri      : MRCI spin determinant printing, contributions to CSF-ICE
   Dipayan Datta          : RHF DLPNO-CCSD density
   Achintya Kumar Dutta   : EOM-CC, STEOM-CC
   Dmitry Ganyushin       : Spin-Orbit,Spin-Spin,Magnetic field MRCI
   Miquel Garcia          : C-PCM and meta-GGA Hessian, CC/C-PCM, Gaussian charge scheme
   Yang Guo               : DLPNO-NEVPT2, F12-NEVPT2, CIM, IAO-localization
   Andreas Hansen         : Spin unrestricted coupled pair/coupled cluster methods
   Benjamin Helmich-Paris : MC-RPA, TRAH-SCF, COSX integrals
   Lee Huntington         : MR-EOM, pCC
   Robert Izsak           : Overlap fitted RIJCOSX, COSX-SCS-MP3, EOM
   Marcus Kettner         : VPT2
   Christian Kollmar      : KDIIS, OOCD, Brueckner-CCSD(T), CCSD density, CASPT2, CASPT2-K
   Simone Kossmann        : Meta GGA functionals, TD-DFT gradient, OOMP2, MP2 Hessian
   Martin Krupicka        : Initial AUTO-CI
   Lucas Lang             : DCDCAS
   Marvin Lechner         : AUTO-CI (C++ implementation), FIC-MRCC
   Dagmar Lenk            : GEPOL surface, SMD
   Dimitrios Liakos       : Extrapolation schemes; Compound Job, initial MDCI parallelization
   Dimitrios Manganas     : Further ROCIS development; embedding schemes
   Dimitrios Pantazis     : SARC Basis sets
   Anastasios Papadopoulos: AUTO-CI, single reference methods and gradients
   Taras Petrenko         : DFT Hessian,TD-DFT gradient, ASA, ECA, R-Raman, ABS, FL, XAS/XES, NRVS
   Peter Pinski           : DLPNO-MP2, DLPNO-MP2 Gradient
   Christoph Reimann      : Effective Core Potentials
   Marius Retegan         : Local ZFS, SOC
   Christoph Riplinger    : Optimizer, TS searches, QM/MM, DLPNO-CCSD(T), (RO)-DLPNO pert. Triples
   Tobias Risthaus        : Range-separated hybrids, TD-DFT gradient, RPA, STAB
   Michael Roemelt        : Original ROCIS implementation
   Masaaki Saitow         : Open-shell DLPNO-CCSD energy and density
   Barbara Sandhoefer     : DKH picture change effects
   Avijit Sen             : IP-ROCIS
   Kantharuban Sivalingam : CASSCF convergence, NEVPT2, FIC-MRCI
   Bernardo de Souza      : ESD, SOC TD-DFT
   Georgi Stoychev        : AutoAux, RI-MP2 NMR, DLPNO-MP2 response
   Willem Van den Heuvel  : Paramagnetic NMR
   Boris Wezisla          : Elementary symmetry handling
   Frank Wennmohs         : Technical directorship


 We gratefully acknowledge several colleagues who have allowed us to
 interface, adapt or use parts of their codes:
   Stefan Grimme, W. Hujo, H. Kruse, P. Pracht,  : VdW corrections, initial TS optimization,
                  C. Bannwarth, S. Ehlert          DFT functionals, gCP, sTDA/sTD-DF
   Ed Valeev, F. Pavosevic, A. Kumar             : LibInt (2-el integral package), F12 methods
   Garnet Chan, S. Sharma, J. Yang, R. Olivares  : DMRG
   Ulf Ekstrom                                   : XCFun DFT Library
   Mihaly Kallay                                 : mrcc  (arbitrary order and MRCC methods)
   Jiri Pittner, Ondrej Demel                    : Mk-CCSD
   Frank Weinhold                                : gennbo (NPA and NBO analysis)
   Christopher J. Cramer and Donald G. Truhlar   : smd solvation model
   Lars Goerigk                                  : TD-DFT with DH, B97 family of functionals
   V. Asgeirsson, H. Jonsson                     : NEB implementation
   FAccTs GmbH                                   : IRC, NEB, NEB-TS, DLPNO-Multilevel, CI-OPT
                                                   MM, QMMM, 2- and 3-layer-ONIOM, Crystal-QMMM,
                                                   LR-CPCM, SF, NACMEs, symmetry and pop. for TD-DFT,
                                                   nearIR, NL-DFT gradient (VV10), updates on ESD,
                                                   ML-optimized integration grids
   S Lehtola, MJT Oliveira, MAL Marques          : LibXC Library
   Liviu Ungur et al                             : ANISO software


 Your calculation uses the libint2 library for the computation of 2-el integrals
 For citations please refer to: http://libint.valeyev.net

 Your ORCA version has been built with support for libXC version: 5.1.0
 For citations please refer to: https://tddft.org/programs/libxc/

 This ORCA versions uses:
   CBLAS   interface :  Fast vector & matrix operations
   LAPACKE interface :  Fast linear algebra routines
   SCALAPACK package :  Parallel linear algebra routines
   Shared memory     :  Shared parallel matrices
   BLAS/LAPACK       :  OpenBLAS 0.3.15  USE64BITINT DYNAMIC_ARCH NO_AFFINITY Haswell SINGLE_THREADED
        Core in use  :  Haswell
   Copyright (c) 2011-2014, The OpenBLAS Project




***************************************
The coordinates will be read from file: pbe.xyz
***************************************


================================================================================

cite the ECPs for Au [Def2-ECP] as follows:
Ce-Yb(ecp-28): M. Dolg, H. Stoll, H.Preuss, J. Chem. Phys., 1989, 90, 1730-1734.
Y-Cd(ecp-28), Hf-Hg(ecp-46): D. Andrae,U. Haeussermann, M. Dolg, H. Stoll, H. Preuss, Theor. Chim. Acta, 1990, 77, 123-141.
In-Sb(ecp-28), Tl-Bi(ecp-46): B. Metz, H. Stoll, M. Dolg, J. Chem. Phys., 2000, 113, 2563-2569.
Te-Xe(ecp-28), Po-Rn(ecp-46): K. A. Peterson, D. Figgen, E. Goll, H. Stoll, M. Dolg, J. Chem. Phys., 2003, 119, 11113-11123.
Rb(ecp-28), Cs(ecp-46): T. Leininger, A. Nicklass, W. Kuechle, H. Stoll, M. Dolg, A. Bergner, Chem. Phys. Lett., 1996, 255, 274-280.
Sr(ecp-28), Ba(ecp-46): M. Kaupp, P. V. Schleyer, H. Stoll and H. Preuss, J. Chem. Phys., 1991, 94, 1360-1366.
La(ecp-46): M. Dolg, H. Stoll, A. Savin, H. Preuss, Theor. Chim. Acta, 1989, 75, 173-194.
Lu(ecp-28): X. Cao, M. Dolg, J. Chem. Phys., 2001, 115, 7348-7355.

ECP parameters for Au [Def2-ECP] have been obtained from:
TURBOMOLE (7.0.2)

----- Orbital basis set information -----
Your calculation utilizes the basis: def2-TZVP
   F. Weigend and R. Ahlrichs, Phys. Chem. Chem. Phys. 7, 3297 (2005).

----- AuxJ basis set information -----
Your calculation utilizes the auxiliary basis: def2/J
   F. Weigend, Phys. Chem. Chem. Phys. 8, 1057 (2006).

================================================================================
                                        WARNINGS
                       Please study these warnings very carefully!
================================================================================

Using LibXC functional ID 497 : Re-regularized SCAN exchange by Furness et al
[ 1]  J. W. Furness, A. D. Kaplan, J. Ning, J. P. Perdew, and J. Sun, J. Phys. Chem. Lett. 11, 8208 (2020)
[ 2]  J. W. Furness, A. D. Kaplan, J. Ning, J. P. Perdew, and J. Sun, J. Phys. Chem. Lett. 11, 9248 (2020)
Using LibXC functional ID 498 : Re-regularized SCAN correlation by Furness et al
[ 1]  J. W. Furness, A. D. Kaplan, J. Ning, J. P. Perdew, and J. Sun, J. Phys. Chem. Lett. 11, 8208 (2020)
[ 2]  J. W. Furness, A. D. Kaplan, J. Ning, J. P. Perdew, and J. Sun, J. Phys. Chem. Lett. 11, 9248 (2020)
Using LibXC functional ID 497 : Re-regularized SCAN exchange by Furness et al
[ 1]  J. W. Furness, A. D. Kaplan, J. Ning, J. P. Perdew, and J. Sun, J. Phys. Chem. Lett. 11, 8208 (2020)
[ 2]  J. W. Furness, A. D. Kaplan, J. Ning, J. P. Perdew, and J. Sun, J. Phys. Chem. Lett. 11, 9248 (2020)
Using LibXC functional ID 498 : Re-regularized SCAN correlation by Furness et al
[ 1]  J. W. Furness, A. D. Kaplan, J. Ning, J. P. Perdew, and J. Sun, J. Phys. Chem. Lett. 11, 8208 (2020)
[ 2]  J. W. Furness, A. D. Kaplan, J. Ning, J. P. Perdew, and J. Sun, J. Phys. Chem. Lett. 11, 9248 (2020)

WARNING: your system is open-shell and RHF/RKS was chosen
  ===> : WILL SWITCH to UHF/UKS


INFO   : the flag for use of the SHARK integral package has been found!



***************************************
The coordinates will be read from file: pbe.xyz
***************************************


================================================================================

cite the ECPs for Au [Def2-ECP] as follows:
Ce-Yb(ecp-28): M. Dolg, H. Stoll, H.Preuss, J. Chem. Phys., 1989, 90, 1730-1734.
Y-Cd(ecp-28), Hf-Hg(ecp-46): D. Andrae,U. Haeussermann, M. Dolg, H. Stoll, H. Preuss, Theor. Chim. Acta, 1990, 77, 123-141.
In-Sb(ecp-28), Tl-Bi(ecp-46): B. Metz, H. Stoll, M. Dolg, J. Chem. Phys., 2000, 113, 2563-2569.
Te-Xe(ecp-28), Po-Rn(ecp-46): K. A. Peterson, D. Figgen, E. Goll, H. Stoll, M. Dolg, J. Chem. Phys., 2003, 119, 11113-11123.
Rb(ecp-28), Cs(ecp-46): T. Leininger, A. Nicklass, W. Kuechle, H. Stoll, M. Dolg, A. Bergner, Chem. Phys. Lett., 1996, 255, 274-280.
Sr(ecp-28), Ba(ecp-46): M. Kaupp, P. V. Schleyer, H. Stoll and H. Preuss, J. Chem. Phys., 1991, 94, 1360-1366.
La(ecp-46): M. Dolg, H. Stoll, A. Savin, H. Preuss, Theor. Chim. Acta, 1989, 75, 173-194.
Lu(ecp-28): X. Cao, M. Dolg, J. Chem. Phys., 2001, 115, 7348-7355.

ECP parameters for Au [Def2-ECP] have been obtained from:
TURBOMOLE (7.0.2)

----- Orbital basis set information -----
Your calculation utilizes the basis: def2-TZVP
   F. Weigend and R. Ahlrichs, Phys. Chem. Chem. Phys. 7, 3297 (2005).

----- AuxJ basis set information -----
Your calculation utilizes the auxiliary basis: def2/J
   F. Weigend, Phys. Chem. Chem. Phys. 8, 1057 (2006).

================================================================================
                                        WARNINGS
                       Please study these warnings very carefully!
================================================================================

Using LibXC functional ID 497 : Re-regularized SCAN exchange by Furness et al
[ 1]  J. W. Furness, A. D. Kaplan, J. Ning, J. P. Perdew, and J. Sun, J. Phys. Chem. Lett. 11, 8208 (2020)
[ 2]  J. W. Furness, A. D. Kaplan, J. Ning, J. P. Perdew, and J. Sun, J. Phys. Chem. Lett. 11, 9248 (2020)
Using LibXC functional ID 498 : Re-regularized SCAN correlation by Furness et al
[ 1]  J. W. Furness, A. D. Kaplan, J. Ning, J. P. Perdew, and J. Sun, J. Phys. Chem. Lett. 11, 8208 (2020)
[ 2]  J. W. Furness, A. D. Kaplan, J. Ning, J. P. Perdew, and J. Sun, J. Phys. Chem. Lett. 11, 9248 (2020)
Using LibXC functional ID 497 : Re-regularized SCAN exchange by Furness et al
[ 1]  J. W. Furness, A. D. Kaplan, J. Ning, J. P. Perdew, and J. Sun, J. Phys. Chem. Lett. 11, 8208 (2020)
[ 2]  J. W. Furness, A. D. Kaplan, J. Ning, J. P. Perdew, and J. Sun, J. Phys. Chem. Lett. 11, 9248 (2020)
Using LibXC functional ID 498 : Re-regularized SCAN correlation by Furness et al
[ 1]  J. W. Furness, A. D. Kaplan, J. Ning, J. P. Perdew, and J. Sun, J. Phys. Chem. Lett. 11, 8208 (2020)
[ 2]  J. W. Furness, A. D. Kaplan, J. Ning, J. P. Perdew, and J. Sun, J. Phys. Chem. Lett. 11, 9248 (2020)

INFO   : the flag for use of the SHARK integral package has been found!

================================================================================
                                       INPUT FILE
================================================================================
NAME = scan.inp
|  1> !R2SCAN def2-TZVP VERYSLOWCONV
|  2> !KDIIS
|  3> %scf
|  4>   AutoTRAHIter 200
|  5>   maxiter 400
|  6> end
|  7> 
|  8> %pal nprocs 6 end 
|  9> 
| 10> *xyzfile 0 5 pbe.xyz
| 11> 
| 12> $new_job
| 13> 
| 14> !R2SCAN def2-TZVP VERYSLOWCONV
| 15> !KDIIS
| 16> %scf
| 17>   AutoTRAHIter 200
| 18>   maxiter 400
| 19> end
| 20> 
| 21> 
| 22> %pal nprocs 6 end 
| 23> 
| 24> *xyzfile 0 3 pbe.xyz
| 25> 
| 26> 
| 27> 
| 28> 
| 29> 
| 30>                          ****END OF INPUT****
================================================================================


                 $$$$$$$$$$$$$$$$$$$$$$$$$$$$$$$$$$$$$$$$$$$$$$ 
                 $ THERE ARE  2 JOBS TO BE PROCESSED THIS RUN $
                 $$$$$$$$$$$$$$$$$$$$$$$$$$$$$$$$$$$$$$$$$$$$$$ 




                 $$$$$$$$$$$$$$$$  JOB NUMBER  1 $$$$$$$$$$$$$$


                       ****************************
                       * Single Point Calculation *
                       ****************************

---------------------------------
CARTESIAN COORDINATES (ANGSTROEM)
---------------------------------
  Au     7.798623    6.285975    5.170911
  Au     5.572559    7.652629    6.322152
  Au     6.030380    5.507326    9.812774
  Au     6.508558    4.846350    7.263255
  Au     5.078174    8.372378    8.852576
  Au     9.415951    5.892469    7.489944
  Au     9.006699    6.574609   10.045897
  Au     6.745623    7.945411   11.134792
  Au     8.052196    9.440198    9.084502
  Au     8.482725    8.695011    6.549240
  Cr     7.259591    7.135804    8.225311

----------------------------
CARTESIAN COORDINATES (A.U.)
----------------------------
  NO LB      ZA    FRAG     MASS         X           Y           Z
   0 Au   19.0000*   0   196.966   14.737262   11.878772    9.771606
   1 Au   19.0000*   0   196.966   10.530610   14.461373   11.947137
   2 Au   19.0000*   0   196.966   11.395766   10.407337   18.543456
   3 Au   19.0000*   0   196.966   12.299392    9.158274   13.725562
   4 Au   19.0000*   0   196.966    9.596357   15.821502   16.728944
   5 Au   19.0000*   0   196.966   17.793568   11.135153   14.153943
   6 Au   19.0000*   0   196.966   17.020194   12.424210   18.983994
   7 Au   19.0000*   0   196.966   12.747380   15.014652   21.041707
   8 Au   19.0000*   0   196.966   15.216445   17.839389   17.167222
   9 Au   19.0000*   0   196.966   16.030027   16.431190   12.376269
  10 Cr   24.0000    0    52.000   13.718638   13.484716   15.543585
* core charge reduced due to ECP

--------------------------------
INTERNAL COORDINATES (ANGSTROEM)
--------------------------------
 Au     0   0   0     0.000000000000     0.00000000     0.00000000
 Au     1   0   0     2.854550629053     0.00000000     0.00000000
 Au     2   1   0     4.122664971170    90.32875217     0.00000000
 Au     3   2   1     2.676862855125    48.84604361   327.90500738
 Au     2   1   3     2.676844901609   130.84358732    32.75490073
 Au     1   2   3     2.854559447743   100.38096552   326.85108033
 Au     6   1   2     2.676882052214   130.83986264     0.35822237
 Au     5   2   1     2.858530344125   127.36001153     0.47156657
 Au     8   5   2     2.853980702250    67.37240146    57.94666762
 Au     9   8   5     2.677352477832   127.45303342   301.85095849
 Cr     9   8   5     2.583924138257    68.36774371   301.87049354

---------------------------
INTERNAL COORDINATES (A.U.)
---------------------------
 Au     0   0   0     0.000000000000     0.00000000     0.00000000
 Au     1   0   0     5.394318924322     0.00000000     0.00000000
 Au     2   1   0     7.790707737422    90.32875217     0.00000000
 Au     3   2   1     5.058537694253    48.84604361   327.90500738
 Au     2   1   3     5.058503767025   130.84358732    32.75490073
 Au     1   2   3     5.394335589231   100.38096552   326.85108033
 Au     6   1   2     5.058573971494   130.83986264     0.35822237
 Au     5   2   1     5.401839495899   127.36001153     0.47156657
 Au     8   5   2     5.393241918748    67.37240146    57.94666762
 Au     9   8   5     5.059462947078   127.45303342   301.85095849
 Cr     9   8   5     4.882908972134    68.36774371   301.87049354

---------------------
BASIS SET INFORMATION
---------------------
There are 2 groups of distinct atoms

 Group   1 Type Au  : 8s7p6d1f contracted to 6s4p3d1f pattern {311111/4111/411/1}
 Group   2 Type Cr  : 17s11p7d1f contracted to 6s4p4d1f pattern {842111/6311/4111/1}

Atom   0Au   basis set group =>   1
Atom   1Au   basis set group =>   1
Atom   2Au   basis set group =>   1
Atom   3Au   basis set group =>   1
Atom   4Au   basis set group =>   1
Atom   5Au   basis set group =>   1
Atom   6Au   basis set group =>   1
Atom   7Au   basis set group =>   1
Atom   8Au   basis set group =>   1
Atom   9Au   basis set group =>   1
Atom  10Cr   basis set group =>   2
---------------------------------
AUXILIARY/J BASIS SET INFORMATION
---------------------------------
There are 2 groups of distinct atoms

 Group   1 Type Au  : 11s5p5d3f3g contracted to 8s5p5d2f3g pattern {41111111/11111/11111/21/111}
 Group   2 Type Cr  : 19s5p5d3f3g contracted to 8s5p5d2f3g pattern {121111111/11111/11111/21/111}

Atom   0Au   basis set group =>   1
Atom   1Au   basis set group =>   1
Atom   2Au   basis set group =>   1
Atom   3Au   basis set group =>   1
Atom   4Au   basis set group =>   1
Atom   5Au   basis set group =>   1
Atom   6Au   basis set group =>   1
Atom   7Au   basis set group =>   1
Atom   8Au   basis set group =>   1
Atom   9Au   basis set group =>   1
Atom  10Cr   basis set group =>   2
-------------------------
ECP PARAMETER INFORMATION
-------------------------

 Group 1, Type Au ECP Def2-ECP (replacing 60 core electrons, lmax=3)

Atom   0Au   ECP group =>   1
Atom   1Au   ECP group =>   1
Atom   2Au   ECP group =>   1
Atom   3Au   ECP group =>   1
Atom   4Au   ECP group =>   1
Atom   5Au   ECP group =>   1
Atom   6Au   ECP group =>   1
Atom   7Au   ECP group =>   1
Atom   8Au   ECP group =>   1
Atom   9Au   ECP group =>   1



           ************************************************************
           *        Program running with 6 parallel MPI-processes     *
           *              working on a common directory               *
           ************************************************************
------------------------------------------------------------------------------
                           ORCA GTO INTEGRAL CALCULATION
                           -- RI-GTO INTEGRALS CHOSEN --
------------------------------------------------------------------------------
------------------------------------------------------------------------------
                   ___                                                        
                  /   \      - P O W E R E D   B Y -                         
                 /     \                                                     
                 |  |  |   _    _      __       _____    __    __             
                 |  |  |  | |  | |    /  \     |  _  \  |  |  /  |          
                  \  \/   | |  | |   /    \    | | | |  |  | /  /          
                 / \  \   | |__| |  /  /\  \   | |_| |  |  |/  /          
                |  |  |   |  __  | /  /__\  \  |    /   |      \           
                |  |  |   | |  | | |   __   |  |    \   |  |\   \          
                \     /   | |  | | |  |  |  |  | |\  \  |  | \   \       
                 \___/    |_|  |_| |__|  |__|  |_| \__\ |__|  \__/        
                                                                              
                      - O R C A' S   B I G   F R I E N D -                    
                                      &                                       
                       - I N T E G R A L  F E E D E R -                       
                                                                              
 v1 FN, 2020, v2 2021                                                         
------------------------------------------------------------------------------


Reading SHARK input file scan.SHARKINP.tmp ... ok
----------------------
SHARK INTEGRAL PACKAGE
----------------------

Number of atoms                             ...     11
Number of basis functions                   ...    445
Number of shells                            ...    155
Maximum angular momentum                    ...      3
Integral batch strategy                     ... SHARK/LIBINT Hybrid
RI-J (if used) integral strategy            ... SPLIT-RIJ (Revised 2003 algorithm where possible)
Printlevel                                  ...      1
Contraction scheme used                     ... SEGMENTED contraction
Coulomb Range Separation                    ... NOT USED
Exchange Range Separation                   ... NOT USED
Finite Nucleus Model                        ... NOT USED
Auxiliary Coulomb fitting basis             ... AVAILABLE
   # of basis functions in Aux-J            ...    979
   # of shells in Aux-J                     ...    253
   Maximum angular momentum in Aux-J        ...      4
Auxiliary J/K fitting basis                 ... NOT available
Auxiliary Correlation fitting basis         ... NOT available
Auxiliary 'external' fitting basis          ... NOT available
Integral threshold                          ...     1.000000e-10
Primitive cut-off                           ...     1.000000e-11
Primitive pair pre-selection threshold      ...     1.000000e-11

Calculating pre-screening integrals         ... done (  0.1 sec) Dimension = 155
Organizing shell pair data                  ... done (  0.2 sec)
Shell pair information
Total number of shell pairs                 ...     12090
Shell pairs after pre-screening             ...     10197
Total number of primitive shell pairs       ...     33105
Primitive shell pairs kept                  ...     20740
          la=0 lb=0:   1582 shell pairs
          la=1 lb=0:   2329 shell pairs
          la=1 lb=1:    888 shell pairs
          la=2 lb=0:   2005 shell pairs
          la=2 lb=1:   1414 shell pairs
          la=2 lb=2:    580 shell pairs
          la=3 lb=0:    568 shell pairs
          la=3 lb=1:    422 shell pairs
          la=3 lb=2:    348 shell pairs
          la=3 lb=3:     61 shell pairs

Calculating one electron integrals          ... done (  0.0 sec)
Calculating ECP integrals                   ... done (  6.4 sec)
Calculating RI/J V-Matrix + Cholesky decomp.... done (  0.1 sec)
Calculating Nuclear repulsion               ... done (  0.0 sec) ENN=   3234.157637224998 Eh

SHARK setup successfully completed in   7.2 seconds

Maximum memory used throughout the entire GTOINT-calculation: 27.5 MB


           ************************************************************
           *        Program running with 6 parallel MPI-processes     *
           *              working on a common directory               *
           ************************************************************
-------------------------------------------------------------------------------
                                 ORCA SCF
-------------------------------------------------------------------------------

------------
SCF SETTINGS
------------
Hamiltonian:
 Density Functional     Method          .... DFT(GTOs)
  Functional kind                       .... Exchange
  Functional name                       .... Re-regularized SCAN exchange by Furness et al
  Functional family                     .... MGGA
  Functional refs                              
    [ 0] J. W. Furness, A. D. Kaplan, J. Ning, J. P. Perdew, and J. Sun, J. Phys. Chem. Lett. 11, 8208 (2020)
    [ 1] J. W. Furness, A. D. Kaplan, J. Ning, J. P. Perdew, and J. Sun, J. Phys. Chem. Lett. 11, 9248 (2020)
  Functional external parameters         .... 8
 Parameter  0 :         c1 parameter
 Parameter  1 :         c2 parameter
 Parameter  2 :          d parameter
 Parameter  3 :         k1 parameter
 Parameter  4 :       taur parameter
 Parameter  5 :     alphar parameter
 Parameter  6 :        eta parameter
 Parameter  7 :        dp2 parameter
  Functional kind                       .... Correlation
  Functional name                       .... Re-regularized SCAN correlation by Furness et al
  Functional family                     .... MGGA
  Functional refs                              
    [ 0] J. W. Furness, A. D. Kaplan, J. Ning, J. P. Perdew, and J. Sun, J. Phys. Chem. Lett. 11, 8208 (2020)
    [ 1] J. W. Furness, A. D. Kaplan, J. Ning, J. P. Perdew, and J. Sun, J. Phys. Chem. Lett. 11, 9248 (2020)
  Functional external parameters         .... 0
 Gradients option       PostSCFGGA      .... off
   Density functional embedding theory  .... OFF
   NL short-range parameter             .... 12.300000
 RI-approximation to the Coulomb term is turned on
   Number of AuxJ basis functions       .... 979


General Settings:
 Integral files         IntName         .... scan
 Hartree-Fock type      HFTyp           .... UHF
 Total Charge           Charge          ....    0
 Multiplicity           Mult            ....    5
 Number of Electrons    NEL             ....  214
 Basis Dimension        Dim             ....  445
 Nuclear Repulsion      ENuc            ....   3234.1576372250 Eh

Convergence Acceleration:
 DIIS                   CNVDIIS         .... off
 Trust-Rad. Augm. Hess. CNVTRAH         .... auto
   Auto Start mean grad. ratio tolernc. ....  1.125000
   Auto Start start iteration           ....   200
   Auto Start num. interpolation iter.  ....    10
   Max. Number of Micro iterations      ....    16
   Max. Number of Macro iterations      .... Maxiter - #DIIS iter
   Number of Davidson start vectors     ....     2
   Converg. threshold I  (grad. norm)   ....   5.000e-05
   Converg. threshold II (energy diff.) ....   1.000e-06
   Grad. Scal. Fac. for Micro threshold ....   0.100
   Minimum threshold for Micro iter.    ....   0.010
   NR start threshold (gradient norm)   ....   0.001
   Initial trust radius                 ....   0.400
   Minimum AH scaling param. (alpha)    ....   1.000
   Maximum AH scaling param. (alpha)    .... 1000.000
   Orbital update algorithm             .... Taylor
   White noise on init. David. guess    .... on
   Maximum white noise                  ....   0.010
   Quad. conv. algorithm                .... NR
 SOSCF                  CNVSOSCF        .... off
 Level Shifting         CNVShift        .... off
 Zerner damping         CNVZerner       .... off
 Static damping         CNVDamp         .... off
 Fernandez-Rico         CNVRico         .... off

SCF Procedure:
 Maximum # iterations   MaxIter         ....   400
 SCF integral mode      SCFMode         .... Direct
   Integral package                     .... SHARK and LIBINT hybrid scheme
 Reset frequency        DirectResetFreq ....    20
 Integral Threshold     Thresh          ....  1.000e-10 Eh
 Primitive CutOff       TCut            ....  1.000e-11 Eh

Convergence Tolerance:
 Convergence Check Mode ConvCheckMode   .... All-Criteria
 Convergence forced     ConvForced      .... 0
 Energy Change          TolE            ....  1.000e-06 Eh
 Max Density Change     TolMaxP         ....  1.000e-05
 RMS Density Change     TolRMSP         ....  1.000e-06


Diagonalization of the overlap matrix:
Smallest eigenvalue                        ... 1.483e-04
Time for diagonalization                   ...    0.034 sec
Threshold for overlap eigenvalues          ... 1.000e-08
Number of eigenvalues below threshold      ... 0
Time for construction of square roots      ...    0.038 sec
Total time needed                          ...    0.140 sec

Time for model grid setup =    0.495 sec

------------------------------
INITIAL GUESS: MODEL POTENTIAL
------------------------------
Loading Hartree-Fock densities                     ... done
  calling /media/Programs/ORCA501/orca scan_atom79.inp > scan_atom79.out in order to generate an atomic fitting density for atom 0 (Au with ECP) on-the-fly... 
    atom 0 (Au), assumed electronic state with S=2: 1s2 2s2 2p6 3s2 3p6 4s2 3d10 4p6 5s2 4d10 5p6 6s1 4f14 5d10           ... done
Calculating cut-offs                               ... done
Initializing the effective Hamiltonian             ... done
Setting up the integral package (SHARK)            ... done
Starting the Coulomb interaction                   ... done (   0.3 sec)
Reading the grid                                   ... done
Mapping shells                                     ... done
Starting the XC term evaluation                    ... done (   0.4 sec)
  promolecular density results
     # of electrons  =    814.011543396
     EX              =  -3705.450360803
     EC              =    -49.442170755
     EX+EC           =  -3754.892531559
Transforming the Hamiltonian                       ... done (   0.0 sec)
Diagonalizing the Hamiltonian                      ... done (   0.0 sec)
Back transforming the eigenvectors                 ... done (   0.0 sec)
Now organizing SCF variables                       ... done
                      ------------------
                      INITIAL GUESS DONE (   2.0 sec)
                      ------------------
-------------------
DFT GRID GENERATION
-------------------

General Integration Accuracy     IntAcc      ... 4.388
Radial Grid Type                 RadialGrid  ... OptM3 with GC (2021)
Angular Grid (max. ang.)         AngularGrid ... 4 (Lebedev-302)
Angular grid pruning method      GridPruning ... 4 (adaptive)
Weight generation scheme         WeightScheme... Becke
Basis function cutoff            BFCut       ... 1.0000e-10
Integration weight cutoff        WCut        ... 1.0000e-14
Angular grids for H and He will be reduced by one unit
Partially contracted basis set               ... off
Rotationally invariant grid construction     ... off

Total number of grid points                  ...   123118
Total number of batches                      ...     1930
Average number of points per batch           ...       63
Average number of grid points per atom       ...    11193
Time for grid setup =    1.626 sec

--------------
SCF ITERATIONS
--------------
ITER       Energy         Delta-E        Max-DP      RMS-DP      [F,P]   Gradient Norm
               ***  Starting incremental Fock matrix formation  ***
                             ****Resetting KDIIS****
                             ****Turning on KDIIS(Cayley)****
  0  -2401.3695535580   0.000000000000 0.48827448  0.00223882  0.3937059   0.215887290
  1  -2402.0774365718  -0.707883013764 0.35750034  0.00243465  0.3524107   0.172481622
  2  -2402.5119861685  -0.434549596740 0.36478967  0.00167934  0.2790193   0.128189301
  3  -2402.7237423900  -0.211756221495 0.47773272  0.00195672  0.1631312   0.074318026
  4  -2402.7744534100  -0.050711019972 0.25521956  0.00077145  0.0783490   0.026290801
  5  -2402.8192913679  -0.044837957975 0.10600332  0.00043100  0.0389230   0.005284863
  6  -2402.8298933102  -0.010601942281 0.14953687  0.00068193  0.0328377   0.004750173
  7  -2402.8384842239  -0.008590913653 0.12711949  0.00055151  0.0362528   0.006449951
  8  -2402.8515714514  -0.013087227495 0.03695557  0.00027870  0.0136916   0.003244664
  9  -2402.8554108453  -0.003839393955 0.09933532  0.00033439  0.0130088   0.003536403
 10  -2402.8584140764  -0.003003231074 0.05098505  0.00019774  0.0066797   0.002544917
 11  -2402.8594591614  -0.001045084994 0.04987597  0.00016668  0.0035107   0.001907576
 12  -2402.8602203502  -0.000761188785 0.01725779  0.00007022  0.0029613   0.001116329
 13  -2402.8604434110  -0.000223060870 0.01867602  0.00006794  0.0022254   0.001006346
 14  -2402.8605806107  -0.000137199634 0.02075790  0.00009428  0.0017533   0.000757867
 15  -2402.8608261871  -0.000245576395 0.00393799  0.00002808  0.0009368   0.000368928
 16  -2402.8608503493  -0.000024162264 0.00770016  0.00002888  0.0011826   0.000542936
 17  -2402.8608332747   0.000017074618 0.01027483  0.00002899  0.0008090   0.000511638
 18  -2402.8608570087  -0.000023734025 0.00124675  0.00001029  0.0006053   0.000282082
 19  -2402.8608644773  -0.000007468566 0.00355966  0.00001333  0.0003018   0.000170940
               *** Restarting incremental Fock matrix formation ***
                             ****Resetting KDIIS****
 20  -2402.8608656250  -0.000001147720 0.00093758  0.00000278  0.0003743   0.000147903
                          ***Energy convergence achieved***
 21  -2402.8608662568  -0.000000631805 0.00105885  0.00000267  0.0002416   0.000090268
 22  -2402.8608680498  -0.000001792933 0.00170309  0.00000408  0.0002681   0.000064218
 23  -2402.8608692180  -0.000001168276 0.00650918  0.00001645  0.0002128   0.000045494
 24  -2402.8608742103  -0.000004992240 0.00185131  0.00000572  0.0000873   0.000062737
 25  -2402.8608771843  -0.000002974003 0.00253818  0.00000565  0.0000419   0.000011380
                          ***Energy convergence achieved***
 26  -2402.8608779014  -0.000000717102 0.00018394  0.00000130  0.0000406   0.000020911
                           ***RMSP convergence achieved***

            ***Energy convergence in two consecutive cycles with***
                    ***'reasonable' density convergence***
                       *** signaling convergence ***

                    *** KDIIS BlockDiag ( 2.519 sec) ***

               *****************************************************
               *                     SUCCESS                       *
               *           SCF CONVERGED AFTER  27 CYCLES          *
               *****************************************************


----------------
TOTAL SCF ENERGY
----------------

Total Energy       :        -2402.86087807 Eh          -65385.16861 eV

Components:
Nuclear Repulsion  :         3234.15763722 Eh           88005.90344 eV
Electronic Energy  :        -5637.01851529 Eh         -153391.07205 eV
One Electron Energy:       -10286.86278870 Eh         -279919.76733 eV
Two Electron Energy:         4649.84427341 Eh          126528.69527 eV

Virial components:
Potential Energy   :        -3904.53063960 Eh         -106247.68023 eV
Kinetic Energy     :         1501.66976154 Eh           40862.51162 eV
Virial Ratio       :            2.60012603


DFT components:
N(Alpha)           :      108.999986774656 electrons
N(Beta)            :      104.999986462616 electrons
N(Total)           :      213.999973237272 electrons
E(X)               :     -169.017494100987 Eh       
E(C)               :       -8.853506490029 Eh       
E(XC)              :     -177.871000591016 Eh       
DFET-embed. en.    :        0.000000000000 Eh       

---------------
SCF CONVERGENCE
---------------

  Last Energy change         ...   -1.6393e-07  Tolerance :   1.0000e-06
  Last MAX-Density change    ...    6.6655e-05  Tolerance :   1.0000e-05
  Last RMS-Density change    ...    4.1937e-07  Tolerance :   1.0000e-06

             **** THE GBW FILE WAS UPDATED (scan.gbw) ****
             **** DENSITY scan.scfp WAS UPDATED ****
             **** ENERGY FILE WAS UPDATED (scan.en.tmp) ****
----------------------
UHF SPIN CONTAMINATION
----------------------

Warning: in a DFT calculation there is little theoretical justification to 
         calculate <S**2> as in Hartree-Fock theory. We will do it anyways
         but you should keep in mind that the values have only limited relevance

Expectation value of <S**2>     :     6.252367
Ideal value S*(S+1) for S=2.0   :     6.000000
Deviation                       :     0.252367

             **** THE GBW FILE WAS UPDATED (scan.gbw) ****
             **** DENSITY scan.scfp WAS UPDATED ****
----------------
ORBITAL ENERGIES
----------------
                 SPIN UP ORBITALS
  NO   OCC          E(Eh)            E(eV) 
   0   1.0000    -215.297188     -5858.5343 
   1   1.0000     -24.602787      -669.4759 
   2   1.0000     -20.869462      -567.8869 
   3   1.0000     -20.869457      -567.8868 
   4   1.0000     -20.868804      -567.8690 
   5   1.0000      -4.113550      -111.9354 
   6   1.0000      -4.113463      -111.9330 
   7   1.0000      -4.113391      -111.9311 
   8   1.0000      -4.113346      -111.9298 
   9   1.0000      -4.112044      -111.8944 
  10   1.0000      -4.111976      -111.8926 
  11   1.0000      -4.111917      -111.8909 
  12   1.0000      -4.111867      -111.8896 
  13   1.0000      -4.107422      -111.7686 
  14   1.0000      -4.106284      -111.7377 
  15   1.0000      -2.916993       -79.3754 
  16   1.0000      -2.305605       -62.7387 
  17   1.0000      -2.305492       -62.7356 
  18   1.0000      -2.305477       -62.7352 
  19   1.0000      -2.305255       -62.7292 
  20   1.0000      -2.302820       -62.6629 
  21   1.0000      -2.302375       -62.6508 
  22   1.0000      -2.302351       -62.6502 
  23   1.0000      -2.301956       -62.6394 
  24   1.0000      -2.301197       -62.6188 
  25   1.0000      -2.300783       -62.6075 
  26   1.0000      -2.300765       -62.6070 
  27   1.0000      -2.300199       -62.5916 
  28   1.0000      -2.297959       -62.5306 
  29   1.0000      -2.297718       -62.5241 
  30   1.0000      -2.297712       -62.5239 
  31   1.0000      -2.297263       -62.5117 
  32   1.0000      -2.294212       -62.4287 
  33   1.0000      -2.293693       -62.4146 
  34   1.0000      -2.293669       -62.4139 
  35   1.0000      -2.293189       -62.4008 
  36   1.0000      -2.292969       -62.3949 
  37   1.0000      -2.292343       -62.3778 
  38   1.0000      -2.291962       -62.3675 
  39   1.0000      -2.291950       -62.3671 
  40   1.0000      -2.291934       -62.3667 
  41   1.0000      -2.291769       -62.3622 
  42   1.0000      -2.291753       -62.3618 
  43   1.0000      -2.291560       -62.3565 
  44   1.0000      -2.290578       -62.3298 
  45   1.0000      -2.290571       -62.3296 
  46   1.0000      -1.864595       -50.7382 
  47   1.0000      -1.863180       -50.6997 
  48   1.0000      -1.863173       -50.6995 
  49   1.0000      -0.414131       -11.2691 
  50   1.0000      -0.376300       -10.2397 
  51   1.0000      -0.370451       -10.0805 
  52   1.0000      -0.363708        -9.8970 
  53   1.0000      -0.360051        -9.7975 
  54   1.0000      -0.360004        -9.7962 
  55   1.0000      -0.357654        -9.7323 
  56   1.0000      -0.355671        -9.6783 
  57   1.0000      -0.351846        -9.5742 
  58   1.0000      -0.351814        -9.5733 
  59   1.0000      -0.346913        -9.4400 
  60   1.0000      -0.346851        -9.4383 
  61   1.0000      -0.343331        -9.3425 
  62   1.0000      -0.337879        -9.1941 
  63   1.0000      -0.337821        -9.1926 
  64   1.0000      -0.332390        -9.0448 
  65   1.0000      -0.324391        -8.8271 
  66   1.0000      -0.318109        -8.6562 
  67   1.0000      -0.318052        -8.6546 
  68   1.0000      -0.317904        -8.6506 
  69   1.0000      -0.314136        -8.5481 
  70   1.0000      -0.312578        -8.5057 
  71   1.0000      -0.310435        -8.4474 
  72   1.0000      -0.310399        -8.4464 
  73   1.0000      -0.301619        -8.2075 
  74   1.0000      -0.299863        -8.1597 
  75   1.0000      -0.299762        -8.1569 
  76   1.0000      -0.297578        -8.0975 
  77   1.0000      -0.295923        -8.0525 
  78   1.0000      -0.294998        -8.0273 
  79   1.0000      -0.293739        -7.9930 
  80   1.0000      -0.293692        -7.9918 
  81   1.0000      -0.279584        -7.6079 
  82   1.0000      -0.277956        -7.5636 
  83   1.0000      -0.277432        -7.5493 
  84   1.0000      -0.274982        -7.4826 
  85   1.0000      -0.270825        -7.3695 
  86   1.0000      -0.270790        -7.3686 
  87   1.0000      -0.270779        -7.3683 
  88   1.0000      -0.267565        -7.2808 
  89   1.0000      -0.266989        -7.2651 
  90   1.0000      -0.266680        -7.2567 
  91   1.0000      -0.266658        -7.2561 
  92   1.0000      -0.263189        -7.1617 
  93   1.0000      -0.260832        -7.0976 
  94   1.0000      -0.260173        -7.0797 
  95   1.0000      -0.260121        -7.0783 
  96   1.0000      -0.259026        -7.0485 
  97   1.0000      -0.253856        -6.9078 
  98   1.0000      -0.253838        -6.9073 
  99   1.0000      -0.247766        -6.7420 
 100   1.0000      -0.240919        -6.5557 
 101   1.0000      -0.237890        -6.4733 
 102   1.0000      -0.237827        -6.4716 
 103   1.0000      -0.228827        -6.2267 
 104   1.0000      -0.227419        -6.1884 
 105   1.0000      -0.216470        -5.8904 
 106   1.0000      -0.207991        -5.6597 
 107   1.0000      -0.207974        -5.6593 
 108   1.0000      -0.188764        -5.1365 
 109   0.0000      -0.154922        -4.2156 
 110   0.0000      -0.154883        -4.2146 
 111   0.0000      -0.153501        -4.1770 
 112   0.0000      -0.106437        -2.8963 
 113   0.0000      -0.101414        -2.7596 
 114   0.0000      -0.099019        -2.6944 
 115   0.0000      -0.072997        -1.9864 
 116   0.0000      -0.053711        -1.4615 
 117   0.0000      -0.053662        -1.4602 
 118   0.0000      -0.039554        -1.0763 
 119   0.0000      -0.038588        -1.0500 
 120   0.0000      -0.038557        -1.0492 
 121   0.0000      -0.005739        -0.1562 
 122   0.0000      -0.001354        -0.0369 
 123   0.0000       0.023251         0.6327 
 124   0.0000       0.023330         0.6348 
 125   0.0000       0.033148         0.9020 
 126   0.0000       0.033172         0.9027 
 127   0.0000       0.041191         1.1209 
 128   0.0000       0.058363         1.5881 
 129   0.0000       0.058385         1.5887 
 130   0.0000       0.059811         1.6275 
 131   0.0000       0.065007         1.7689 
 132   0.0000       0.071167         1.9366 
 133   0.0000       0.075567         2.0563 
 134   0.0000       0.075628         2.0580 
 135   0.0000       0.080663         2.1949 
 136   0.0000       0.091244         2.4829 
 137   0.0000       0.091557         2.4914 
 138   0.0000       0.101694         2.7672 
 139   0.0000       0.105347         2.8666 
 140   0.0000       0.110263         3.0004 
 141   0.0000       0.110284         3.0010 
 142   0.0000       0.145744         3.9659 
 143   0.0000       0.146422         3.9843 
 144   0.0000       0.147276         4.0076 
 145   0.0000       0.149642         4.0720 
 146   0.0000       0.149672         4.0728 
 147   0.0000       0.161576         4.3967 
 148   0.0000       0.164696         4.4816 
 149   0.0000       0.165112         4.4929 
 150   0.0000       0.165133         4.4935 
 151   0.0000       0.195258         5.3132 
 152   0.0000       0.195267         5.3135 
 153   0.0000       0.199949         5.4409 
 154   0.0000       0.224266         6.1026 
 155   0.0000       0.233221         6.3463 
 156   0.0000       0.233281         6.3479 
 157   0.0000       0.239957         6.5296 
 158   0.0000       0.246226         6.7002 
 159   0.0000       0.246333         6.7031 
 160   0.0000       0.248575         6.7641 
 161   0.0000       0.258606         7.0370 
 162   0.0000       0.272649         7.4192 
 163   0.0000       0.272719         7.4211 
 164   0.0000       0.274865         7.4795 
 165   0.0000       0.300016         8.1639 
 166   0.0000       0.300247         8.1701 
 167   0.0000       0.301686         8.2093 
 168   0.0000       0.305251         8.3063 
 169   0.0000       0.313090         8.5196 
 170   0.0000       0.313107         8.5201 
 171   0.0000       0.321584         8.7507 
 172   0.0000       0.321619         8.7517 
 173   0.0000       0.322835         8.7848 
 174   0.0000       0.335902         9.1404 
 175   0.0000       0.347120         9.4456 
 176   0.0000       0.357637         9.7318 
 177   0.0000       0.362226         9.8567 
 178   0.0000       0.362299         9.8587 
 179   0.0000       0.375112        10.2073 
 180   0.0000       0.379488        10.3264 
 181   0.0000       0.379578        10.3288 
 182   0.0000       0.393776        10.7152 
 183   0.0000       0.393811        10.7161 
 184   0.0000       0.394623        10.7382 
 185   0.0000       0.395262        10.7556 
 186   0.0000       0.405590        11.0367 
 187   0.0000       0.405612        11.0373 
 188   0.0000       0.419178        11.4064 
 189   0.0000       0.420319        11.4375 
 190   0.0000       0.421752        11.4764 
 191   0.0000       0.441173        12.0049 
 192   0.0000       0.441214        12.0060 
 193   0.0000       0.448237        12.1971 
 194   0.0000       0.452399        12.3104 
 195   0.0000       0.452486        12.3128 
 196   0.0000       0.455756        12.4018 
 197   0.0000       0.464939        12.6516 
 198   0.0000       0.480871        13.0852 
 199   0.0000       0.489512        13.3203 
 200   0.0000       0.512292        13.9402 
 201   0.0000       0.512343        13.9416 
 202   0.0000       0.517757        14.0889 
 203   0.0000       0.517803        14.0901 
 204   0.0000       0.518233        14.1018 
 205   0.0000       0.521357        14.1869 
 206   0.0000       0.530214        14.4278 
 207   0.0000       0.531751        14.4697 
 208   0.0000       0.532374        14.4866 
 209   0.0000       0.537543        14.6273 
 210   0.0000       0.560947        15.2641 
 211   0.0000       0.561010        15.2659 
 212   0.0000       0.568002        15.4561 
 213   0.0000       0.570063        15.5122 
 214   0.0000       0.585225        15.9248 
 215   0.0000       0.592197        16.1145 
 216   0.0000       0.592224        16.1152 
 217   0.0000       0.608154        16.5487 
 218   0.0000       0.624069        16.9818 
 219   0.0000       0.624452        16.9922 
 220   0.0000       0.667018        18.1505 
 221   0.0000       0.739877        20.1331 
 222   0.0000       0.742328        20.1998 
 223   0.0000       0.742566        20.2063 
 224   0.0000       0.747534        20.3414 
 225   0.0000       0.758473        20.6391 
 226   0.0000       0.770951        20.9786 
 227   0.0000       0.784400        21.3446 
 228   0.0000       0.784530        21.3482 
 229   0.0000       0.829578        22.5740 
 230   0.0000       0.830734        22.6054 
 231   0.0000       0.832738        22.6599 
 232   0.0000       0.832864        22.6634 
 233   0.0000       0.877631        23.8816 
 234   0.0000       0.878660        23.9095 
 235   0.0000       0.900744        24.5105 
 236   0.0000       0.912586        24.8327 
 237   0.0000       0.920063        25.0362 
 238   0.0000       0.920251        25.0413 
 239   0.0000       0.927103        25.2277 
 240   0.0000       0.927685        25.2436 
 241   0.0000       0.927747        25.2453 
 242   0.0000       1.003777        27.3142 
 243   0.0000       1.028642        27.9908 
 244   0.0000       1.028742        27.9935 
 245   0.0000       1.148623        31.2556 
 246   0.0000       1.190141        32.3854 
 247   0.0000       1.190556        32.3967 
 248   0.0000       1.227202        33.3939 
 249   0.0000       1.306817        35.5603 
 250   0.0000       1.307080        35.5675 
 251   0.0000       1.308797        35.6142 
 252   0.0000       1.308975        35.6190 
 253   0.0000       1.326922        36.1074 
 254   0.0000       1.339140        36.4398 
 255   0.0000       1.348029        36.6817 
 256   0.0000       1.350323        36.7442 
 257   0.0000       1.359068        36.9821 
 258   0.0000       1.359206        36.9859 
 259   0.0000       1.382829        37.6287 
 260   0.0000       1.383744        37.6536 
 261   0.0000       1.383857        37.6567 
 262   0.0000       1.400189        38.1011 
 263   0.0000       1.405478        38.2450 
 264   0.0000       1.443001        39.2661 
 265   0.0000       1.443153        39.2702 
 266   0.0000       1.453123        39.5415 
 267   0.0000       1.453456        39.5505 
 268   0.0000       1.459443        39.7135 
 269   0.0000       1.462956        39.8091 
 270   0.0000       1.465638        39.8820 
 271   0.0000       1.465713        39.8841 
 272   0.0000       1.481466        40.3127 
 273   0.0000       1.484248        40.3884 
 274   0.0000       1.484424        40.3932 
 275   0.0000       1.492506        40.6132 
 276   0.0000       1.509595        41.0782 
 277   0.0000       1.515552        41.2403 
 278   0.0000       1.516176        41.2572 
 279   0.0000       1.517921        41.3047 
 280   0.0000       1.518025        41.3076 
 281   0.0000       1.518829        41.3294 
 282   0.0000       1.518941        41.3325 
 283   0.0000       1.528797        41.6007 
 284   0.0000       1.529545        41.6210 
 285   0.0000       1.537616        41.8407 
 286   0.0000       1.537673        41.8422 
 287   0.0000       1.540996        41.9326 
 288   0.0000       1.546779        42.0900 
 289   0.0000       1.547924        42.1211 
 290   0.0000       1.550511        42.1915 
 291   0.0000       1.550605        42.1941 
 292   0.0000       1.553786        42.2807 
 293   0.0000       1.555425        42.3253 
 294   0.0000       1.555464        42.3263 
 295   0.0000       1.559388        42.4331 
 296   0.0000       1.560495        42.4632 
 297   0.0000       1.560620        42.4666 
 298   0.0000       1.561372        42.4871 
 299   0.0000       1.564211        42.5643 
 300   0.0000       1.564375        42.5688 
 301   0.0000       1.569799        42.7164 
 302   0.0000       1.577002        42.9124 
 303   0.0000       1.578751        42.9600 
 304   0.0000       1.578761        42.9603 
 305   0.0000       1.590491        43.2795 
 306   0.0000       1.593967        43.3740 
 307   0.0000       1.594017        43.3754 
 308   0.0000       1.597240        43.4631 
 309   0.0000       1.597427        43.4682 
 310   0.0000       1.597469        43.4694 
 311   0.0000       1.597994        43.4836 
 312   0.0000       1.602289        43.6005 
 313   0.0000       1.606606        43.7180 
 314   0.0000       1.609883        43.8071 
 315   0.0000       1.611697        43.8565 
 316   0.0000       1.612550        43.8797 
 317   0.0000       1.613254        43.8989 
 318   0.0000       1.613397        43.9028 
 319   0.0000       1.622789        44.1583 
 320   0.0000       1.622862        44.1603 
 321   0.0000       1.625086        44.2208 
 322   0.0000       1.631770        44.4027 
 323   0.0000       1.631821        44.4041 
 324   0.0000       1.632494        44.4224 
 325   0.0000       1.634212        44.4692 
 326   0.0000       1.638573        44.5878 
 327   0.0000       1.639220        44.6054 
 328   0.0000       1.639336        44.6086 
 329   0.0000       1.644045        44.7367 
 330   0.0000       1.648548        44.8593 
 331   0.0000       1.648571        44.8599 
 332   0.0000       1.649263        44.8787 
 333   0.0000       1.653421        44.9919 
 334   0.0000       1.655668        45.0530 
 335   0.0000       1.656522        45.0763 
 336   0.0000       1.658653        45.1342 
 337   0.0000       1.660323        45.1797 
 338   0.0000       1.661676        45.2165 
 339   0.0000       1.665788        45.3284 
 340   0.0000       1.675648        45.5967 
 341   0.0000       1.675917        45.6040 
 342   0.0000       1.684139        45.8278 
 343   0.0000       1.690680        46.0057 
 344   0.0000       1.698742        46.2251 
 345   0.0000       1.698793        46.2265 
 346   0.0000       1.700734        46.2793 
 347   0.0000       1.703811        46.3631 
 348   0.0000       1.721045        46.8320 
 349   0.0000       1.740302        47.3560 
 350   0.0000       1.752108        47.6773 
 351   0.0000       1.752341        47.6836 
 352   0.0000       1.765891        48.0523 
 353   0.0000       1.769313        48.1455 
 354   0.0000       1.811015        49.2802 
 355   0.0000       1.811290        49.2877 
 356   0.0000       1.816802        49.4377 
 357   0.0000       1.817392        49.4537 
 358   0.0000       1.823583        49.6222 
 359   0.0000       1.830235        49.8032 
 360   0.0000       1.858040        50.5598 
 361   0.0000       1.858077        50.5608 
 362   0.0000       1.887970        51.3743 
 363   0.0000       1.888131        51.3787 
 364   0.0000       1.905204        51.8432 
 365   0.0000       1.969834        53.6019 
 366   0.0000       1.981274        53.9132 
 367   0.0000       1.981863        53.9292 
 368   0.0000       2.040575        55.5269 
 369   0.0000       2.055511        55.9333 
 370   0.0000       2.055716        55.9389 
 371   0.0000       2.214967        60.2723 
 372   0.0000       2.227790        60.6212 
 373   0.0000       2.321257        63.1646 
 374   0.0000       2.331247        63.4365 
 375   0.0000       2.335604        63.5550 
 376   0.0000       2.335759        63.5592 
 377   0.0000       2.427195        66.0473 
 378   0.0000       2.450209        66.6736 
 379   0.0000       2.471502        67.2530 
 380   0.0000       2.471697        67.2583 
 381   0.0000       2.542160        69.1757 
 382   0.0000       2.551370        69.4263 
 383   0.0000       2.554824        69.5203 
 384   0.0000       2.669061        72.6288 
 385   0.0000       2.669559        72.6424 
 386   0.0000       2.899256        78.8928 
 387   0.0000       2.902514        78.9814 
 388   0.0000       2.902865        78.9910 
 389   0.0000       2.916043        79.3496 
 390   0.0000       2.916124        79.3518 
 391   0.0000       2.965601        80.6981 
 392   0.0000       2.965693        80.7006 
 393   0.0000       3.017149        82.1008 
 394   0.0000       3.063155        83.3527 
 395   0.0000      23.679358       644.3481 
 396   0.0000      23.680513       644.3795 
 397   0.0000      24.461398       665.6285 
 398   0.0000      24.895884       677.4514 
 399   0.0000      24.898388       677.5196 
 400   0.0000      24.942722       678.7260 
 401   0.0000      25.386184       690.7932 
 402   0.0000      25.390174       690.9018 
 403   0.0000      25.718162       699.8268 
 404   0.0000      25.739415       700.4051 
 405   0.0000      26.008347       707.7231 
 406   0.0000      26.023262       708.1290 
 407   0.0000      26.025664       708.1943 
 408   0.0000      26.063649       709.2279 
 409   0.0000      26.312089       715.9883 
 410   0.0000      26.401571       718.4233 
 411   0.0000      26.603593       723.9206 
 412   0.0000      26.820456       729.8217 
 413   0.0000      27.149608       738.7784 
 414   0.0000      27.152050       738.8449 
 415   0.0000      27.360997       744.5306 
 416   0.0000      27.361395       744.5414 
 417   0.0000      27.429598       746.3973 
 418   0.0000      27.922574       759.8119 
 419   0.0000      27.923453       759.8358 
 420   0.0000      28.082742       764.1703 
 421   0.0000      29.295509       797.1713 
 422   0.0000      29.686988       807.8240 
 423   0.0000      29.688639       807.8689 
 424   0.0000      30.111355       819.3716 
 425   0.0000      44.399170      1208.1628 
 426   0.0000      44.457374      1209.7467 
 427   0.0000      44.461090      1209.8478 
 428   0.0000      44.461266      1209.8526 
 429   0.0000      44.563573      1212.6365 
 430   0.0000      44.577527      1213.0162 
 431   0.0000      44.600330      1213.6367 
 432   0.0000      44.657222      1215.1848 
 433   0.0000      44.657523      1215.1930 
 434   0.0000      44.694788      1216.2070 
 435   0.0000     205.259787      5585.4028 
 436   0.0000     205.285725      5586.1086 
 437   0.0000     205.286269      5586.1234 
 438   0.0000     205.286334      5586.1251 
 439   0.0000     205.330734      5587.3333 
 440   0.0000     205.338773      5587.5521 
 441   0.0000     205.341975      5587.6392 
 442   0.0000     205.361408      5588.1680 
 443   0.0000     205.361506      5588.1707 
 444   0.0000     205.384961      5588.8089 

                 SPIN DOWN ORBITALS
  NO   OCC          E(Eh)            E(eV) 
   0   1.0000    -215.296548     -5858.5169 
   1   1.0000     -24.544705      -667.8954 
   2   1.0000     -20.825795      -566.6987 
   3   1.0000     -20.825778      -566.6982 
   4   1.0000     -20.821866      -566.5918 
   5   1.0000      -4.111895      -111.8903 
   6   1.0000      -4.111822      -111.8884 
   7   1.0000      -4.111752      -111.8865 
   8   1.0000      -4.111715      -111.8855 
   9   1.0000      -4.110423      -111.8503 
  10   1.0000      -4.110364      -111.8487 
  11   1.0000      -4.110308      -111.8472 
  12   1.0000      -4.110261      -111.8459 
  13   1.0000      -4.105128      -111.7062 
  14   1.0000      -4.104079      -111.6777 
  15   1.0000      -2.765115       -75.2426 
  16   1.0000      -2.303733       -62.6878 
  17   1.0000      -2.303614       -62.6845 
  18   1.0000      -2.303601       -62.6842 
  19   1.0000      -2.303384       -62.6783 
  20   1.0000      -2.300850       -62.6093 
  21   1.0000      -2.300435       -62.5980 
  22   1.0000      -2.300416       -62.5975 
  23   1.0000      -2.300031       -62.5870 
  24   1.0000      -2.298993       -62.5588 
  25   1.0000      -2.298608       -62.5483 
  26   1.0000      -2.298593       -62.5479 
  27   1.0000      -2.298017       -62.5322 
  28   1.0000      -2.295734       -62.4701 
  29   1.0000      -2.295551       -62.4651 
  30   1.0000      -2.295547       -62.4650 
  31   1.0000      -2.295086       -62.4525 
  32   1.0000      -2.292631       -62.3857 
  33   1.0000      -2.292106       -62.3714 
  34   1.0000      -2.292084       -62.3708 
  35   1.0000      -2.291607       -62.3578 
  36   1.0000      -2.290759       -62.3347 
  37   1.0000      -2.290365       -62.3240 
  38   1.0000      -2.290350       -62.3236 
  39   1.0000      -2.289976       -62.3134 
  40   1.0000      -2.289668       -62.3050 
  41   1.0000      -2.289620       -62.3037 
  42   1.0000      -2.289569       -62.3023 
  43   1.0000      -2.288655       -62.2775 
  44   1.0000      -2.288553       -62.2747 
  45   1.0000      -2.288526       -62.2740 
  46   1.0000      -1.715149       -46.6716 
  47   1.0000      -1.715103       -46.6703 
  48   1.0000      -1.706106       -46.4255 
  49   1.0000      -0.404267       -11.0007 
  50   1.0000      -0.368142       -10.0177 
  51   1.0000      -0.364947        -9.9307 
  52   1.0000      -0.356619        -9.7041 
  53   1.0000      -0.356580        -9.7030 
  54   1.0000      -0.355214        -9.6659 
  55   1.0000      -0.352753        -9.5989 
  56   1.0000      -0.344846        -9.3837 
  57   1.0000      -0.344794        -9.3823 
  58   1.0000      -0.342035        -9.3073 
  59   1.0000      -0.341585        -9.2950 
  60   1.0000      -0.341557        -9.2942 
  61   1.0000      -0.335955        -9.1418 
  62   1.0000      -0.335396        -9.1266 
  63   1.0000      -0.335337        -9.1250 
  64   1.0000      -0.329671        -8.9708 
  65   1.0000      -0.322590        -8.7781 
  66   1.0000      -0.314521        -8.5586 
  67   1.0000      -0.311261        -8.4699 
  68   1.0000      -0.311223        -8.4688 
  69   1.0000      -0.308913        -8.4060 
  70   1.0000      -0.308888        -8.4053 
  71   1.0000      -0.307672        -8.3722 
  72   1.0000      -0.307613        -8.3706 
  73   1.0000      -0.299362        -8.1460 
  74   1.0000      -0.298881        -8.1330 
  75   1.0000      -0.298787        -8.1304 
  76   1.0000      -0.294893        -8.0245 
  77   1.0000      -0.294499        -8.0137 
  78   1.0000      -0.293473        -7.9858 
  79   1.0000      -0.292415        -7.9570 
  80   1.0000      -0.292366        -7.9557 
  81   1.0000      -0.279167        -7.5965 
  82   1.0000      -0.278343        -7.5741 
  83   1.0000      -0.276368        -7.5204 
  84   1.0000      -0.273063        -7.4304 
  85   1.0000      -0.269790        -7.3414 
  86   1.0000      -0.268111        -7.2957 
  87   1.0000      -0.268075        -7.2947 
  88   1.0000      -0.266730        -7.2581 
  89   1.0000      -0.265728        -7.2308 
  90   1.0000      -0.263951        -7.1825 
  91   1.0000      -0.263934        -7.1820 
  92   1.0000      -0.261797        -7.1239 
  93   1.0000      -0.258197        -7.0259 
  94   1.0000      -0.257443        -7.0054 
  95   1.0000      -0.257389        -7.0039 
  96   1.0000      -0.255666        -6.9570 
  97   1.0000      -0.250496        -6.8163 
  98   1.0000      -0.250478        -6.8159 
  99   1.0000      -0.243998        -6.6395 
 100   1.0000      -0.238628        -6.4934 
 101   1.0000      -0.237905        -6.4737 
 102   1.0000      -0.237851        -6.4723 
 103   1.0000      -0.201817        -5.4917 
 104   1.0000      -0.195019        -5.3067 
 105   0.0000      -0.177462        -4.8290 
 106   0.0000      -0.177402        -4.8274 
 107   0.0000      -0.107591        -2.9277 
 108   0.0000      -0.100764        -2.7419 
 109   0.0000      -0.100727        -2.7409 
 110   0.0000      -0.095752        -2.6055 
 111   0.0000      -0.095382        -2.5955 
 112   0.0000      -0.085443        -2.3250 
 113   0.0000      -0.085410        -2.3241 
 114   0.0000      -0.079044        -2.1509 
 115   0.0000      -0.051233        -1.3941 
 116   0.0000      -0.051194        -1.3931 
 117   0.0000      -0.042767        -1.1638 
 118   0.0000      -0.036780        -1.0008 
 119   0.0000      -0.036756        -1.0002 
 120   0.0000      -0.036654        -0.9974 
 121   0.0000      -0.000458        -0.0125 
 122   0.0000       0.009011         0.2452 
 123   0.0000       0.023730         0.6457 
 124   0.0000       0.023809         0.6479 
 125   0.0000       0.036355         0.9893 
 126   0.0000       0.036379         0.9899 
 127   0.0000       0.049384         1.3438 
 128   0.0000       0.061975         1.6864 
 129   0.0000       0.064315         1.7501 
 130   0.0000       0.064339         1.7508 
 131   0.0000       0.066558         1.8111 
 132   0.0000       0.072611         1.9759 
 133   0.0000       0.076518         2.0822 
 134   0.0000       0.076581         2.0839 
 135   0.0000       0.082889         2.2555 
 136   0.0000       0.090515         2.4630 
 137   0.0000       0.091772         2.4972 
 138   0.0000       0.105157         2.8615 
 139   0.0000       0.106523         2.8986 
 140   0.0000       0.112781         3.0689 
 141   0.0000       0.112798         3.0694 
 142   0.0000       0.146955         3.9989 
 143   0.0000       0.147332         4.0091 
 144   0.0000       0.148652         4.0450 
 145   0.0000       0.154588         4.2065 
 146   0.0000       0.154619         4.2074 
 147   0.0000       0.168544         4.5863 
 148   0.0000       0.168549         4.5865 
 149   0.0000       0.169682         4.6173 
 150   0.0000       0.169745         4.6190 
 151   0.0000       0.195894         5.3306 
 152   0.0000       0.195904         5.3308 
 153   0.0000       0.210199         5.7198 
 154   0.0000       0.228456         6.2166 
 155   0.0000       0.238932         6.5017 
 156   0.0000       0.238990         6.5032 
 157   0.0000       0.241253         6.5648 
 158   0.0000       0.248651         6.7661 
 159   0.0000       0.248767         6.7693 
 160   0.0000       0.250792         6.8244 
 161   0.0000       0.259987         7.0746 
 162   0.0000       0.274005         7.4560 
 163   0.0000       0.274337         7.4651 
 164   0.0000       0.274407         7.4670 
 165   0.0000       0.299874         8.1600 
 166   0.0000       0.303523         8.2593 
 167   0.0000       0.305248         8.3062 
 168   0.0000       0.315411         8.5828 
 169   0.0000       0.315437         8.5835 
 170   0.0000       0.316082         8.6010 
 171   0.0000       0.321222         8.7409 
 172   0.0000       0.321254         8.7418 
 173   0.0000       0.322584         8.7779 
 174   0.0000       0.337554         9.1853 
 175   0.0000       0.352885         9.6025 
 176   0.0000       0.359584         9.7848 
 177   0.0000       0.364122         9.9083 
 178   0.0000       0.364194         9.9102 
 179   0.0000       0.375834        10.2270 
 180   0.0000       0.381063        10.3692 
 181   0.0000       0.381167        10.3721 
 182   0.0000       0.394704        10.7404 
 183   0.0000       0.394720        10.7409 
 184   0.0000       0.397496        10.8164 
 185   0.0000       0.406198        11.0532 
 186   0.0000       0.406237        11.0543 
 187   0.0000       0.407426        11.0866 
 188   0.0000       0.420503        11.4425 
 189   0.0000       0.423436        11.5223 
 190   0.0000       0.425747        11.5852 
 191   0.0000       0.442717        12.0469 
 192   0.0000       0.442756        12.0480 
 193   0.0000       0.455347        12.3906 
 194   0.0000       0.455427        12.3928 
 195   0.0000       0.455785        12.4026 
 196   0.0000       0.464613        12.6428 
 197   0.0000       0.466263        12.6877 
 198   0.0000       0.481967        13.1150 
 199   0.0000       0.494213        13.4482 
 200   0.0000       0.518796        14.1172 
 201   0.0000       0.518843        14.1184 
 202   0.0000       0.520091        14.1524 
 203   0.0000       0.522350        14.2139 
 204   0.0000       0.522424        14.2159 
 205   0.0000       0.530610        14.4386 
 206   0.0000       0.538522        14.6539 
 207   0.0000       0.539060        14.6686 
 208   0.0000       0.539735        14.6869 
 209   0.0000       0.541499        14.7349 
 210   0.0000       0.562011        15.2931 
 211   0.0000       0.562075        15.2948 
 212   0.0000       0.570463        15.5231 
 213   0.0000       0.572082        15.5672 
 214   0.0000       0.591672        16.1002 
 215   0.0000       0.603140        16.4123 
 216   0.0000       0.603183        16.4135 
 217   0.0000       0.627044        17.0627 
 218   0.0000       0.627842        17.0844 
 219   0.0000       0.628229        17.0950 
 220   0.0000       0.668560        18.1924 
 221   0.0000       0.741098        20.1663 
 222   0.0000       0.748769        20.3750 
 223   0.0000       0.752562        20.4783 
 224   0.0000       0.752960        20.4891 
 225   0.0000       0.758940        20.6518 
 226   0.0000       0.776551        21.1310 
 227   0.0000       0.786593        21.4043 
 228   0.0000       0.786724        21.4079 
 229   0.0000       0.832254        22.6468 
 230   0.0000       0.834961        22.7205 
 231   0.0000       0.835086        22.7239 
 232   0.0000       0.838858        22.8265 
 233   0.0000       0.880801        23.9678 
 234   0.0000       0.892376        24.2828 
 235   0.0000       0.919407        25.0183 
 236   0.0000       0.920045        25.0357 
 237   0.0000       0.924018        25.1438 
 238   0.0000       0.924157        25.1476 
 239   0.0000       0.931515        25.3478 
 240   0.0000       0.942028        25.6339 
 241   0.0000       0.942129        25.6366 
 242   0.0000       1.005930        27.3728 
 243   0.0000       1.034746        28.1569 
 244   0.0000       1.034845        28.1596 
 245   0.0000       1.157496        31.4971 
 246   0.0000       1.198222        32.6053 
 247   0.0000       1.198620        32.6161 
 248   0.0000       1.230472        33.4828 
 249   0.0000       1.308268        35.5998 
 250   0.0000       1.308582        35.6083 
 251   0.0000       1.318913        35.8895 
 252   0.0000       1.319071        35.8937 
 253   0.0000       1.330482        36.2042 
 254   0.0000       1.340478        36.4763 
 255   0.0000       1.349035        36.7091 
 256   0.0000       1.352502        36.8034 
 257   0.0000       1.365959        37.1696 
 258   0.0000       1.366115        37.1739 
 259   0.0000       1.385794        37.7094 
 260   0.0000       1.385957        37.7138 
 261   0.0000       1.404537        38.2194 
 262   0.0000       1.406162        38.2636 
 263   0.0000       1.407200        38.2919 
 264   0.0000       1.445019        39.3210 
 265   0.0000       1.445201        39.3259 
 266   0.0000       1.459265        39.7086 
 267   0.0000       1.459545        39.7162 
 268   0.0000       1.459834        39.7241 
 269   0.0000       1.467065        39.9209 
 270   0.0000       1.468823        39.9687 
 271   0.0000       1.468903        39.9709 
 272   0.0000       1.485133        40.4125 
 273   0.0000       1.487751        40.4838 
 274   0.0000       1.489782        40.5390 
 275   0.0000       1.495592        40.6971 
 276   0.0000       1.514805        41.2199 
 277   0.0000       1.516749        41.2728 
 278   0.0000       1.520206        41.3669 
 279   0.0000       1.520330        41.3703 
 280   0.0000       1.520709        41.3806 
 281   0.0000       1.521426        41.4001 
 282   0.0000       1.521520        41.4027 
 283   0.0000       1.532078        41.6900 
 284   0.0000       1.532564        41.7032 
 285   0.0000       1.540978        41.9322 
 286   0.0000       1.541032        41.9336 
 287   0.0000       1.542915        41.9849 
 288   0.0000       1.548786        42.1446 
 289   0.0000       1.550458        42.1901 
 290   0.0000       1.553544        42.2741 
 291   0.0000       1.553619        42.2761 
 292   0.0000       1.553718        42.2788 
 293   0.0000       1.558041        42.3965 
 294   0.0000       1.558082        42.3976 
 295   0.0000       1.560089        42.4522 
 296   0.0000       1.563031        42.5322 
 297   0.0000       1.563095        42.5340 
 298   0.0000       1.563960        42.5575 
 299   0.0000       1.567415        42.6515 
 300   0.0000       1.567558        42.6554 
 301   0.0000       1.571963        42.7753 
 302   0.0000       1.580205        42.9996 
 303   0.0000       1.580686        43.0127 
 304   0.0000       1.580693        43.0128 
 305   0.0000       1.593965        43.3740 
 306   0.0000       1.597282        43.4642 
 307   0.0000       1.597326        43.4655 
 308   0.0000       1.599489        43.5243 
 309   0.0000       1.599540        43.5257 
 310   0.0000       1.601652        43.5832 
 311   0.0000       1.603665        43.6379 
 312   0.0000       1.605325        43.6831 
 313   0.0000       1.611941        43.8632 
 314   0.0000       1.613181        43.8969 
 315   0.0000       1.614615        43.9359 
 316   0.0000       1.614913        43.9440 
 317   0.0000       1.615040        43.9475 
 318   0.0000       1.622650        44.1545 
 319   0.0000       1.625306        44.2268 
 320   0.0000       1.625398        44.2293 
 321   0.0000       1.627978        44.2995 
 322   0.0000       1.633222        44.4422 
 323   0.0000       1.633265        44.4434 
 324   0.0000       1.635264        44.4978 
 325   0.0000       1.640534        44.6412 
 326   0.0000       1.640660        44.6446 
 327   0.0000       1.640693        44.6455 
 328   0.0000       1.644728        44.7553 
 329   0.0000       1.646556        44.8051 
 330   0.0000       1.652292        44.9611 
 331   0.0000       1.655200        45.0403 
 332   0.0000       1.655221        45.0409 
 333   0.0000       1.657614        45.1060 
 334   0.0000       1.658921        45.1415 
 335   0.0000       1.660167        45.1754 
 336   0.0000       1.661997        45.2252 
 337   0.0000       1.664738        45.2998 
 338   0.0000       1.664893        45.3040 
 339   0.0000       1.669049        45.4171 
 340   0.0000       1.687065        45.9074 
 341   0.0000       1.695572        46.1389 
 342   0.0000       1.695826        46.1458 
 343   0.0000       1.700961        46.2855 
 344   0.0000       1.701012        46.2869 
 345   0.0000       1.705809        46.4174 
 346   0.0000       1.722170        46.8626 
 347   0.0000       1.725333        46.9487 
 348   0.0000       1.730588        47.0917 
 349   0.0000       1.751831        47.6697 
 350   0.0000       1.756412        47.7944 
 351   0.0000       1.756674        47.8015 
 352   0.0000       1.771202        48.1969 
 353   0.0000       1.772448        48.2308 
 354   0.0000       1.817254        49.4500 
 355   0.0000       1.817569        49.4586 
 356   0.0000       1.824127        49.6370 
 357   0.0000       1.830257        49.8038 
 358   0.0000       1.831634        49.8413 
 359   0.0000       1.841016        50.0966 
 360   0.0000       1.861983        50.6671 
 361   0.0000       1.862059        50.6692 
 362   0.0000       1.892325        51.4928 
 363   0.0000       1.892487        51.4972 
 364   0.0000       1.916823        52.1594 
 365   0.0000       1.972473        53.6737 
 366   0.0000       2.019179        54.9446 
 367   0.0000       2.019807        54.9617 
 368   0.0000       2.074096        56.4390 
 369   0.0000       2.083279        56.6889 
 370   0.0000       2.083513        56.6953 
 371   0.0000       2.226060        60.5742 
 372   0.0000       2.270014        61.7702 
 373   0.0000       2.326762        63.3144 
 374   0.0000       2.344195        63.7888 
 375   0.0000       2.344352        63.7931 
 376   0.0000       2.426864        66.0383 
 377   0.0000       2.450118        66.6711 
 378   0.0000       2.453799        66.7713 
 379   0.0000       2.487079        67.6769 
 380   0.0000       2.487323        67.6835 
 381   0.0000       2.561591        69.7044 
 382   0.0000       2.564402        69.7809 
 383   0.0000       2.605133        70.8893 
 384   0.0000       2.721356        74.0519 
 385   0.0000       2.721821        74.0645 
 386   0.0000       2.953668        80.3734 
 387   0.0000       2.991918        81.4142 
 388   0.0000       3.045199        82.8641 
 389   0.0000       3.052125        83.0525 
 390   0.0000       3.052162        83.0535 
 391   0.0000       3.105743        84.5116 
 392   0.0000       3.105802        84.5132 
 393   0.0000       3.158698        85.9525 
 394   0.0000       3.161568        86.0306 
 395   0.0000      23.682021       644.4206 
 396   0.0000      23.683172       644.4519 
 397   0.0000      24.463566       665.6875 
 398   0.0000      24.898492       677.5224 
 399   0.0000      24.900998       677.5906 
 400   0.0000      24.945243       678.7946 
 401   0.0000      25.388629       690.8597 
 402   0.0000      25.392616       690.9682 
 403   0.0000      25.722179       699.9361 
 404   0.0000      25.742009       700.4757 
 405   0.0000      26.010877       707.7920 
 406   0.0000      26.026131       708.2070 
 407   0.0000      26.028537       708.2725 
 408   0.0000      26.067335       709.3283 
 409   0.0000      26.315467       716.0803 
 410   0.0000      26.405103       718.5194 
 411   0.0000      26.608305       724.0488 
 412   0.0000      26.824503       729.9318 
 413   0.0000      27.152282       738.8512 
 414   0.0000      27.154724       738.9176 
 415   0.0000      27.365594       744.6557 
 416   0.0000      27.365997       744.6666 
 417   0.0000      27.433176       746.4947 
 418   0.0000      27.925878       759.9018 
 419   0.0000      27.926756       759.9257 
 420   0.0000      28.086739       764.2790 
 421   0.0000      29.300151       797.2976 
 422   0.0000      29.691513       807.9471 
 423   0.0000      29.693157       807.9919 
 424   0.0000      30.115966       819.4971 
 425   0.0000      44.402633      1208.2571 
 426   0.0000      44.460901      1209.8426 
 427   0.0000      44.464599      1209.9433 
 428   0.0000      44.464775      1209.9480 
 429   0.0000      44.566929      1212.7278 
 430   0.0000      44.580869      1213.1071 
 431   0.0000      44.603906      1213.7340 
 432   0.0000      44.660772      1215.2814 
 433   0.0000      44.661074      1215.2896 
 434   0.0000      44.698377      1216.3047 
 435   0.0000     205.260322      5585.4173 
 436   0.0000     205.286259      5586.1231 
 437   0.0000     205.286790      5586.1376 
 438   0.0000     205.286855      5586.1393 
 439   0.0000     205.331312      5587.3490 
 440   0.0000     205.339352      5587.5678 
 441   0.0000     205.342500      5587.6535 
 442   0.0000     205.361932      5588.1823 
 443   0.0000     205.362030      5588.1849 
 444   0.0000     205.385486      5588.8232 

                    ********************************
                    * MULLIKEN POPULATION ANALYSIS *
                    ********************************

--------------------------------------------
MULLIKEN ATOMIC CHARGES AND SPIN POPULATIONS
--------------------------------------------
   0 Au:    0.284325    0.185207
   1 Au:    0.338088    0.034782
   2 Au:    0.365903    0.029361
   3 Au:    0.339427    0.036442
   4 Au:    0.366907    0.030793
   5 Au:    0.340058    0.035238
   6 Au:    0.366548    0.030301
   7 Au:    0.314592    0.173640
   8 Au:    0.368093    0.031901
   9 Au:    0.338422    0.033602
  10 Cr:   -3.422362    3.378733
Sum of atomic charges         :    0.0000000
Sum of atomic spin populations:    4.0000000

-----------------------------------------------------
MULLIKEN REDUCED ORBITAL CHARGES AND SPIN POPULATIONS
-----------------------------------------------------
CHARGE
  0 Aus       :     2.930558  s :     2.930558
      pz      :     2.009484  p :     6.075191
      px      :     2.033400
      py      :     2.032308
      dz2     :     1.949605  d :     9.706864
      dxz     :     1.921858
      dyz     :     1.931808
      dx2y2   :     1.958035
      dxy     :     1.945559
      f0      :     0.000417  f :     0.003062
      f+1     :     0.000542
      f-1     :     0.000428
      f+2     :     0.000504
      f-2     :     0.000565
      f+3     :     0.000280
      f-3     :     0.000326
  1 Aus       :     2.850397  s :     2.850397
[...]
      dxy     :     0.000558
      f0      :     0.000024  f :     0.000049
      f+1     :     0.000007
      f-1     :     0.000014
      f+2     :    -0.000003
      f-2     :     0.000003
      f+3     :    -0.000008
      f-3     :     0.000013
  8 Aus       :    -0.073156  s :    -0.073156
      pz      :    -0.000185  p :     0.000947
      px      :     0.001447
      py      :    -0.000315
      dz2     :     0.006625  d :     0.030499
      dxz     :     0.004026
      dyz     :     0.001973
      dx2y2   :     0.012280
      dxy     :     0.005595
      f0      :     0.000040  f :     0.000409
      f+1     :    -0.000009
      f-1     :     0.000068
      f+2     :     0.000053
      f-2     :     0.000064
      f+3     :     0.000097
      f-3     :     0.000095
  9 Aus       :    -0.072456  s :    -0.072456
      pz      :    -0.002419  p :     0.001011
      px      :     0.001835
      py      :     0.001595
      dz2     :     0.008672  d :     0.029164
      dxz     :     0.003560
      dyz     :     0.007229
      dx2y2   :     0.007635
      dxy     :     0.002069
      f0      :     0.000069  f :     0.000388
      f+1     :     0.000023
      f-1     :     0.000069
      f+2     :     0.000051
      f-2     :     0.000112
      f+3     :     0.000041
      f-3     :     0.000024
 10 Crs       :    -0.094119  s :    -0.094119
      pz      :     0.037922  p :     0.112328
      px      :     0.038104
      py      :     0.036303
      dz2     :     0.541997  d :     2.874992
      dxz     :     0.669167
      dyz     :     0.473708
      dx2y2   :     0.667149
      dxy     :     0.522970
      f0      :     0.000022  f :     0.000173
      f+1     :     0.000027
      f-1     :     0.000022
      f+2     :     0.000028
      f-2     :     0.000032
      f+3     :     0.000021
      f-3     :     0.000022


                     *******************************
                     * LOEWDIN POPULATION ANALYSIS *
                     *******************************

-------------------------------------------
LOEWDIN ATOMIC CHARGES AND SPIN POPULATIONS
-------------------------------------------
   0 Au:    0.104351   -0.215077
   1 Au:    0.113677   -0.060750
   2 Au:    0.119727   -0.068695
   3 Au:    0.110859   -0.068435
   4 Au:    0.122041   -0.060669
   5 Au:    0.113515   -0.060829
   6 Au:    0.122167   -0.060711
   7 Au:    0.103261   -0.218888
   8 Au:    0.119253   -0.068645
   9 Au:    0.111284   -0.068201
  10 Cr:   -1.140134    2.950900

----------------------------------------------------
LOEWDIN REDUCED ORBITAL CHARGES AND SPIN POPULATIONS
----------------------------------------------------
CHARGE
  0 Aus       :     2.604949  s :     2.604949
      pz      :     2.112239  p :     6.381990
      px      :     2.110527
      py      :     2.159224
      dz2     :     1.982455  d :     9.904808
      dxz     :     1.974673
      dyz     :     1.996773
      dx2y2   :     1.978258
      dxy     :     1.972649
      f0      :     0.000525  f :     0.003902
      f+1     :     0.000705
      f-1     :     0.000517
      f+2     :     0.000628
      f-2     :     0.000708
      f+3     :     0.000387
      f-3     :     0.000431
  1 Aus       :     2.611563  s :     2.611563
      pz      :     2.137388  p :     6.396065
      px      :     2.136802
      py      :     2.121875
      dz2     :     1.987633  d :     9.873756
      dxz     :     1.932531
      dyz     :     1.973762
      dx2y2   :     1.989154
      dxy     :     1.990675
      f0      :     0.001118  f :     0.004940
      f+1     :     0.000887
      f-1     :     0.000753
      f+2     :     0.000593
      f-2     :     0.000641
      f+3     :     0.000381
      f-3     :     0.000567
  2 Aus       :     2.627646  s :     2.627646
      pz      :     2.147635  p :     6.380615
      px      :     2.091661
      py      :     2.141318
      dz2     :     1.982765  d :     9.867267
      dxz     :     1.971257
      dyz     :     1.946121
      dx2y2   :     1.989280
      dxy     :     1.977844
      f0      :     0.001050  f :     0.004745
      f+1     :     0.000728
      f-1     :     0.000833
      f+2     :     0.000600
      f-2     :     0.000607
      f+3     :     0.000476
      f-3     :     0.000452
  3 Aus       :     2.616221  s :     2.616221
      pz      :     2.183035  p :     6.397796
      px      :     2.120062
      py      :     2.094699
      dz2     :     1.972310  d :     9.870150
      dxz     :     1.973497
      dyz     :     1.976915
      dx2y2   :     1.967110
      dxy     :     1.980317
      f0      :     0.001036  f :     0.004974
      f+1     :     0.000714
      f-1     :     0.001038
      f+2     :     0.000529
      f-2     :     0.000606
      f+3     :     0.000523
      f-3     :     0.000527
  4 Aus       :     2.621718  s :     2.621718
      pz      :     2.187762  p :     6.381015
      px      :     2.094249
      py      :     2.099004
      dz2     :     1.963065  d :     9.870457
      dxz     :     1.981614
      dyz     :     1.981291
      dx2y2   :     1.982693
      dxy     :     1.961793
      f0      :     0.000928  f :     0.004769
      f+1     :     0.001033
      f-1     :     0.000747
      f+2     :     0.000480
      f-2     :     0.000533
      f+3     :     0.000494
      f-3     :     0.000554
  5 Aus       :     2.611194  s :     2.611194
      pz      :     2.194902  p :     6.396340
      px      :     2.097583
      py      :     2.103855
      dz2     :     1.964828  d :     9.874003
      dxz     :     1.980028
      dyz     :     1.981559
      dx2y2   :     1.984662
      dxy     :     1.962926
      f0      :     0.001024  f :     0.004948
      f+1     :     0.001058
      f-1     :     0.000778
      f+2     :     0.000483
      f-2     :     0.000521
      f+3     :     0.000518
      f-3     :     0.000567
  6 Aus       :     2.621949  s :     2.621949
      pz      :     2.133984  p :     6.380825
      px      :     2.130870
      py      :     2.115971
      dz2     :     1.986967  d :     9.870301
      dxz     :     1.933489
      dyz     :     1.973617
      dx2y2   :     1.988239
      dxy     :     1.987989
      f0      :     0.001128  f :     0.004758
      f+1     :     0.000846
      f-1     :     0.000720
      f+2     :     0.000563
      f-2     :     0.000601
      f+3     :     0.000350
      f-3     :     0.000549
  7 Aus       :     2.597114  s :     2.597114
      pz      :     2.111405  p :     6.395683
      px      :     2.118542
      py      :     2.165735
      dz2     :     1.974577  d :     9.899961
      dxz     :     1.977804
      dyz     :     1.995878
      dx2y2   :     1.978665
      dxy     :     1.973037
      f0      :     0.000538  f :     0.003981
      f+1     :     0.000707
      f-1     :     0.000517
      f+2     :     0.000630
      f-2     :     0.000720
      f+3     :     0.000411
      f-3     :     0.000460
  8 Aus       :     2.626193  s :     2.626193
      pz      :     2.176652  p :     6.382656
      px      :     2.114153
      py      :     2.091850
      dz2     :     1.970714  d :     9.867111
      dxz     :     1.974179
      dyz     :     1.977795
      dx2y2   :     1.966427
      dxy     :     1.977996
      f0      :     0.000964  f :     0.004787
      f+1     :     0.000645
      f-1     :     0.001043
      f+2     :     0.000513
      f-2     :     0.000600
      f+3     :     0.000522
      f-3     :     0.000499
  9 Aus       :     2.617231  s :     2.617231
      pz      :     2.151944  p :     6.395966
      px      :     2.096168
      py      :     2.147855
      dz2     :     1.984593  d :     9.870588
      dxz     :     1.969658
      dyz     :     1.945240
      dx2y2   :     1.991854
      dxy     :     1.979243
      f0      :     0.001059  f :     0.004931
      f+1     :     0.000725
      f-1     :     0.000905
      f+2     :     0.000645
      f-2     :     0.000627
      f+3     :     0.000483
      f-3     :     0.000487
 10 Crs       :     6.280708  s :     6.280708
      pz      :     4.196775  p :    12.670452
      px      :     4.237958
      py      :     4.235719
      dz2     :     1.268547  d :     6.186032
      dxz     :     1.164450
      dyz     :     1.304873
      dx2y2   :     1.200747
      dxy     :     1.247415
      f0      :     0.000348  f :     0.002941
      f+1     :     0.000403
      f-1     :     0.000315
      f+2     :     0.000438
      f-2     :     0.000537
      f+3     :     0.000418
      f-3     :     0.000482

SPIN
  0 Aus       :    -0.169328  s :    -0.169328
      pz      :    -0.024350  p :    -0.055156
      px      :     0.010735
      py      :    -0.041541
      dz2     :    -0.004877  d :     0.009353
      dxz     :     0.017776
      dyz     :    -0.005162
      dx2y2   :     0.001154
      dxy     :     0.000462
      f0      :     0.000027  f :     0.000054
      f+1     :     0.000013
      f-1     :     0.000016
      f+2     :    -0.000008
      f-2     :     0.000002
      f+3     :    -0.000023
      f-3     :     0.000026
  1 Aus       :    -0.048023  s :    -0.048023
      pz      :    -0.024074  p :    -0.043218
      px      :    -0.015031
      py      :    -0.004113
      dz2     :     0.008692  d :     0.029824
      dxz     :     0.009250
      dyz     :     0.005964
      dx2y2   :     0.004152
      dxy     :     0.001766
      f0      :     0.000098  f :     0.000667
      f+1     :     0.000226
      f-1     :     0.000050
      f+2     :     0.000152
      f-2     :     0.000076
      f+3     :     0.000031
      f-3     :     0.000035
  2 Aus       :    -0.057903  s :    -0.057903
      pz      :    -0.029827  p :    -0.044723
      px      :     0.001073
      py      :    -0.015969
      dz2     :     0.011440  d :     0.033251
      dxz     :     0.004154
      dyz     :     0.006061
      dx2y2   :     0.008067
      dxy     :     0.003528
      f0      :     0.000132  f :     0.000681
      f+1     :     0.000043
      f-1     :     0.000085
      f+2     :     0.000089
      f-2     :     0.000184
      f+3     :     0.000083
      f-3     :     0.000065
  3 Aus       :    -0.055815  s :    -0.055815
      pz      :    -0.028511  p :    -0.044514
      px      :    -0.007440
      py      :    -0.008564
      dz2     :     0.003024  d :     0.031245
      dxz     :     0.003496
      dyz     :     0.001975
      dx2y2   :     0.014242
      dxy     :     0.008507
      f0      :     0.000064  f :     0.000649
      f+1     :    -0.000034
      f-1     :     0.000100
      f+2     :     0.000108
      f-2     :     0.000096
      f+3     :     0.000160
      f-3     :     0.000154
  4 Aus       :    -0.050204  s :    -0.050204
      pz      :    -0.031040  p :    -0.042804
      px      :    -0.005518
      py      :    -0.006246
      dz2     :     0.004703  d :     0.031640
      dxz     :     0.001060
      dyz     :     0.005778
      dx2y2   :     0.010042
      dxy     :     0.010056
      f0      :     0.000035  f :     0.000701
      f+1     :     0.000044
      f-1     :     0.000083
      f+2     :     0.000070
      f-2     :     0.000088
      f+3     :     0.000184
      f-3     :     0.000198
  5 Aus       :    -0.048359  s :    -0.048359
      pz      :    -0.030230  p :    -0.042673
      px      :    -0.005356
      py      :    -0.007087
      dz2     :     0.003499  d :     0.029536
      dxz     :     0.001652
      dyz     :     0.004498
      dx2y2   :     0.009946
      dxy     :     0.009940
      f0      :     0.000050  f :     0.000667
      f+1     :     0.000020
      f-1     :     0.000076
      f+2     :     0.000074
      f-2     :     0.000093
      f+3     :     0.000161
      f-3     :     0.000193
  6 Aus       :    -0.049831  s :    -0.049831
      pz      :    -0.023889  p :    -0.043327
      px      :    -0.015371
      py      :    -0.004067
      dz2     :     0.009376  d :     0.031747
      dxz     :     0.009298
      dyz     :     0.006168
      dx2y2   :     0.003875
      dxy     :     0.003030
      f0      :     0.000114  f :     0.000699
      f+1     :     0.000201
      f-1     :     0.000041
      f+2     :     0.000163
      f-2     :     0.000094
      f+3     :     0.000041
      f-3     :     0.000045
  7 Aus       :    -0.174223  s :    -0.174223
      pz      :    -0.024429  p :    -0.053460
      px      :     0.011032
      py      :    -0.040063
      dz2     :    -0.005223  d :     0.008682
      dxz     :     0.016478
      dyz     :    -0.003884
      dx2y2   :     0.001028
      dxy     :     0.000283
      f0      :     0.000061  f :     0.000113
      f+1     :     0.000019
      f-1     :     0.000036
      f+2     :    -0.000007
      f-2     :     0.000004
      f+3     :    -0.000025
      f-3     :     0.000026
  8 Aus       :    -0.057616  s :    -0.057616
      pz      :    -0.029283  p :    -0.044838
      px      :    -0.007312
      py      :    -0.008243
      dz2     :     0.003775  d :     0.033127
      dxz     :     0.003745
      dyz     :     0.003079
      dx2y2   :     0.014314
      dxy     :     0.008213
      f0      :     0.000056  f :     0.000683
      f+1     :    -0.000033
      f-1     :     0.000121
      f+2     :     0.000098
      f-2     :     0.000098
      f+3     :     0.000173
      f-3     :     0.000170
  9 Aus       :    -0.056065  s :    -0.056065
      pz      :    -0.029965  p :    -0.044376
      px      :     0.001075
      py      :    -0.015486
      dz2     :     0.010621  d :     0.031592
      dxz     :     0.004528
      dyz     :     0.005724
      dx2y2   :     0.006655
      dxy     :     0.004065
      f0      :     0.000121  f :     0.000648
      f+1     :     0.000047
      f-1     :     0.000101
      f+2     :     0.000075
      f-2     :     0.000182
      f+3     :     0.000072
      f-3     :     0.000049
 10 Crs       :     0.013864  s :     0.013864
      pz      :     0.015653  p :     0.047286
      px      :     0.016193
      py      :     0.015439
      dz2     :     0.582195  d :     2.889648
      dxz     :     0.621806
      dyz     :     0.523164
      dx2y2   :     0.650718
      dxy     :     0.511765
      f0      :     0.000013  f :     0.000101
      f+1     :     0.000018
      f-1     :     0.000014
      f+2     :     0.000018
      f-2     :     0.000020
      f+3     :     0.000010
      f-3     :     0.000009


                      *****************************
                      * MAYER POPULATION ANALYSIS *
                      *****************************

  NA   - Mulliken gross atomic population
  ZA   - Total nuclear charge
  QA   - Mulliken gross atomic charge
  VA   - Mayer's total valence
  BVA  - Mayer's bonded valence
  FA   - Mayer's free valence

  ATOM       NA         ZA         QA         VA         BVA        FA
  0 Au    18.5985    19.0000     0.4015     1.4407     1.3483     0.0924
  1 Au    18.6905    19.0000     0.3095     1.6729     1.6601     0.0128
  2 Au    18.6637    19.0000     0.3363     1.6545     1.6402     0.0143
  3 Au    18.6950    19.0000     0.3050     1.6832     1.6696     0.0137
  4 Au    18.6604    19.0000     0.3396     1.6476     1.6340     0.0136
  5 Au    18.6891    19.0000     0.3109     1.6728     1.6599     0.0129
  6 Au    18.6603    19.0000     0.3397     1.6471     1.6336     0.0135
  7 Au    18.5805    19.0000     0.4195     1.4551     1.3597     0.0954
  8 Au    18.6635    19.0000     0.3365     1.6564     1.6421     0.0143
  9 Au    18.6938    19.0000     0.3062     1.6806     1.6669     0.0137
 10 Cr    27.4048    24.0000    -3.4048     9.8185     7.1352     2.6833

  Mayer bond orders larger than 0.100000
B(  0-Au,  1-Au) :   0.1889 B(  0-Au,  3-Au) :   0.1931 B(  0-Au,  5-Au) :   0.1880 
B(  0-Au,  9-Au) :   0.1877 B(  0-Au, 10-Cr) :   0.4337 B(  1-Au,  4-Au) :   0.4077 
B(  1-Au, 10-Cr) :   0.7602 B(  2-Au,  3-Au) :   0.3976 B(  2-Au,  7-Au) :   0.1776 
B(  2-Au, 10-Cr) :   0.7975 B(  3-Au, 10-Cr) :   0.7761 B(  4-Au,  7-Au) :   0.1784 
B(  4-Au, 10-Cr) :   0.7787 B(  5-Au,  6-Au) :   0.4071 B(  5-Au, 10-Cr) :   0.7592 
B(  6-Au,  7-Au) :   0.1789 B(  6-Au, 10-Cr) :   0.7797 B(  7-Au,  8-Au) :   0.1827 
B(  7-Au, 10-Cr) :   0.4761 B(  8-Au,  9-Au) :   0.3967 B(  8-Au, 10-Cr) :   0.7959 
B(  9-Au, 10-Cr) :   0.7781 

-------
TIMINGS
-------

Total SCF time: 0 days 0 hours 1 min 59 sec 

Total time                  ....     119.355 sec
Sum of individual times     ....     116.993 sec  ( 98.0%)

Fock matrix formation       ....     104.045 sec  ( 87.2%)
  Split-RI-J                ....      20.765 sec  ( 20.0% of F)
  XC integration            ....      78.454 sec  ( 75.4% of F)
    Basis function eval.    ....       4.181 sec  (  5.3% of XC)
    Density eval.           ....      25.719 sec  ( 32.8% of XC)
    XC-Functional eval.     ....       3.090 sec  (  3.9% of XC)
    XC-Potential eval.      ....      28.024 sec  ( 35.7% of XC)
Diagonalization             ....      10.466 sec  (  8.8%)
Density matrix formation    ....       0.536 sec  (  0.4%)
Population analysis         ....       0.185 sec  (  0.2%)
Initial guess               ....       0.162 sec  (  0.1%)
Orbital Transformation      ....       0.000 sec  (  0.0%)
Orbital Orthonormalization  ....       0.120 sec  (  0.1%)
DIIS solution               ....       0.000 sec  (  0.0%)
Grid generation             ....       1.598 sec  (  1.3%)

Maximum memory used throughout the entire SCF-calculation: 65.3 MB

-------------------------   --------------------
FINAL SINGLE POINT ENERGY     -2402.854980341551
-------------------------   --------------------


                            ***************************************
                            *     ORCA property calculations      *
                            ***************************************

                                    ---------------------
                                    Active property flags
                                    ---------------------
   (+) Dipole Moment


------------------------------------------------------------------------------
                       ORCA ELECTRIC PROPERTIES CALCULATION
------------------------------------------------------------------------------

Dipole Moment Calculation                       ... on
Quadrupole Moment Calculation                   ... off
Polarizability Calculation                      ... off
GBWName                                         ... scan_job2.gbw
Electron density                                ... scan_job2.scfp
The origin for moment calculation is the CENTER OF MASS  = (13.736236, 13.457893 15.446546)

-------------
DIPOLE MOMENT
-------------
                                X             Y             Z
Electronic contribution:      0.33588      -0.51191      -1.85202
Nuclear contribution   :     -0.33407       0.50920       1.84219
                        -----------------------------------------
Total Dipole Moment    :      0.00182      -0.00271      -0.00984
                        -----------------------------------------
Magnitude (a.u.)       :      0.01037
Magnitude (Debye)      :      0.02635



--------------------
Rotational spectrum 
--------------------
 
Rotational constants in cm-1:     0.002177     0.001594     0.001593 
Rotational constants in MHz :    65.264761    47.787572    47.770293 

 Dipole components along the rotational axes: 
x,y,z [a.u.] :    -0.010365    -0.000011    -0.000079 
x,y,z [Debye]:    -0.026345    -0.000027    -0.000200 

 

Timings for individual modules:

Sum of individual times         ...      127.661 sec (=   2.128 min)
GTO integral calculation        ...        7.854 sec (=   0.131 min)   6.2 %
SCF iterations                  ...      119.807 sec (=   1.997 min)  93.8 %



                             ****ORCA TERMINATED NORMALLY****
TOTAL RUN TIME: 0 days 0 hours 4 minutes 30 seconds 752 msec
