
                                 *****************
                                 * O   R   C   A *
                                 *****************

                                            #,                                       
                                            ###                                      
                                            ####                                     
                                            #####                                    
                                            ######                                   
                                           ########,                                 
                                     ,,################,,,,,                         
                               ,,#################################,,                 
                          ,,##########################################,,             
                       ,#########################################, ''#####,          
                    ,#############################################,,   '####,        
                  ,##################################################,,,,####,       
                ,###########''''           ''''###############################       
              ,#####''   ,,,,##########,,,,          '''####'''          '####       
            ,##' ,,,,###########################,,,                        '##       
           ' ,,###''''                  '''############,,,                           
         ,,##''                                '''############,,,,        ,,,,,,###''
      ,#''                                            '''#######################'''  
     '                                                          ''''####''''         
             ,#######,   #######,   ,#######,      ##                                
            ,#'     '#,  ##    ##  ,#'     '#,    #''#        ######   ,####,        
            ##       ##  ##   ,#'  ##            #'  '#       #        #'  '#        
            ##       ##  #######   ##           ,######,      #####,   #    #        
            '#,     ,#'  ##    ##  '#,     ,#' ,#      #,         ##   #,  ,#        
             '#######'   ##     ##  '#######'  #'      '#     #####' # '####'        



                  #######################################################
                  #                        -***-                        #
                  #          Department of theory and spectroscopy      #
                  #    Directorship and core code : Frank Neese         #
                  #        Max Planck Institute fuer Kohlenforschung    #
                  #                Kaiser Wilhelm Platz 1               #
                  #                 D-45470 Muelheim/Ruhr               #
                  #                      Germany                        #
                  #                                                     #
                  #                  All rights reserved                #
                  #                        -***-                        #
                  #######################################################


                         Program Version 5.0.3 -  RELEASE  -


 With contributions from (in alphabetic order):
   Daniel Aravena         : Magnetic Suceptibility
   Michael Atanasov       : Ab Initio Ligand Field Theory (pilot matlab implementation)
   Alexander A. Auer      : GIAO ZORA, VPT2 properties, NMR spectrum
   Ute Becker             : Parallelization
   Giovanni Bistoni       : ED, misc. LED, open-shell LED, HFLD
   Martin Brehm           : Molecular dynamics
   Dmytro Bykov           : SCF Hessian
   Vijay G. Chilkuri      : MRCI spin determinant printing, contributions to CSF-ICE
   Dipayan Datta          : RHF DLPNO-CCSD density
   Achintya Kumar Dutta   : EOM-CC, STEOM-CC
   Dmitry Ganyushin       : Spin-Orbit,Spin-Spin,Magnetic field MRCI
   Miquel Garcia          : C-PCM and meta-GGA Hessian, CC/C-PCM, Gaussian charge scheme
   Yang Guo               : DLPNO-NEVPT2, F12-NEVPT2, CIM, IAO-localization
   Andreas Hansen         : Spin unrestricted coupled pair/coupled cluster methods
   Benjamin Helmich-Paris : MC-RPA, TRAH-SCF, COSX integrals
   Lee Huntington         : MR-EOM, pCC
   Robert Izsak           : Overlap fitted RIJCOSX, COSX-SCS-MP3, EOM
   Marcus Kettner         : VPT2
   Christian Kollmar      : KDIIS, OOCD, Brueckner-CCSD(T), CCSD density, CASPT2, CASPT2-K
   Simone Kossmann        : Meta GGA functionals, TD-DFT gradient, OOMP2, MP2 Hessian
   Martin Krupicka        : Initial AUTO-CI
   Lucas Lang             : DCDCAS
   Marvin Lechner         : AUTO-CI (C++ implementation), FIC-MRCC
   Dagmar Lenk            : GEPOL surface, SMD
   Dimitrios Liakos       : Extrapolation schemes; Compound Job, initial MDCI parallelization
   Dimitrios Manganas     : Further ROCIS development; embedding schemes
   Dimitrios Pantazis     : SARC Basis sets
   Anastasios Papadopoulos: AUTO-CI, single reference methods and gradients
   Taras Petrenko         : DFT Hessian,TD-DFT gradient, ASA, ECA, R-Raman, ABS, FL, XAS/XES, NRVS
   Peter Pinski           : DLPNO-MP2, DLPNO-MP2 Gradient
   Christoph Reimann      : Effective Core Potentials
   Marius Retegan         : Local ZFS, SOC
   Christoph Riplinger    : Optimizer, TS searches, QM/MM, DLPNO-CCSD(T), (RO)-DLPNO pert. Triples
   Tobias Risthaus        : Range-separated hybrids, TD-DFT gradient, RPA, STAB
   Michael Roemelt        : Original ROCIS implementation
   Masaaki Saitow         : Open-shell DLPNO-CCSD energy and density
   Barbara Sandhoefer     : DKH picture change effects
   Avijit Sen             : IP-ROCIS
   Kantharuban Sivalingam : CASSCF convergence, NEVPT2, FIC-MRCI
   Bernardo de Souza      : ESD, SOC TD-DFT
   Georgi Stoychev        : AutoAux, RI-MP2 NMR, DLPNO-MP2 response
   Willem Van den Heuvel  : Paramagnetic NMR
   Boris Wezisla          : Elementary symmetry handling
   Frank Wennmohs         : Technical directorship


 We gratefully acknowledge several colleagues who have allowed us to
 interface, adapt or use parts of their codes:
   Stefan Grimme, W. Hujo, H. Kruse, P. Pracht,  : VdW corrections, initial TS optimization,
                  C. Bannwarth, S. Ehlert          DFT functionals, gCP, sTDA/sTD-DF
   Ed Valeev, F. Pavosevic, A. Kumar             : LibInt (2-el integral package), F12 methods
   Garnet Chan, S. Sharma, J. Yang, R. Olivares  : DMRG
   Ulf Ekstrom                                   : XCFun DFT Library
   Mihaly Kallay                                 : mrcc  (arbitrary order and MRCC methods)
   Jiri Pittner, Ondrej Demel                    : Mk-CCSD
   Frank Weinhold                                : gennbo (NPA and NBO analysis)
   Christopher J. Cramer and Donald G. Truhlar   : smd solvation model
   Lars Goerigk                                  : TD-DFT with DH, B97 family of functionals
   V. Asgeirsson, H. Jonsson                     : NEB implementation
   FAccTs GmbH                                   : IRC, NEB, NEB-TS, DLPNO-Multilevel, CI-OPT
                                                   MM, QMMM, 2- and 3-layer-ONIOM, Crystal-QMMM,
                                                   LR-CPCM, SF, NACMEs, symmetry and pop. for TD-DFT,
                                                   nearIR, NL-DFT gradient (VV10), updates on ESD,
                                                   ML-optimized integration grids
   S Lehtola, MJT Oliveira, MAL Marques          : LibXC Library
   Liviu Ungur et al                             : ANISO software


 Your calculation uses the libint2 library for the computation of 2-el integrals
 For citations please refer to: http://libint.valeyev.net

 Your ORCA version has been built with support for libXC version: 5.1.0
 For citations please refer to: https://tddft.org/programs/libxc/

 This ORCA versions uses:
   CBLAS   interface :  Fast vector & matrix operations
   LAPACKE interface :  Fast linear algebra routines
   SCALAPACK package :  Parallel linear algebra routines
   Shared memory     :  Shared parallel matrices
   BLAS/LAPACK       :  OpenBLAS 0.3.15  USE64BITINT DYNAMIC_ARCH NO_AFFINITY Haswell SINGLE_THREADED
        Core in use  :  Haswell
   Copyright (c) 2011-2014, The OpenBLAS Project




***************************************
The coordinates will be read from file: pbe.xyz
***************************************


================================================================================

cite the ECPs for Au [Def2-ECP] as follows:
Ce-Yb(ecp-28): M. Dolg, H. Stoll, H.Preuss, J. Chem. Phys., 1989, 90, 1730-1734.
Y-Cd(ecp-28), Hf-Hg(ecp-46): D. Andrae,U. Haeussermann, M. Dolg, H. Stoll, H. Preuss, Theor. Chim. Acta, 1990, 77, 123-141.
In-Sb(ecp-28), Tl-Bi(ecp-46): B. Metz, H. Stoll, M. Dolg, J. Chem. Phys., 2000, 113, 2563-2569.
Te-Xe(ecp-28), Po-Rn(ecp-46): K. A. Peterson, D. Figgen, E. Goll, H. Stoll, M. Dolg, J. Chem. Phys., 2003, 119, 11113-11123.
Rb(ecp-28), Cs(ecp-46): T. Leininger, A. Nicklass, W. Kuechle, H. Stoll, M. Dolg, A. Bergner, Chem. Phys. Lett., 1996, 255, 274-280.
Sr(ecp-28), Ba(ecp-46): M. Kaupp, P. V. Schleyer, H. Stoll and H. Preuss, J. Chem. Phys., 1991, 94, 1360-1366.
La(ecp-46): M. Dolg, H. Stoll, A. Savin, H. Preuss, Theor. Chim. Acta, 1989, 75, 173-194.
Lu(ecp-28): X. Cao, M. Dolg, J. Chem. Phys., 2001, 115, 7348-7355.

ECP parameters for Au [Def2-ECP] have been obtained from:
TURBOMOLE (7.0.2)

----- Orbital basis set information -----
Your calculation utilizes the basis: def2-TZVP
   F. Weigend and R. Ahlrichs, Phys. Chem. Chem. Phys. 7, 3297 (2005).

----- AuxJ basis set information -----
Your calculation utilizes the auxiliary basis: def2/J
   F. Weigend, Phys. Chem. Chem. Phys. 8, 1057 (2006).

================================================================================
                                        WARNINGS
                       Please study these warnings very carefully!
================================================================================

Using LibXC functional ID 497 : Re-regularized SCAN exchange by Furness et al
[ 1]  J. W. Furness, A. D. Kaplan, J. Ning, J. P. Perdew, and J. Sun, J. Phys. Chem. Lett. 11, 8208 (2020)
[ 2]  J. W. Furness, A. D. Kaplan, J. Ning, J. P. Perdew, and J. Sun, J. Phys. Chem. Lett. 11, 9248 (2020)
Using LibXC functional ID 498 : Re-regularized SCAN correlation by Furness et al
[ 1]  J. W. Furness, A. D. Kaplan, J. Ning, J. P. Perdew, and J. Sun, J. Phys. Chem. Lett. 11, 8208 (2020)
[ 2]  J. W. Furness, A. D. Kaplan, J. Ning, J. P. Perdew, and J. Sun, J. Phys. Chem. Lett. 11, 9248 (2020)
Using LibXC functional ID 497 : Re-regularized SCAN exchange by Furness et al
[ 1]  J. W. Furness, A. D. Kaplan, J. Ning, J. P. Perdew, and J. Sun, J. Phys. Chem. Lett. 11, 8208 (2020)
[ 2]  J. W. Furness, A. D. Kaplan, J. Ning, J. P. Perdew, and J. Sun, J. Phys. Chem. Lett. 11, 9248 (2020)
Using LibXC functional ID 498 : Re-regularized SCAN correlation by Furness et al
[ 1]  J. W. Furness, A. D. Kaplan, J. Ning, J. P. Perdew, and J. Sun, J. Phys. Chem. Lett. 11, 8208 (2020)
[ 2]  J. W. Furness, A. D. Kaplan, J. Ning, J. P. Perdew, and J. Sun, J. Phys. Chem. Lett. 11, 9248 (2020)

WARNING: your system is open-shell and RHF/RKS was chosen
  ===> : WILL SWITCH to UHF/UKS


INFO   : the flag for use of the SHARK integral package has been found!



***************************************
The coordinates will be read from file: pbe.xyz
***************************************


================================================================================

cite the ECPs for Au [Def2-ECP] as follows:
Ce-Yb(ecp-28): M. Dolg, H. Stoll, H.Preuss, J. Chem. Phys., 1989, 90, 1730-1734.
Y-Cd(ecp-28), Hf-Hg(ecp-46): D. Andrae,U. Haeussermann, M. Dolg, H. Stoll, H. Preuss, Theor. Chim. Acta, 1990, 77, 123-141.
In-Sb(ecp-28), Tl-Bi(ecp-46): B. Metz, H. Stoll, M. Dolg, J. Chem. Phys., 2000, 113, 2563-2569.
Te-Xe(ecp-28), Po-Rn(ecp-46): K. A. Peterson, D. Figgen, E. Goll, H. Stoll, M. Dolg, J. Chem. Phys., 2003, 119, 11113-11123.
Rb(ecp-28), Cs(ecp-46): T. Leininger, A. Nicklass, W. Kuechle, H. Stoll, M. Dolg, A. Bergner, Chem. Phys. Lett., 1996, 255, 274-280.
Sr(ecp-28), Ba(ecp-46): M. Kaupp, P. V. Schleyer, H. Stoll and H. Preuss, J. Chem. Phys., 1991, 94, 1360-1366.
La(ecp-46): M. Dolg, H. Stoll, A. Savin, H. Preuss, Theor. Chim. Acta, 1989, 75, 173-194.
Lu(ecp-28): X. Cao, M. Dolg, J. Chem. Phys., 2001, 115, 7348-7355.

ECP parameters for Au [Def2-ECP] have been obtained from:
TURBOMOLE (7.0.2)

----- Orbital basis set information -----
Your calculation utilizes the basis: def2-TZVP
   F. Weigend and R. Ahlrichs, Phys. Chem. Chem. Phys. 7, 3297 (2005).

----- AuxJ basis set information -----
Your calculation utilizes the auxiliary basis: def2/J
   F. Weigend, Phys. Chem. Chem. Phys. 8, 1057 (2006).

================================================================================
                                        WARNINGS
                       Please study these warnings very carefully!
================================================================================

Using LibXC functional ID 497 : Re-regularized SCAN exchange by Furness et al
[ 1]  J. W. Furness, A. D. Kaplan, J. Ning, J. P. Perdew, and J. Sun, J. Phys. Chem. Lett. 11, 8208 (2020)
[ 2]  J. W. Furness, A. D. Kaplan, J. Ning, J. P. Perdew, and J. Sun, J. Phys. Chem. Lett. 11, 9248 (2020)
Using LibXC functional ID 498 : Re-regularized SCAN correlation by Furness et al
[ 1]  J. W. Furness, A. D. Kaplan, J. Ning, J. P. Perdew, and J. Sun, J. Phys. Chem. Lett. 11, 8208 (2020)
[ 2]  J. W. Furness, A. D. Kaplan, J. Ning, J. P. Perdew, and J. Sun, J. Phys. Chem. Lett. 11, 9248 (2020)
Using LibXC functional ID 497 : Re-regularized SCAN exchange by Furness et al
[ 1]  J. W. Furness, A. D. Kaplan, J. Ning, J. P. Perdew, and J. Sun, J. Phys. Chem. Lett. 11, 8208 (2020)
[ 2]  J. W. Furness, A. D. Kaplan, J. Ning, J. P. Perdew, and J. Sun, J. Phys. Chem. Lett. 11, 9248 (2020)
Using LibXC functional ID 498 : Re-regularized SCAN correlation by Furness et al
[ 1]  J. W. Furness, A. D. Kaplan, J. Ning, J. P. Perdew, and J. Sun, J. Phys. Chem. Lett. 11, 8208 (2020)
[ 2]  J. W. Furness, A. D. Kaplan, J. Ning, J. P. Perdew, and J. Sun, J. Phys. Chem. Lett. 11, 9248 (2020)

INFO   : the flag for use of the SHARK integral package has been found!

================================================================================
                                       INPUT FILE
================================================================================
NAME = scan.inp
|  1> !R2SCAN def2-TZVP VERYSLOWCONV
|  2> 
|  3> %scf
|  4>   AutoTRAHIter 400
|  5>   maxiter 800
|  6> end
|  7> 
|  8> %pal nprocs 6 end 
|  9> 
| 10> *xyzfile 0 5 pbe.xyz
| 11> 
| 12> $new_job
| 13> 
| 14> !R2SCAN def2-TZVP SLOWCONV
| 15> %scf
| 16>   AutoTRAHIter 800
| 17>   maxiter 1200
| 18> end
| 19> 
| 20> 
| 21> %pal nprocs 6 end 
| 22> 
| 23> *xyzfile 0 3 pbe.xyz
| 24> 
| 25> 
| 26> 
| 27> 
| 28> 
| 29>                          ****END OF INPUT****
================================================================================


                 $$$$$$$$$$$$$$$$$$$$$$$$$$$$$$$$$$$$$$$$$$$$$$ 
                 $ THERE ARE  2 JOBS TO BE PROCESSED THIS RUN $
                 $$$$$$$$$$$$$$$$$$$$$$$$$$$$$$$$$$$$$$$$$$$$$$ 




                 $$$$$$$$$$$$$$$$  JOB NUMBER  1 $$$$$$$$$$$$$$


                       ****************************
                       * Single Point Calculation *
                       ****************************

---------------------------------
CARTESIAN COORDINATES (ANGSTROEM)
---------------------------------
  Au     8.529058    6.915375    9.671709
  Au     8.465609    5.098995    7.410940
  Au     7.916520    6.529139    5.045373
  Au     7.635500    9.873369    6.091442
  Au     9.694720    8.628198    4.565777
  Au     9.738556    7.513219    7.137666
  Au    10.321804   10.203529    6.823403
  Au     8.351454    9.563151    8.754315
  Au     6.087105    8.350551    9.837938
  Au     4.326100    7.087755    8.006004
  Au     5.272994    9.688841    7.532837
  Au     5.208635   10.411787    4.795093
  Au     7.095101    8.727271    3.536736
  Au     5.789799    5.210814    6.346584
  Au     5.220906    7.697898    5.346475
  Au     6.228730    5.367573    9.169870
  Fe     6.978626    7.408132    7.488571

----------------------------
CARTESIAN COORDINATES (A.U.)
----------------------------
  NO LB      ZA    FRAG     MASS         X           Y           Z
   0 Au   19.0000*   0   196.966   16.117584   13.068166   18.276881
   1 Au   19.0000*   0   196.966   15.997683    9.635705   14.004647
   2 Au   19.0000*   0   196.966   14.960054   12.338284    9.534374
   3 Au   19.0000*   0   196.966   14.429004   18.657963   11.511157
   4 Au   19.0000*   0   196.966   18.320366   16.304932    8.628068
   5 Au   19.0000*   0   196.966   18.403204   14.197926   13.488233
   6 Au   19.0000*   0   196.966   19.505382   19.281875   12.894364
   7 Au   19.0000*   0   196.966   15.781960   18.071737   16.543259
   8 Au   19.0000*   0   196.966   11.502961   15.780254   18.591009
   9 Au   19.0000*   0   196.966    8.175145   13.393917   15.129155
  10 Au   19.0000*   0   196.966    9.964514   18.309256   14.234999
  11 Au   19.0000*   0   196.966    9.842894   19.675427    9.061412
  12 Au   19.0000*   0   196.966   13.407797   16.492151    6.683462
  13 Au   19.0000*   0   196.966   10.941134    9.847012   11.993306
  14 Au   19.0000*   0   196.966    9.866082   14.546919   10.103374
  15 Au   19.0000*   0   196.966   11.770595   10.143244   17.328543
  16 Fe   26.0000    0    55.850   13.187691   13.999340   14.151348
* core charge reduced due to ECP

--------------------------------
INTERNAL COORDINATES (ANGSTROEM)
--------------------------------
 Au     0   0   0     0.000000000000     0.00000000     0.00000000
 Au     1   0   0     2.900747618570     0.00000000     0.00000000
 Au     2   1   0     2.818282406517   109.91869649     0.00000000
 Au     3   2   1     3.515267218895   104.39231716     0.86517694
 Au     3   2   1     2.792500557772   113.67401795    55.51236830
 Au     2   1   3     2.742908682744    61.07635467    42.71465080
 Au     6   2   1     2.770686819817   164.49973700   284.39804251
 Au     4   3   2     2.774836655965    99.12494895     5.52443865
 Au     8   4   3     2.787815481848   102.24394286   286.05401637
 Au     9   8   4     2.837564019956   116.53217933    19.40631204
 Au     4   3   2     2.773644796552    99.17468329   291.06146121
 Au     4   3   2     2.803585239764    96.56357540   229.43223219
 Au     3   2   1     2.789713364700   155.66151253   345.95211023
 Au     3   2   1     2.820296481247    61.47465120   262.18606879
 Au    14   3   2     2.740336516633    64.14605349   139.26187604
 Au    10   9   8     2.816666721745    65.53148009    94.41022698
 Fe     9   8   4     2.683745438383    62.78403234    44.66294126

---------------------------
INTERNAL COORDINATES (A.U.)
---------------------------
 Au     0   0   0     0.000000000000     0.00000000     0.00000000
 Au     1   0   0     5.481618582721     0.00000000     0.00000000
 Au     2   1   0     5.325781916365   109.91869649     0.00000000
 Au     3   2   1     6.642892331263   104.39231716     0.86517694
 Au     3   2   1     5.277061283011   113.67401795    55.51236830
 Au     2   1   3     5.183346220742    61.07635467    42.71465080
 Au     6   2   1     5.235839292319   164.49973700   284.39804251
 Au     4   3   2     5.243681346140    99.12494895     5.52443865
 Au     8   4   3     5.268207772598   102.24394286   286.05401637
 Au     9   8   4     5.362218885186   116.53217933    19.40631204
 Au     4   3   2     5.241429058260    99.17468329   291.06146121
 Au     4   3   2     5.298008296258    96.56357540   229.43223219
 Au     3   2   1     5.271794251424   155.66151253   345.95211023
 Au     3   2   1     5.329587966018    61.47465120   262.18606879
 Au    14   3   2     5.178485531221    64.14605349   139.26187604
 Au    10   9   8     5.322728714628    65.53148009    94.41022698
 Fe     9   8   4     5.071543891705    62.78403234    44.66294126

---------------------
BASIS SET INFORMATION
---------------------
There are 2 groups of distinct atoms

 Group   1 Type Au  : 8s7p6d1f contracted to 6s4p3d1f pattern {311111/4111/411/1}
 Group   2 Type Fe  : 17s11p7d1f contracted to 6s4p4d1f pattern {842111/6311/4111/1}

Atom   0Au   basis set group =>   1
Atom   1Au   basis set group =>   1
Atom   2Au   basis set group =>   1
Atom   3Au   basis set group =>   1
Atom   4Au   basis set group =>   1
Atom   5Au   basis set group =>   1
Atom   6Au   basis set group =>   1
Atom   7Au   basis set group =>   1
Atom   8Au   basis set group =>   1
Atom   9Au   basis set group =>   1
Atom  10Au   basis set group =>   1
Atom  11Au   basis set group =>   1
Atom  12Au   basis set group =>   1
Atom  13Au   basis set group =>   1
Atom  14Au   basis set group =>   1
Atom  15Au   basis set group =>   1
Atom  16Fe   basis set group =>   2
---------------------------------
AUXILIARY/J BASIS SET INFORMATION
---------------------------------
There are 2 groups of distinct atoms

 Group   1 Type Au  : 11s5p5d3f3g contracted to 8s5p5d2f3g pattern {41111111/11111/11111/21/111}
 Group   2 Type Fe  : 19s5p5d3f3g contracted to 8s5p5d2f3g pattern {121111111/11111/11111/21/111}

Atom   0Au   basis set group =>   1
Atom   1Au   basis set group =>   1
Atom   2Au   basis set group =>   1
Atom   3Au   basis set group =>   1
Atom   4Au   basis set group =>   1
Atom   5Au   basis set group =>   1
Atom   6Au   basis set group =>   1
Atom   7Au   basis set group =>   1
Atom   8Au   basis set group =>   1
Atom   9Au   basis set group =>   1
Atom  10Au   basis set group =>   1
Atom  11Au   basis set group =>   1
Atom  12Au   basis set group =>   1
Atom  13Au   basis set group =>   1
Atom  14Au   basis set group =>   1
Atom  15Au   basis set group =>   1
Atom  16Fe   basis set group =>   2
-------------------------
ECP PARAMETER INFORMATION
-------------------------

 Group 1, Type Au ECP Def2-ECP (replacing 60 core electrons, lmax=3)

Atom   0Au   ECP group =>   1
Atom   1Au   ECP group =>   1
Atom   2Au   ECP group =>   1
Atom   3Au   ECP group =>   1
Atom   4Au   ECP group =>   1
Atom   5Au   ECP group =>   1
Atom   6Au   ECP group =>   1
Atom   7Au   ECP group =>   1
Atom   8Au   ECP group =>   1
Atom   9Au   ECP group =>   1
Atom  10Au   ECP group =>   1
Atom  11Au   ECP group =>   1
Atom  12Au   ECP group =>   1
Atom  13Au   ECP group =>   1
Atom  14Au   ECP group =>   1
Atom  15Au   ECP group =>   1


Checking for AutoStart:
The File: scan.gbw exists
Trying to determine its content:
     ... Fine, the file contains calculation information
     ... Fine, the calculation information was read
     ... Fine, the file contains a basis set
     ... Fine, the basis set was read
     ... Fine, the file contains ECP parameters
     ... Fine, ECP parameters were read
     ... Fine, the file contains a geometry
     ... Fine, the geometry was read
     ... Fine, the file contains a set of orbitals
     ... Fine, the orbitals can be read
     => possible old guess file was deleted
     => GBW file was renamed to GES file
     => GES file is set as startup file
     => Guess is set to MORead
     ... now leaving AutoStart



           ************************************************************
           *        Program running with 6 parallel MPI-processes     *
           *              working on a common directory               *
           ************************************************************
------------------------------------------------------------------------------
                           ORCA GTO INTEGRAL CALCULATION
                           -- RI-GTO INTEGRALS CHOSEN --
------------------------------------------------------------------------------
------------------------------------------------------------------------------
                   ___                                                        
                  /   \      - P O W E R E D   B Y -                         
                 /     \                                                     
                 |  |  |   _    _      __       _____    __    __             
                 |  |  |  | |  | |    /  \     |  _  \  |  |  /  |          
                  \  \/   | |  | |   /    \    | | | |  |  | /  /          
                 / \  \   | |__| |  /  /\  \   | |_| |  |  |/  /          
                |  |  |   |  __  | /  /__\  \  |    /   |      \           
                |  |  |   | |  | | |   __   |  |    \   |  |\   \          
                \     /   | |  | | |  |  |  |  | |\  \  |  | \   \       
                 \___/    |_|  |_| |__|  |__|  |_| \__\ |__|  \__/        
                                                                              
                      - O R C A' S   B I G   F R I E N D -                    
                                      &                                       
                       - I N T E G R A L  F E E D E R -                       
                                                                              
 v1 FN, 2020, v2 2021                                                         
------------------------------------------------------------------------------


Reading SHARK input file scan.SHARKINP.tmp ... ok
----------------------
SHARK INTEGRAL PACKAGE
----------------------

Number of atoms                             ...     17
Number of basis functions                   ...    685
Number of shells                            ...    239
Maximum angular momentum                    ...      3
Integral batch strategy                     ... SHARK/LIBINT Hybrid
RI-J (if used) integral strategy            ... SPLIT-RIJ (Revised 2003 algorithm where possible)
Printlevel                                  ...      1
Contraction scheme used                     ... SEGMENTED contraction
Coulomb Range Separation                    ... NOT USED
Exchange Range Separation                   ... NOT USED
Finite Nucleus Model                        ... NOT USED
Auxiliary Coulomb fitting basis             ... AVAILABLE
   # of basis functions in Aux-J            ...   1513
   # of shells in Aux-J                     ...    391
   Maximum angular momentum in Aux-J        ...      4
Auxiliary J/K fitting basis                 ... NOT available
Auxiliary Correlation fitting basis         ... NOT available
Auxiliary 'external' fitting basis          ... NOT available
Integral threshold                          ...     1.000000e-10
Primitive cut-off                           ...     1.000000e-11
Primitive pair pre-selection threshold      ...     1.000000e-11

Calculating pre-screening integrals         ... done (  0.1 sec) Dimension = 239
Organizing shell pair data                  ... done (  0.4 sec)
Shell pair information
Total number of shell pairs                 ...     28680
Shell pairs after pre-screening             ...     22419
Total number of primitive shell pairs       ...     75765
Primitive shell pairs kept                  ...     42699
          la=0 lb=0:   3560 shell pairs
          la=1 lb=0:   5102 shell pairs
          la=1 lb=1:   1921 shell pairs
          la=2 lb=0:   4458 shell pairs
          la=2 lb=1:   3140 shell pairs
          la=2 lb=2:   1292 shell pairs
          la=3 lb=0:   1158 shell pairs
          la=3 lb=1:    890 shell pairs
          la=3 lb=2:    778 shell pairs
          la=3 lb=3:    120 shell pairs

Calculating one electron integrals          ... done (  0.0 sec)
Calculating ECP integrals                   ... done ( 11.4 sec)
Calculating RI/J V-Matrix + Cholesky decomp.... done (  0.1 sec)
Calculating Nuclear repulsion               ... done (  0.0 sec) ENN=   7143.374045434628 Eh

SHARK setup successfully completed in  12.3 seconds

Maximum memory used throughout the entire GTOINT-calculation: 41.3 MB


           ************************************************************
           *        Program running with 6 parallel MPI-processes     *
           *              working on a common directory               *
           ************************************************************
-------------------------------------------------------------------------------
                                 ORCA SCF
-------------------------------------------------------------------------------

------------
SCF SETTINGS
------------
Hamiltonian:
 Density Functional     Method          .... DFT(GTOs)
  Functional kind                       .... Exchange
  Functional name                       .... Re-regularized SCAN exchange by Furness et al
  Functional family                     .... MGGA
  Functional refs                              
    [ 0] J. W. Furness, A. D. Kaplan, J. Ning, J. P. Perdew, and J. Sun, J. Phys. Chem. Lett. 11, 8208 (2020)
    [ 1] J. W. Furness, A. D. Kaplan, J. Ning, J. P. Perdew, and J. Sun, J. Phys. Chem. Lett. 11, 9248 (2020)
  Functional external parameters         .... 8
 Parameter  0 :         c1 parameter
 Parameter  1 :         c2 parameter
 Parameter  2 :          d parameter
 Parameter  3 :         k1 parameter
 Parameter  4 :       taur parameter
 Parameter  5 :     alphar parameter
 Parameter  6 :        eta parameter
 Parameter  7 :        dp2 parameter
  Functional kind                       .... Correlation
  Functional name                       .... Re-regularized SCAN correlation by Furness et al
  Functional family                     .... MGGA
  Functional refs                              
    [ 0] J. W. Furness, A. D. Kaplan, J. Ning, J. P. Perdew, and J. Sun, J. Phys. Chem. Lett. 11, 8208 (2020)
    [ 1] J. W. Furness, A. D. Kaplan, J. Ning, J. P. Perdew, and J. Sun, J. Phys. Chem. Lett. 11, 9248 (2020)
  Functional external parameters         .... 0
 Gradients option       PostSCFGGA      .... off
   Density functional embedding theory  .... OFF
   NL short-range parameter             .... 12.300000
 RI-approximation to the Coulomb term is turned on
   Number of AuxJ basis functions       .... 1513


General Settings:
 Integral files         IntName         .... scan
 Hartree-Fock type      HFTyp           .... UHF
 Total Charge           Charge          ....    0
 Multiplicity           Mult            ....    5
 Number of Electrons    NEL             ....  330
 Basis Dimension        Dim             ....  685
 Nuclear Repulsion      ENuc            ....   7143.3740454346 Eh

Convergence Acceleration:
 DIIS                   CNVDIIS         .... on
   Start iteration      DIISMaxIt       ....     0
   Startup error        DIISStart       ....  0.200000
   # of expansion vecs  DIISMaxEq       ....     5
   Bias factor          DIISBfac        ....   1.050
   Max. coefficient     DIISMaxC        ....  10.000
 Trust-Rad. Augm. Hess. CNVTRAH         .... auto
   Auto Start mean grad. ratio tolernc. ....  1.125000
   Auto Start start iteration           ....     1
   Auto Start num. interpolation iter.  ....    10
   Max. Number of Micro iterations      ....    16
   Max. Number of Macro iterations      .... Maxiter - #DIIS iter
   Number of Davidson start vectors     ....     2
   Converg. threshold I  (grad. norm)   ....   5.000e-05
   Converg. threshold II (energy diff.) ....   1.000e-06
   Grad. Scal. Fac. for Micro threshold ....   0.100
   Minimum threshold for Micro iter.    ....   0.010
   NR start threshold (gradient norm)   ....   0.001
   Initial trust radius                 ....   0.400
   Minimum AH scaling param. (alpha)    ....   1.000
   Maximum AH scaling param. (alpha)    .... 1000.000
   Orbital update algorithm             .... Taylor
   White noise on init. David. guess    .... on
   Maximum white noise                  ....   0.010
   Quad. conv. algorithm                .... NR
 SOSCF                  CNVSOSCF        .... off
 Level Shifting         CNVShift        .... on
   Level shift para.    LevelShift      ....    0.2500
   Turn off err/grad.   ShiftErr        ....    0.0000
 Zerner damping         CNVZerner       .... off
 Static damping         CNVDamp         .... on
   Fraction old density DampFac         ....    0.9200
   Max. Damping (<1)    DampMax         ....    0.9800
   Min. Damping (>=0)   DampMin         ....    0.0000
   Turn off err/grad.   DampErr         ....    0.0030
 Fernandez-Rico         CNVRico         .... off

SCF Procedure:
 Maximum # iterations   MaxIter         ....   800
 SCF integral mode      SCFMode         .... Direct
   Integral package                     .... SHARK and LIBINT hybrid scheme
 Reset frequency        DirectResetFreq ....    20
 Integral Threshold     Thresh          ....  1.000e-10 Eh
 Primitive CutOff       TCut            ....  1.000e-11 Eh

Convergence Tolerance:
 Convergence Check Mode ConvCheckMode   .... Total+1el-Energy
 Convergence forced     ConvForced      .... 0
 Energy Change          TolE            ....  1.000e-06 Eh
 1-El. energy change                    ....  1.000e-03 Eh
 DIIS Error             TolErr          ....  1.000e-06


Diagonalization of the overlap matrix:
Smallest eigenvalue                        ... 2.575e-04
Time for diagonalization                   ...    0.055 sec
Threshold for overlap eigenvalues          ... 1.000e-08
Number of eigenvalues below threshold      ... 0
Time for construction of square roots      ...    0.041 sec
Total time needed                          ...    0.098 sec

---------------------
INITIAL GUESS: MOREAD
---------------------
Guess MOs are being read from file: scan.ges
Input Geometry matches current geometry (good)
Input basis set matches current basis set (good)
MOs were renormalized
MOs were reorthogonalized (Cholesky)
                      ------------------
                      INITIAL GUESS DONE (   0.3 sec)
                      ------------------
-------------------
DFT GRID GENERATION
-------------------

General Integration Accuracy     IntAcc      ... 4.388
Radial Grid Type                 RadialGrid  ... OptM3 with GC (2021)
Angular Grid (max. ang.)         AngularGrid ... 4 (Lebedev-302)
Angular grid pruning method      GridPruning ... 4 (adaptive)
Weight generation scheme         WeightScheme... Becke
Basis function cutoff            BFCut       ... 1.0000e-10
Integration weight cutoff        WCut        ... 1.0000e-14
Angular grids for H and He will be reduced by one unit
Partially contracted basis set               ... off
Rotationally invariant grid construction     ... off

Total number of grid points                  ...   186730
Total number of batches                      ...     2926
Average number of points per batch           ...       63
Average number of grid points per atom       ...    10984
Time for grid setup =    1.475 sec

--------------
SCF ITERATIONS
--------------
ITER       Energy         Delta-E        Max-DP      RMS-DP      [F,P]     Damp
               ***  Starting incremental Fock matrix formation  ***
  0  -3437.2968257817   0.000000000000 0.00002162  0.00000012  0.0001872 0.9200
                 **** Energy Check signals convergence ****

               *****************************************************
               *                     SUCCESS                       *
               *           SCF CONVERGED AFTER   1 CYCLES          *
               *****************************************************


----------------
TOTAL SCF ENERGY
----------------

Total Energy       :        -3437.29682605 Eh          -93533.60179 eV

Components:
Nuclear Repulsion  :         7143.37404543 Eh          194381.08992 eV
Electronic Energy  :       -10580.67087148 Eh         -287914.69171 eV
One Electron Energy:       -19841.19085211 Eh         -539906.25139 eV
Two Electron Energy:         9260.51998063 Eh          251991.55968 eV

Virial components:
Potential Energy   :        -5433.10854390 Eh         -147842.39964 eV
Kinetic Energy     :         1995.81171785 Eh           54308.79785 eV
Virial Ratio       :            2.72225506


DFT components:
N(Alpha)           :      167.000021579829 electrons
N(Beta)            :      163.000020062691 electrons
N(Total)           :      330.000041642521 electrons
E(X)               :     -248.857984301346 Eh       
E(C)               :      -13.732378695516 Eh       
E(XC)              :     -262.590362996862 Eh       
DFET-embed. en.    :        0.000000000000 Eh       

---------------
SCF CONVERGENCE
---------------

  Last Energy change         ...   -2.6778e-07  Tolerance :   1.0000e-06
  Last MAX-Density change    ...    1.6894e-05  Tolerance :   1.0000e-05
  Last RMS-Density change    ...    9.5748e-08  Tolerance :   1.0000e-06
  Last DIIS Error            ...    1.8704e-04  Tolerance :   1.0000e-06

             **** THE GBW FILE WAS UPDATED (scan.gbw) ****
             **** DENSITY scan.scfp WAS UPDATED ****
             **** ENERGY FILE WAS UPDATED (scan.en.tmp) ****
----------------------
UHF SPIN CONTAMINATION
----------------------

Warning: in a DFT calculation there is little theoretical justification to 
         calculate <S**2> as in Hartree-Fock theory. We will do it anyways
         but you should keep in mind that the values have only limited relevance

Expectation value of <S**2>     :     6.117639
Ideal value S*(S+1) for S=2.0   :     6.000000
Deviation                       :     0.117639

             **** THE GBW FILE WAS UPDATED (scan.gbw) ****
             **** DENSITY scan.scfp WAS UPDATED ****
----------------
ORBITAL ENERGIES
----------------
                 SPIN UP ORBITALS
  NO   OCC          E(Eh)            E(eV) 
   0   1.0000    -255.641461     -6956.3578 
   1   1.0000     -29.940046      -814.7101 
   2   1.0000     -25.779809      -701.5043 
   3   1.0000     -25.767564      -701.1711 
   4   1.0000     -25.762950      -701.0455 
   5   1.0000      -4.126530      -112.2886 
   6   1.0000      -4.126489      -112.2875 
   7   1.0000      -4.125781      -112.2682 
   8   1.0000      -4.125665      -112.2650 
   9   1.0000      -4.124980      -112.2464 
  10   1.0000      -4.120947      -112.1367 
  11   1.0000      -4.120847      -112.1339 
  12   1.0000      -4.120541      -112.1256 
  13   1.0000      -4.120498      -112.1245 
  14   1.0000      -4.120379      -112.1212 
  15   1.0000      -4.120305      -112.1192 
  16   1.0000      -4.115552      -111.9899 
  17   1.0000      -4.115397      -111.9857 
  18   1.0000      -4.111980      -111.8927 
  19   1.0000      -4.111897      -111.8904 
  20   1.0000      -4.111717      -111.8855 
  21   1.0000      -3.522315       -95.8471 
  22   1.0000      -2.316032       -63.0224 
  23   1.0000      -2.315809       -63.0164 
  24   1.0000      -2.315500       -63.0080 
  25   1.0000      -2.315197       -62.9997 
  26   1.0000      -2.314181       -62.9721 
  27   1.0000      -2.313256       -62.9469 
  28   1.0000      -2.311792       -62.9071 
  29   1.0000      -2.311217       -62.8914 
  30   1.0000      -2.311169       -62.8901 
  31   1.0000      -2.310153       -62.8624 
  32   1.0000      -2.310119       -62.8615 
  33   1.0000      -2.309692       -62.8499 
  34   1.0000      -2.309181       -62.8360 
  35   1.0000      -2.308833       -62.8265 
  36   1.0000      -2.308743       -62.8241 
  37   1.0000      -2.308570       -62.8194 
  38   1.0000      -2.308191       -62.8091 
  39   1.0000      -2.308055       -62.8054 
  40   1.0000      -2.307820       -62.7990 
  41   1.0000      -2.307418       -62.7880 
  42   1.0000      -2.307208       -62.7823 
  43   1.0000      -2.306316       -62.7580 
  44   1.0000      -2.306264       -62.7566 
  45   1.0000      -2.306033       -62.7503 
  46   1.0000      -2.305989       -62.7492 
  47   1.0000      -2.305899       -62.7467 
  48   1.0000      -2.305663       -62.7403 
  49   1.0000      -2.305284       -62.7300 
  50   1.0000      -2.305172       -62.7269 
  51   1.0000      -2.304510       -62.7089 
  52   1.0000      -2.304455       -62.7074 
  53   1.0000      -2.304254       -62.7019 
  54   1.0000      -2.303673       -62.6861 
  55   1.0000      -2.302308       -62.6490 
  56   1.0000      -2.302081       -62.6428 
  57   1.0000      -2.301908       -62.6381 
  58   1.0000      -2.301002       -62.6134 
  59   1.0000      -2.300695       -62.6051 
  60   1.0000      -2.300240       -62.5927 
  61   1.0000      -2.299547       -62.5738 
  62   1.0000      -2.299323       -62.5678 
  63   1.0000      -2.298983       -62.5585 
  64   1.0000      -2.298002       -62.5318 
  65   1.0000      -2.297900       -62.5290 
  66   1.0000      -2.297310       -62.5130 
  67   1.0000      -2.297144       -62.5085 
  68   1.0000      -2.296438       -62.4893 
  69   1.0000      -2.295484       -62.4633 
  70   1.0000      -2.295282       -62.4578 
  71   1.0000      -2.282642       -62.1138 
  72   1.0000      -2.271872       -61.8208 
  73   1.0000      -0.450657       -12.2630 
  74   1.0000      -0.412133       -11.2147 
  75   1.0000      -0.404157       -10.9977 
  76   1.0000      -0.399852       -10.8805 
  77   1.0000      -0.395428       -10.7601 
  78   1.0000      -0.393108       -10.6970 
  79   1.0000      -0.388583       -10.5739 
  80   1.0000      -0.386013       -10.5040 
  81   1.0000      -0.382914       -10.4196 
  82   1.0000      -0.380290       -10.3482 
  83   1.0000      -0.380209       -10.3460 
  84   1.0000      -0.374947       -10.2028 
  85   1.0000      -0.367969       -10.0129 
  86   1.0000      -0.367769       -10.0075 
  87   1.0000      -0.367176        -9.9914 
  88   1.0000      -0.366538        -9.9740 
  89   1.0000      -0.360159        -9.8004 
  90   1.0000      -0.358597        -9.7579 
  91   1.0000      -0.357629        -9.7316 
  92   1.0000      -0.356366        -9.6972 
  93   1.0000      -0.356329        -9.6962 
  94   1.0000      -0.352235        -9.5848 
  95   1.0000      -0.350770        -9.5449 
  96   1.0000      -0.347481        -9.4554 
  97   1.0000      -0.347404        -9.4533 
  98   1.0000      -0.345636        -9.4052 
  99   1.0000      -0.343295        -9.3415 
 100   1.0000      -0.341739        -9.2992 
 101   1.0000      -0.339462        -9.2372 
 102   1.0000      -0.336910        -9.1678 
 103   1.0000      -0.334684        -9.1072 
 104   1.0000      -0.331081        -9.0092 
 105   1.0000      -0.329163        -8.9570 
 106   1.0000      -0.327938        -8.9237 
 107   1.0000      -0.325177        -8.8485 
 108   1.0000      -0.324733        -8.8364 
 109   1.0000      -0.322737        -8.7821 
 110   1.0000      -0.320942        -8.7333 
 111   1.0000      -0.318355        -8.6629 
 112   1.0000      -0.316369        -8.6088 
 113   1.0000      -0.311645        -8.4803 
 114   1.0000      -0.311159        -8.4671 
 115   1.0000      -0.308663        -8.3991 
 116   1.0000      -0.303993        -8.2721 
 117   1.0000      -0.301499        -8.2042 
 118   1.0000      -0.300353        -8.1730 
 119   1.0000      -0.300077        -8.1655 
 120   1.0000      -0.296778        -8.0757 
 121   1.0000      -0.295955        -8.0533 
 122   1.0000      -0.290776        -7.9124 
 123   1.0000      -0.290410        -7.9025 
 124   1.0000      -0.290042        -7.8924 
 125   1.0000      -0.289434        -7.8759 
 126   1.0000      -0.286997        -7.8096 
 127   1.0000      -0.285711        -7.7746 
 128   1.0000      -0.285376        -7.7655 
 129   1.0000      -0.284760        -7.7487 
 130   1.0000      -0.283314        -7.7094 
 131   1.0000      -0.282744        -7.6939 
 132   1.0000      -0.280669        -7.6374 
 133   1.0000      -0.278810        -7.5868 
 134   1.0000      -0.278250        -7.5716 
 135   1.0000      -0.277674        -7.5559 
 136   1.0000      -0.277231        -7.5438 
 137   1.0000      -0.275982        -7.5099 
 138   1.0000      -0.275650        -7.5008 
 139   1.0000      -0.273597        -7.4450 
 140   1.0000      -0.272471        -7.4143 
 141   1.0000      -0.270950        -7.3729 
 142   1.0000      -0.270260        -7.3542 
 143   1.0000      -0.268203        -7.2982 
 144   1.0000      -0.268068        -7.2945 
 145   1.0000      -0.266535        -7.2528 
 146   1.0000      -0.264419        -7.1952 
 147   1.0000      -0.262760        -7.1501 
 148   1.0000      -0.262194        -7.1347 
 149   1.0000      -0.261594        -7.1183 
 150   1.0000      -0.260570        -7.0905 
 151   1.0000      -0.258997        -7.0477 
 152   1.0000      -0.257839        -7.0161 
 153   1.0000      -0.256533        -6.9806 
 154   1.0000      -0.256094        -6.9687 
 155   1.0000      -0.254613        -6.9284 
 156   1.0000      -0.254501        -6.9253 
 157   1.0000      -0.253084        -6.8868 
 158   1.0000      -0.250908        -6.8276 
 159   1.0000      -0.248257        -6.7554 
 160   1.0000      -0.248027        -6.7492 
 161   1.0000      -0.239569        -6.5190 
 162   1.0000      -0.230710        -6.2779 
 163   1.0000      -0.218441        -5.9441 
 164   1.0000      -0.210280        -5.7220 
 165   1.0000      -0.202578        -5.5124 
 166   1.0000      -0.189420        -5.1544 
 167   0.0000      -0.156894        -4.2693 
 168   0.0000      -0.139645        -3.7999 
 169   0.0000      -0.137404        -3.7390 
 170   0.0000      -0.136419        -3.7121 
 171   0.0000      -0.127375        -3.4660 
 172   0.0000      -0.115796        -3.1510 
 173   0.0000      -0.107217        -2.9175 
 174   0.0000      -0.104733        -2.8499 
 175   0.0000      -0.070172        -1.9095 
 176   0.0000      -0.064831        -1.7641 
 177   0.0000      -0.060256        -1.6396 
 178   0.0000      -0.040912        -1.1133 
 179   0.0000      -0.037749        -1.0272 
 180   0.0000      -0.034628        -0.9423 
 181   0.0000      -0.031616        -0.8603 
 182   0.0000      -0.025986        -0.7071 
 183   0.0000      -0.020292        -0.5522 
 184   0.0000      -0.019440        -0.5290 
 185   0.0000      -0.013064        -0.3555 
 186   0.0000      -0.004887        -0.1330 
 187   0.0000       0.015671         0.4264 
 188   0.0000       0.026139         0.7113 
 189   0.0000       0.033571         0.9135 
 190   0.0000       0.043290         1.1780 
 191   0.0000       0.044960         1.2234 
 192   0.0000       0.053438         1.4541 
 193   0.0000       0.061902         1.6844 
 194   0.0000       0.062421         1.6986 
 195   0.0000       0.064282         1.7492 
 196   0.0000       0.065098         1.7714 
 197   0.0000       0.069902         1.9021 
 198   0.0000       0.072471         1.9720 
 199   0.0000       0.073709         2.0057 
 200   0.0000       0.078942         2.1481 
 201   0.0000       0.081758         2.2248 
 202   0.0000       0.082406         2.2424 
 203   0.0000       0.086510         2.3541 
 204   0.0000       0.090800         2.4708 
 205   0.0000       0.091440         2.4882 
 206   0.0000       0.094857         2.5812 
 207   0.0000       0.099485         2.7071 
 208   0.0000       0.099871         2.7176 
 209   0.0000       0.104968         2.8563 
 210   0.0000       0.109534         2.9806 
 211   0.0000       0.121707         3.3118 
 212   0.0000       0.124016         3.3746 
 213   0.0000       0.138598         3.7715 
 214   0.0000       0.139357         3.7921 
 215   0.0000       0.148820         4.0496 
 216   0.0000       0.152154         4.1403 
 217   0.0000       0.153402         4.1743 
 218   0.0000       0.155236         4.2242 
 219   0.0000       0.156701         4.2640 
 220   0.0000       0.160850         4.3770 
 221   0.0000       0.165986         4.5167 
 222   0.0000       0.170640         4.6433 
 223   0.0000       0.174208         4.7405 
 224   0.0000       0.180506         4.9118 
 225   0.0000       0.184598         5.0232 
 226   0.0000       0.185214         5.0399 
 227   0.0000       0.189870         5.1666 
 228   0.0000       0.190290         5.1781 
 229   0.0000       0.195186         5.3113 
 230   0.0000       0.200541         5.4570 
 231   0.0000       0.203225         5.5300 
 232   0.0000       0.209308         5.6956 
 233   0.0000       0.215958         5.8765 
 234   0.0000       0.217356         5.9146 
 235   0.0000       0.221150         6.0178 
 236   0.0000       0.221597         6.0300 
 237   0.0000       0.227994         6.2040 
 238   0.0000       0.234045         6.3687 
 239   0.0000       0.235822         6.4170 
 240   0.0000       0.239432         6.5153 
 241   0.0000       0.246690         6.7128 
 242   0.0000       0.250409         6.8140 
 243   0.0000       0.256100         6.9688 
 244   0.0000       0.257354         7.0030 
 245   0.0000       0.261224         7.1083 
 246   0.0000       0.267900         7.2899 
 247   0.0000       0.269064         7.3216 
 248   0.0000       0.273474         7.4416 
 249   0.0000       0.277928         7.5628 
 250   0.0000       0.289364         7.8740 
 251   0.0000       0.291305         7.9268 
 252   0.0000       0.303137         8.2488 
 253   0.0000       0.305585         8.3154 
 254   0.0000       0.306997         8.3538 
 255   0.0000       0.313762         8.5379 
 256   0.0000       0.317948         8.6518 
 257   0.0000       0.324002         8.8165 
 258   0.0000       0.330067         8.9816 
 259   0.0000       0.332442         9.0462 
 260   0.0000       0.332755         9.0547 
 261   0.0000       0.338225         9.2036 
 262   0.0000       0.340487         9.2651 
 263   0.0000       0.345754         9.4084 
 264   0.0000       0.347060         9.4440 
 265   0.0000       0.348923         9.4947 
 266   0.0000       0.349810         9.5188 
 267   0.0000       0.356411         9.6984 
 268   0.0000       0.365118         9.9354 
 269   0.0000       0.365954         9.9581 
 270   0.0000       0.370413        10.0794 
 271   0.0000       0.374899        10.2015 
 272   0.0000       0.384289        10.4570 
 273   0.0000       0.390914        10.6373 
 274   0.0000       0.393533        10.7086 
 275   0.0000       0.397431        10.8146 
 276   0.0000       0.402200        10.9444 
 277   0.0000       0.405525        11.0349 
 278   0.0000       0.409916        11.1544 
 279   0.0000       0.410690        11.1755 
 280   0.0000       0.412533        11.2256 
 281   0.0000       0.421527        11.4703 
 282   0.0000       0.422392        11.4939 
 283   0.0000       0.430825        11.7233 
 284   0.0000       0.431549        11.7431 
 285   0.0000       0.449890        12.2421 
 286   0.0000       0.454043        12.3551 
 287   0.0000       0.459408        12.5011 
 288   0.0000       0.464407        12.6372 
 289   0.0000       0.464616        12.6428 
 290   0.0000       0.466907        12.7052 
 291   0.0000       0.474037        12.8992 
 292   0.0000       0.474749        12.9186 
 293   0.0000       0.480610        13.0781 
 294   0.0000       0.486321        13.2335 
 295   0.0000       0.488469        13.2919 
 296   0.0000       0.489183        13.3113 
 297   0.0000       0.492561        13.4033 
 298   0.0000       0.497467        13.5368 
 299   0.0000       0.500359        13.6155 
 300   0.0000       0.501693        13.6518 
 301   0.0000       0.505873        13.7655 
 302   0.0000       0.508244        13.8300 
 303   0.0000       0.509593        13.8667 
 304   0.0000       0.518859        14.1189 
 305   0.0000       0.521300        14.1853 
 306   0.0000       0.523565        14.2469 
 307   0.0000       0.525170        14.2906 
 308   0.0000       0.533588        14.5197 
 309   0.0000       0.533803        14.5255 
 310   0.0000       0.533981        14.5304 
 311   0.0000       0.539608        14.6835 
 312   0.0000       0.545667        14.8483 
 313   0.0000       0.548220        14.9178 
 314   0.0000       0.552003        15.0208 
 315   0.0000       0.553448        15.0601 
 316   0.0000       0.558634        15.2012 
 317   0.0000       0.565227        15.3806 
 318   0.0000       0.571818        15.5600 
 319   0.0000       0.571912        15.5625 
 320   0.0000       0.576988        15.7006 
 321   0.0000       0.578676        15.7466 
 322   0.0000       0.582073        15.8390 
 323   0.0000       0.585640        15.9361 
 324   0.0000       0.593752        16.1568 
 325   0.0000       0.596893        16.2423 
 326   0.0000       0.618594        16.8328 
 327   0.0000       0.625509        17.0210 
 328   0.0000       0.683326        18.5943 
 329   0.0000       0.691037        18.8041 
 330   0.0000       0.698568        19.0090 
 331   0.0000       0.708507        19.2795 
 332   0.0000       0.713632        19.4189 
 333   0.0000       0.717409        19.5217 
 334   0.0000       0.730535        19.8789 
 335   0.0000       0.730990        19.8913 
 336   0.0000       0.738190        20.0872 
 337   0.0000       0.749376        20.3916 
 338   0.0000       0.754151        20.5215 
 339   0.0000       0.763720        20.7819 
 340   0.0000       0.769415        20.9368 
 341   0.0000       0.774603        21.0780 
 342   0.0000       0.779355        21.2073 
 343   0.0000       0.781075        21.2541 
 344   0.0000       0.788407        21.4537 
 345   0.0000       0.815298        22.1854 
 346   0.0000       0.823188        22.4001 
 347   0.0000       0.825712        22.4688 
 348   0.0000       0.832375        22.6501 
 349   0.0000       0.845107        22.9965 
 350   0.0000       0.858221        23.3534 
 351   0.0000       0.870105        23.6767 
 352   0.0000       0.876662        23.8552 
 353   0.0000       0.880304        23.9543 
 354   0.0000       0.895070        24.3561 
 355   0.0000       0.921215        25.0675 
 356   0.0000       0.925772        25.1915 
 357   0.0000       0.930832        25.3292 
 358   0.0000       0.936633        25.4871 
 359   0.0000       0.941222        25.6120 
 360   0.0000       0.946077        25.7441 
 361   0.0000       0.952480        25.9183 
 362   0.0000       0.961201        26.1556 
 363   0.0000       0.961587        26.1661 
 364   0.0000       0.969541        26.3826 
 365   0.0000       0.974510        26.5178 
 366   0.0000       0.991607        26.9830 
 367   0.0000       0.995875        27.0991 
 368   0.0000       1.008076        27.4311 
 369   0.0000       1.010046        27.4847 
 370   0.0000       1.031387        28.0655 
 371   0.0000       1.035131        28.1673 
 372   0.0000       1.081666        29.4336 
 373   0.0000       1.155107        31.4321 
 374   0.0000       1.178018        32.0555 
 375   0.0000       1.195251        32.5244 
 376   0.0000       1.214897        33.0590 
 377   0.0000       1.220050        33.1992 
 378   0.0000       1.247722        33.9522 
 379   0.0000       1.251794        34.0630 
 380   0.0000       1.252666        34.0868 
 381   0.0000       1.256209        34.1832 
 382   0.0000       1.271286        34.5935 
 383   0.0000       1.288456        35.0607 
 384   0.0000       1.289377        35.0857 
 385   0.0000       1.296505        35.2797 
 386   0.0000       1.309510        35.6336 
 387   0.0000       1.321346        35.9557 
 388   0.0000       1.333471        36.2856 
 389   0.0000       1.333913        36.2976 
 390   0.0000       1.347893        36.6780 
 391   0.0000       1.353259        36.8240 
 392   0.0000       1.358625        36.9701 
 393   0.0000       1.359200        36.9857 
 394   0.0000       1.367756        37.2185 
 395   0.0000       1.370467        37.2923 
 396   0.0000       1.378782        37.5186 
 397   0.0000       1.385457        37.7002 
 398   0.0000       1.390826        37.8463 
 399   0.0000       1.405042        38.2331 
 400   0.0000       1.406425        38.2708 
 401   0.0000       1.417243        38.5651 
 402   0.0000       1.419434        38.6248 
 403   0.0000       1.437553        39.1178 
 404   0.0000       1.440580        39.2002 
 405   0.0000       1.444910        39.3180 
 406   0.0000       1.451336        39.4928 
 407   0.0000       1.463020        39.8108 
 408   0.0000       1.468006        39.9465 
 409   0.0000       1.470711        40.0201 
 410   0.0000       1.475071        40.1387 
 411   0.0000       1.477114        40.1943 
 412   0.0000       1.477727        40.2110 
 413   0.0000       1.481532        40.3145 
 414   0.0000       1.482747        40.3476 
 415   0.0000       1.488522        40.5048 
 416   0.0000       1.490875        40.5688 
 417   0.0000       1.492222        40.6054 
 418   0.0000       1.493952        40.6525 
 419   0.0000       1.498500        40.7763 
 420   0.0000       1.500136        40.8208 
 421   0.0000       1.502922        40.8966 
 422   0.0000       1.507566        41.0229 
 423   0.0000       1.513185        41.1759 
 424   0.0000       1.514305        41.2063 
 425   0.0000       1.515702        41.2444 
 426   0.0000       1.517144        41.2836 
 427   0.0000       1.522632        41.4329 
 428   0.0000       1.523342        41.4522 
 429   0.0000       1.526419        41.5360 
 430   0.0000       1.527579        41.5675 
 431   0.0000       1.530798        41.6551 
 432   0.0000       1.532156        41.6921 
 433   0.0000       1.534797        41.7639 
 434   0.0000       1.538744        41.8714 
 435   0.0000       1.540263        41.9127 
 436   0.0000       1.540804        41.9274 
 437   0.0000       1.544068        42.0162 
 438   0.0000       1.544644        42.0319 
 439   0.0000       1.546415        42.0801 
 440   0.0000       1.549086        42.1528 
 441   0.0000       1.550682        42.1962 
 442   0.0000       1.550768        42.1985 
 443   0.0000       1.552129        42.2356 
 444   0.0000       1.554365        42.2964 
 445   0.0000       1.555686        42.3324 
 446   0.0000       1.557197        42.3735 
 447   0.0000       1.557467        42.3808 
 448   0.0000       1.557868        42.3917 
 449   0.0000       1.560085        42.4521 
 450   0.0000       1.562206        42.5098 
 451   0.0000       1.563671        42.5496 
 452   0.0000       1.565266        42.5931 
 453   0.0000       1.565849        42.6089 
 454   0.0000       1.566706        42.6322 
 455   0.0000       1.567529        42.6546 
 456   0.0000       1.568378        42.6777 
 457   0.0000       1.569697        42.7136 
 458   0.0000       1.571841        42.7720 
 459   0.0000       1.572282        42.7840 
 460   0.0000       1.573526        42.8178 
 461   0.0000       1.573676        42.8219 
 462   0.0000       1.574372        42.8409 
 463   0.0000       1.577124        42.9157 
 464   0.0000       1.578284        42.9473 
 465   0.0000       1.578708        42.9588 
 466   0.0000       1.579986        42.9936 
 467   0.0000       1.580397        43.0048 
 468   0.0000       1.583914        43.1005 
 469   0.0000       1.584086        43.1052 
 470   0.0000       1.586648        43.1749 
 471   0.0000       1.586753        43.1777 
 472   0.0000       1.588628        43.2288 
 473   0.0000       1.589024        43.2395 
 474   0.0000       1.591280        43.3009 
 475   0.0000       1.591551        43.3083 
 476   0.0000       1.592211        43.3263 
 477   0.0000       1.594480        43.3880 
 478   0.0000       1.596069        43.4313 
 479   0.0000       1.596439        43.4413 
 480   0.0000       1.599159        43.5153 
 481   0.0000       1.605093        43.6768 
 482   0.0000       1.608352        43.7655 
 483   0.0000       1.618190        44.0332 
 484   0.0000       1.618250        44.0348 
 485   0.0000       1.619140        44.0591 
 486   0.0000       1.623419        44.1755 
 487   0.0000       1.624075        44.1933 
 488   0.0000       1.626602        44.2621 
 489   0.0000       1.627864        44.2964 
 490   0.0000       1.631580        44.3976 
 491   0.0000       1.632243        44.4156 
 492   0.0000       1.634470        44.4762 
 493   0.0000       1.635885        44.5147 
 494   0.0000       1.640074        44.6287 
 495   0.0000       1.640710        44.6460 
 496   0.0000       1.645273        44.7701 
 497   0.0000       1.647498        44.8307 
 498   0.0000       1.650180        44.9037 
 499   0.0000       1.651568        44.9415 
 500   0.0000       1.653810        45.0025 
 501   0.0000       1.656560        45.0773 
 502   0.0000       1.658687        45.1352 
 503   0.0000       1.660450        45.1831 
 504   0.0000       1.662396        45.2361 
 505   0.0000       1.667693        45.3802 
 506   0.0000       1.673032        45.5255 
 507   0.0000       1.675777        45.6002 
 508   0.0000       1.680257        45.7221 
 509   0.0000       1.683114        45.7999 
 510   0.0000       1.685912        45.8760 
 511   0.0000       1.689344        45.9694 
 512   0.0000       1.692272        46.0490 
 513   0.0000       1.694768        46.1170 
 514   0.0000       1.695039        46.1243 
 515   0.0000       1.698901        46.2295 
 516   0.0000       1.705681        46.4139 
 517   0.0000       1.707968        46.4762 
 518   0.0000       1.710768        46.5524 
 519   0.0000       1.714888        46.6645 
 520   0.0000       1.716179        46.6996 
 521   0.0000       1.720531        46.8180 
 522   0.0000       1.726904        46.9915 
 523   0.0000       1.730324        47.0845 
 524   0.0000       1.731664        47.1210 
 525   0.0000       1.738971        47.3198 
 526   0.0000       1.744780        47.4779 
 527   0.0000       1.747914        47.5632 
 528   0.0000       1.751484        47.6603 
 529   0.0000       1.761375        47.9295 
 530   0.0000       1.766949        48.0811 
 531   0.0000       1.769258        48.1440 
 532   0.0000       1.775599        48.3165 
 533   0.0000       1.781091        48.4660 
 534   0.0000       1.787619        48.6436 
 535   0.0000       1.791882        48.7596 
 536   0.0000       1.797437        48.9107 
 537   0.0000       1.798619        48.9429 
 538   0.0000       1.806168        49.1483 
 539   0.0000       1.807465        49.1836 
 540   0.0000       1.813329        49.3432 
 541   0.0000       1.819392        49.5082 
 542   0.0000       1.822573        49.5947 
 543   0.0000       1.827602        49.7316 
 544   0.0000       1.835591        49.9490 
 545   0.0000       1.836448        49.9723 
 546   0.0000       1.844488        50.1911 
 547   0.0000       1.848815        50.3088 
 548   0.0000       1.857727        50.5513 
 549   0.0000       1.861891        50.6646 
 550   0.0000       1.867241        50.8102 
 551   0.0000       1.870376        50.8955 
 552   0.0000       1.875316        51.0299 
 553   0.0000       1.880708        51.1767 
 554   0.0000       1.881449        51.1968 
 555   0.0000       1.888120        51.3784 
 556   0.0000       1.900580        51.7174 
 557   0.0000       1.919960        52.2448 
 558   0.0000       1.926805        52.4310 
 559   0.0000       1.939284        52.7706 
 560   0.0000       1.955657        53.2161 
 561   0.0000       1.964626        53.4602 
 562   0.0000       1.981741        53.9259 
 563   0.0000       1.982798        53.9547 
 564   0.0000       2.000988        54.4497 
 565   0.0000       2.079881        56.5964 
 566   0.0000       2.133723        58.0616 
 567   0.0000       2.138412        58.1891 
 568   0.0000       2.161393        58.8145 
 569   0.0000       2.172093        59.1057 
 570   0.0000       2.210225        60.1433 
 571   0.0000       2.258908        61.4680 
 572   0.0000       2.259971        61.4969 
 573   0.0000       2.303257        62.6748 
 574   0.0000       2.367733        64.4293 
 575   0.0000       2.370231        64.4973 
 576   0.0000       2.414943        65.7140 
 577   0.0000       2.474994        67.3480 
 578   0.0000       2.507619        68.2358 
 579   0.0000       2.544453        69.2381 
 580   0.0000       2.559170        69.6385 
 581   0.0000       2.587116        70.3990 
 582   0.0000       2.592175        70.5367 
 583   0.0000       2.606825        70.9353 
 584   0.0000       2.609476        71.0075 
 585   0.0000       2.628306        71.5198 
 586   0.0000       2.630689        71.5847 
 587   0.0000       2.653494        72.2053 
 588   0.0000       2.671858        72.7049 
 589   0.0000       2.679802        72.9211 
 590   0.0000       2.710768        73.7638 
 591   0.0000       2.780409        75.6588 
 592   0.0000       3.516802        95.6971 
 593   0.0000       3.756258       102.2130 
 594   0.0000       3.801770       103.4514 
 595   0.0000       3.814871       103.8079 
 596   0.0000       3.820182       103.9524 
 597   0.0000       3.855726       104.9196 
 598   0.0000       3.982983       108.3825 
 599   0.0000       3.983878       108.4068 
 600   0.0000       3.989820       108.5685 
 601   0.0000       3.993679       108.6735 
 602   0.0000       4.009787       109.1119 
 603   0.0000       4.016723       109.3006 
 604   0.0000       4.017712       109.3275 
 605   0.0000      24.267169       660.3432 
 606   0.0000      24.386075       663.5788 
 607   0.0000      24.396688       663.8676 
 608   0.0000      24.737773       673.1490 
 609   0.0000      24.778086       674.2460 
 610   0.0000      25.048321       681.5995 
 611   0.0000      25.136990       684.0123 
 612   0.0000      25.402582       691.2394 
 613   0.0000      25.443699       692.3582 
 614   0.0000      25.632773       697.5032 
 615   0.0000      25.653834       698.0763 
 616   0.0000      25.681161       698.8199 
 617   0.0000      25.710787       699.6261 
 618   0.0000      25.829007       702.8430 
 619   0.0000      25.910615       705.0637 
 620   0.0000      25.972722       706.7537 
 621   0.0000      26.019866       708.0366 
 622   0.0000      26.201160       712.9698 
 623   0.0000      26.246501       714.2036 
 624   0.0000      26.374295       717.6811 
 625   0.0000      26.433441       719.2905 
 626   0.0000      26.543133       722.2754 
 627   0.0000      26.721425       727.1269 
 628   0.0000      26.737650       727.5684 
 629   0.0000      26.766119       728.3431 
 630   0.0000      26.949365       733.3295 
 631   0.0000      26.963162       733.7049 
 632   0.0000      27.073976       736.7203 
 633   0.0000      27.139088       738.4921 
 634   0.0000      27.160021       739.0617 
 635   0.0000      27.267365       741.9827 
 636   0.0000      27.278736       742.2922 
 637   0.0000      27.507232       748.5098 
 638   0.0000      27.531605       749.1731 
 639   0.0000      27.709190       754.0054 
 640   0.0000      27.957533       760.7631 
 641   0.0000      27.990775       761.6677 
 642   0.0000      28.086960       764.2851 
 643   0.0000      28.319622       770.6161 
 644   0.0000      28.338671       771.1344 
 645   0.0000      29.180531       794.0426 
 646   0.0000      29.496698       802.6460 
 647   0.0000      29.668981       807.3340 
 648   0.0000      30.013879       816.7192 
 649   0.0000      30.409930       827.4963 
 650   0.0000      30.663716       834.4021 
 651   0.0000      31.073833       845.5620 
 652   0.0000      33.513125       911.9385 
 653   0.0000      44.417391      1208.6587 
 654   0.0000      44.515053      1211.3162 
 655   0.0000      44.537418      1211.9248 
 656   0.0000      44.575888      1212.9716 
 657   0.0000      44.616787      1214.0845 
 658   0.0000      44.621112      1214.2022 
 659   0.0000      44.630913      1214.4689 
 660   0.0000      44.634466      1214.5656 
 661   0.0000      44.652304      1215.0510 
 662   0.0000      44.657786      1215.2001 
 663   0.0000      44.671676      1215.5781 
 664   0.0000      44.689937      1216.0750 
 665   0.0000      44.702272      1216.4107 
 666   0.0000      44.735704      1217.3204 
 667   0.0000      44.754981      1217.8450 
 668   0.0000      44.872517      1221.0433 
 669   0.0000     205.257606      5585.3434 
 670   0.0000     205.305093      5586.6356 
 671   0.0000     205.306814      5586.6824 
 672   0.0000     205.326249      5587.2113 
 673   0.0000     205.343479      5587.6801 
 674   0.0000     205.346834      5587.7714 
 675   0.0000     205.355598      5588.0099 
 676   0.0000     205.356088      5588.0232 
 677   0.0000     205.361135      5588.1606 
 678   0.0000     205.366359      5588.3027 
 679   0.0000     205.370841      5588.4247 
 680   0.0000     205.373744      5588.5037 
 681   0.0000     205.378190      5588.6247 
 682   0.0000     205.392920      5589.0255 
 683   0.0000     205.398791      5589.1853 
 684   0.0000     205.438362      5590.2620 

                 SPIN DOWN ORBITALS
  NO   OCC          E(Eh)            E(eV) 
   0   1.0000    -255.640489     -6956.3314 
   1   1.0000     -29.860158      -812.5362 
   2   1.0000     -25.713261      -699.6934 
   3   1.0000     -25.707941      -699.5486 
   4   1.0000     -25.706360      -699.5056 
   5   1.0000      -4.126024      -112.2748 
   6   1.0000      -4.125676      -112.2653 
   7   1.0000      -4.124950      -112.2456 
   8   1.0000      -4.124865      -112.2433 
   9   1.0000      -4.124215      -112.2256 
  10   1.0000      -4.120310      -112.1193 
  11   1.0000      -4.120209      -112.1166 
  12   1.0000      -4.120153      -112.1151 
  13   1.0000      -4.119990      -112.1106 
  14   1.0000      -4.119604      -112.1001 
  15   1.0000      -4.119551      -112.0987 
  16   1.0000      -4.115468      -111.9876 
  17   1.0000      -4.115315      -111.9834 
  18   1.0000      -4.111905      -111.8906 
  19   1.0000      -4.111682      -111.8846 
  20   1.0000      -4.111514      -111.8800 
  21   1.0000      -3.345364       -91.0320 
  22   1.0000      -2.315056       -62.9959 
  23   1.0000      -2.315022       -62.9949 
  24   1.0000      -2.314539       -62.9818 
  25   1.0000      -2.314285       -62.9749 
  26   1.0000      -2.313413       -62.9512 
  27   1.0000      -2.312071       -62.9147 
  28   1.0000      -2.311100       -62.8882 
  29   1.0000      -2.310570       -62.8738 
  30   1.0000      -2.310081       -62.8605 
  31   1.0000      -2.309269       -62.8384 
  32   1.0000      -2.308950       -62.8297 
  33   1.0000      -2.308636       -62.8212 
  34   1.0000      -2.308089       -62.8063 
  35   1.0000      -2.307868       -62.8003 
  36   1.0000      -2.307663       -62.7947 
  37   1.0000      -2.307616       -62.7934 
  38   1.0000      -2.307472       -62.7895 
  39   1.0000      -2.307183       -62.7816 
  40   1.0000      -2.306964       -62.7757 
  41   1.0000      -2.306266       -62.7567 
  42   1.0000      -2.306208       -62.7551 
  43   1.0000      -2.305610       -62.7388 
  44   1.0000      -2.305582       -62.7381 
  45   1.0000      -2.305530       -62.7367 
  46   1.0000      -2.305297       -62.7303 
  47   1.0000      -2.305144       -62.7262 
  48   1.0000      -2.304557       -62.7102 
  49   1.0000      -2.304414       -62.7063 
  50   1.0000      -2.304265       -62.7022 
  51   1.0000      -2.303818       -62.6901 
  52   1.0000      -2.303687       -62.6865 
  53   1.0000      -2.303268       -62.6751 
  54   1.0000      -2.302204       -62.6461 
  55   1.0000      -2.301857       -62.6367 
  56   1.0000      -2.301704       -62.6325 
  57   1.0000      -2.300922       -62.6113 
  58   1.0000      -2.300659       -62.6041 
  59   1.0000      -2.300075       -62.5882 
  60   1.0000      -2.299316       -62.5676 
  61   1.0000      -2.299129       -62.5625 
  62   1.0000      -2.298855       -62.5550 
  63   1.0000      -2.297778       -62.5257 
  64   1.0000      -2.297671       -62.5228 
  65   1.0000      -2.297199       -62.5099 
  66   1.0000      -2.297045       -62.5058 
  67   1.0000      -2.296493       -62.4907 
  68   1.0000      -2.295168       -62.4547 
  69   1.0000      -2.294969       -62.4493 
  70   1.0000      -2.119815       -57.6831 
  71   1.0000      -2.112589       -57.4865 
  72   1.0000      -2.107291       -57.3423 
  73   1.0000      -0.447054       -12.1649 
  74   1.0000      -0.410728       -11.1765 
  75   1.0000      -0.402810       -10.9610 
  76   1.0000      -0.398817       -10.8524 
  77   1.0000      -0.386353       -10.5132 
  78   1.0000      -0.384596       -10.4654 
  79   1.0000      -0.379372       -10.3232 
  80   1.0000      -0.377472       -10.2715 
  81   1.0000      -0.376889       -10.2557 
  82   1.0000      -0.376745       -10.2517 
  83   1.0000      -0.375375       -10.2145 
  84   1.0000      -0.369065       -10.0428 
  85   1.0000      -0.366061        -9.9610 
  86   1.0000      -0.364495        -9.9184 
  87   1.0000      -0.363197        -9.8831 
  88   1.0000      -0.361826        -9.8458 
  89   1.0000      -0.358225        -9.7478 
  90   1.0000      -0.356334        -9.6963 
  91   1.0000      -0.356107        -9.6902 
  92   1.0000      -0.355144        -9.6640 
  93   1.0000      -0.353945        -9.6313 
  94   1.0000      -0.350835        -9.5467 
  95   1.0000      -0.350019        -9.5245 
  96   1.0000      -0.346404        -9.4261 
  97   1.0000      -0.344829        -9.3833 
  98   1.0000      -0.344747        -9.3810 
  99   1.0000      -0.341935        -9.3045 
 100   1.0000      -0.339136        -9.2284 
 101   1.0000      -0.337046        -9.1715 
 102   1.0000      -0.332408        -9.0453 
 103   1.0000      -0.331833        -9.0296 
 104   1.0000      -0.328510        -8.9392 
 105   1.0000      -0.326877        -8.8948 
 106   1.0000      -0.325949        -8.8695 
 107   1.0000      -0.321647        -8.7524 
 108   1.0000      -0.319811        -8.7025 
 109   1.0000      -0.317839        -8.6488 
 110   1.0000      -0.315169        -8.5762 
 111   1.0000      -0.309557        -8.4235 
 112   1.0000      -0.308410        -8.3923 
 113   1.0000      -0.302378        -8.2281 
 114   1.0000      -0.301272        -8.1980 
 115   1.0000      -0.300916        -8.1883 
 116   1.0000      -0.299711        -8.1556 
 117   1.0000      -0.297028        -8.0825 
 118   1.0000      -0.296026        -8.0553 
 119   1.0000      -0.295224        -8.0335 
 120   1.0000      -0.293544        -7.9877 
 121   1.0000      -0.291002        -7.9186 
 122   1.0000      -0.289623        -7.8810 
 123   1.0000      -0.287494        -7.8231 
 124   1.0000      -0.286903        -7.8070 
 125   1.0000      -0.284728        -7.7478 
 126   1.0000      -0.284300        -7.7362 
 127   1.0000      -0.283066        -7.7026 
 128   1.0000      -0.282657        -7.6915 
 129   1.0000      -0.282454        -7.6860 
 130   1.0000      -0.281486        -7.6596 
 131   1.0000      -0.278697        -7.5837 
 132   1.0000      -0.278192        -7.5700 
 133   1.0000      -0.277938        -7.5631 
 134   1.0000      -0.276755        -7.5309 
 135   1.0000      -0.275890        -7.5073 
 136   1.0000      -0.274672        -7.4742 
 137   1.0000      -0.274173        -7.4606 
 138   1.0000      -0.273584        -7.4446 
 139   1.0000      -0.271296        -7.3823 
 140   1.0000      -0.268538        -7.3073 
 141   1.0000      -0.268009        -7.2929 
 142   1.0000      -0.263944        -7.1823 
 143   1.0000      -0.262565        -7.1447 
 144   1.0000      -0.261876        -7.1260 
 145   1.0000      -0.261235        -7.1086 
 146   1.0000      -0.260298        -7.0831 
 147   1.0000      -0.258319        -7.0292 
 148   1.0000      -0.257101        -6.9961 
 149   1.0000      -0.255628        -6.9560 
 150   1.0000      -0.254934        -6.9371 
 151   1.0000      -0.254043        -6.9129 
 152   1.0000      -0.252296        -6.8653 
 153   1.0000      -0.250719        -6.8224 
 154   1.0000      -0.248318        -6.7571 
 155   1.0000      -0.248140        -6.7522 
 156   1.0000      -0.239418        -6.5149 
 157   1.0000      -0.232465        -6.3257 
 158   1.0000      -0.220843        -6.0094 
 159   1.0000      -0.217769        -5.9258 
 160   1.0000      -0.209842        -5.7101 
 161   1.0000      -0.199878        -5.4390 
 162   1.0000      -0.182946        -4.9782 
 163   0.0000      -0.162278        -4.4158 
 164   0.0000      -0.157105        -4.2751 
 165   0.0000      -0.152180        -4.1410 
 166   0.0000      -0.147809        -4.0221 
 167   0.0000      -0.140997        -3.8367 
 168   0.0000      -0.130793        -3.5591 
 169   0.0000      -0.125521        -3.4156 
 170   0.0000      -0.123372        -3.3571 
 171   0.0000      -0.120667        -3.2835 
 172   0.0000      -0.107442        -2.9236 
 173   0.0000      -0.104712        -2.8494 
 174   0.0000      -0.098147        -2.6707 
 175   0.0000      -0.066303        -1.8042 
 176   0.0000      -0.062655        -1.7049 
 177   0.0000      -0.056205        -1.5294 
 178   0.0000      -0.038760        -1.0547 
 179   0.0000      -0.034729        -0.9450 
 180   0.0000      -0.032864        -0.8943 
 181   0.0000      -0.030131        -0.8199 
 182   0.0000      -0.022362        -0.6085 
 183   0.0000      -0.017375        -0.4728 
 184   0.0000      -0.015308        -0.4165 
 185   0.0000      -0.008683        -0.2363 
 186   0.0000       0.000379         0.0103 
 187   0.0000       0.018388         0.5004 
 188   0.0000       0.028562         0.7772 
 189   0.0000       0.036262         0.9867 
 190   0.0000       0.046081         1.2539 
 191   0.0000       0.047420         1.2904 
 192   0.0000       0.055510         1.5105 
 193   0.0000       0.064422         1.7530 
 194   0.0000       0.064543         1.7563 
 195   0.0000       0.066347         1.8054 
 196   0.0000       0.067479         1.8362 
 197   0.0000       0.071464         1.9446 
 198   0.0000       0.073400         1.9973 
 199   0.0000       0.075199         2.0463 
 200   0.0000       0.080032         2.1778 
 201   0.0000       0.082444         2.2434 
 202   0.0000       0.083082         2.2608 
 203   0.0000       0.087598         2.3837 
 204   0.0000       0.092563         2.5188 
 205   0.0000       0.092981         2.5301 
 206   0.0000       0.095927         2.6103 
 207   0.0000       0.100862         2.7446 
 208   0.0000       0.101024         2.7490 
 209   0.0000       0.105775         2.8783 
 210   0.0000       0.111190         3.0256 
 211   0.0000       0.123806         3.3689 
 212   0.0000       0.125239         3.4079 
 213   0.0000       0.139462         3.7950 
 214   0.0000       0.141612         3.8535 
 215   0.0000       0.149579         4.0702 
 216   0.0000       0.154584         4.2064 
 217   0.0000       0.155703         4.2369 
 218   0.0000       0.157769         4.2931 
 219   0.0000       0.157993         4.2992 
 220   0.0000       0.162568         4.4237 
 221   0.0000       0.170358         4.6357 
 222   0.0000       0.173123         4.7109 
 223   0.0000       0.176382         4.7996 
 224   0.0000       0.184364         5.0168 
 225   0.0000       0.188549         5.1307 
 226   0.0000       0.189858         5.1663 
 227   0.0000       0.195400         5.3171 
 228   0.0000       0.195726         5.3260 
 229   0.0000       0.199423         5.4266 
 230   0.0000       0.204355         5.5608 
 231   0.0000       0.208400         5.6709 
 232   0.0000       0.214829         5.8458 
 233   0.0000       0.218509         5.9459 
 234   0.0000       0.219959         5.9854 
 235   0.0000       0.221667         6.0319 
 236   0.0000       0.222152         6.0451 
 237   0.0000       0.229150         6.2355 
 238   0.0000       0.235725         6.4144 
 239   0.0000       0.237924         6.4742 
 240   0.0000       0.239827         6.5260 
 241   0.0000       0.247763         6.7420 
 242   0.0000       0.251148         6.8341 
 243   0.0000       0.256866         6.9897 
 244   0.0000       0.258014         7.0209 
 245   0.0000       0.261839         7.1250 
 246   0.0000       0.269125         7.3233 
 247   0.0000       0.269672         7.3382 
 248   0.0000       0.274306         7.4642 
 249   0.0000       0.278708         7.5840 
[...]
      dxz     :     1.999319
      dyz     :     1.979810
      dx2y2   :     1.955556
      dxy     :     1.998154
      f0      :     0.000809  f :     0.005593
      f+1     :     0.000735
      f-1     :     0.000638
      f+2     :     0.000656
      f-2     :     0.001067
      f+3     :     0.000862
      f-3     :     0.000826
 10 Aus       :     2.531490  s :     2.531490
      pz      :     2.244965  p :     6.534757
      px      :     2.146800
      py      :     2.142992
      dz2     :     1.979569  d :     9.896106
      dxz     :     1.977601
      dyz     :     1.986703
      dx2y2   :     1.993950
      dxy     :     1.958284
      f0      :     0.001110  f :     0.006079
      f+1     :     0.000748
      f-1     :     0.001209
      f+2     :     0.000943
      f-2     :     0.000678
      f+3     :     0.000773
      f-3     :     0.000617
 11 Aus       :     2.676183  s :     2.676183
      pz      :     2.138978  p :     6.331205
      px      :     2.099545
      py      :     2.092682
      dz2     :     1.976836  d :     9.885242
      dxz     :     1.971412
      dyz     :     1.986645
      dx2y2   :     1.960284
      dxy     :     1.990064
      f0      :     0.000778  f :     0.004500
      f+1     :     0.000489
      f-1     :     0.000632
      f+2     :     0.000669
      f-2     :     0.000535
      f+3     :     0.000607
      f-3     :     0.000791
 12 Aus       :     2.577821  s :     2.577821
      pz      :     2.094038  p :     6.460568
      px      :     2.216003
      py      :     2.150526
      dz2     :     1.982125  d :     9.922145
      dxz     :     1.999977
      dyz     :     1.995314
      dx2y2   :     1.970875
      dxy     :     1.973854
      f0      :     0.000757  f :     0.005471
      f+1     :     0.000706
      f-1     :     0.000749
      f+2     :     0.000941
      f-2     :     0.001010
      f+3     :     0.000696
      f-3     :     0.000612
 13 Aus       :     2.543482  s :     2.543482
      pz      :     2.196307  p :     6.483624
      px      :     2.168234
      py      :     2.119084
      dz2     :     1.990392  d :     9.875186
      dxz     :     1.969179
      dyz     :     1.967378
      dx2y2   :     1.980297
      dxy     :     1.967941
      f0      :     0.001000  f :     0.005636
      f+1     :     0.000587
      f-1     :     0.000701
      f+2     :     0.000824
      f-2     :     0.000813
      f+3     :     0.000855
      f-3     :     0.000856
 14 Aus       :     2.490019  s :     2.490019
      pz      :     2.205824  p :     6.633503
      px      :     2.141654
      py      :     2.286026
      dz2     :     1.986661  d :     9.912236
      dxz     :     1.954660
      dyz     :     1.993053
      dx2y2   :     1.987485
      dxy     :     1.990378
      f0      :     0.001001  f :     0.007141
      f+1     :     0.000958
      f-1     :     0.001124
      f+2     :     0.001134
      f-2     :     0.000839
      f+3     :     0.000797
      f-3     :     0.001288
 15 Aus       :     2.580093  s :     2.580093
      pz      :     2.144796  p :     6.462325
      px      :     2.179097
      py      :     2.138433
      dz2     :     1.990879  d :     9.900409
      dxz     :     1.978686
      dyz     :     1.966902
      dx2y2   :     1.983982
      dxy     :     1.979960
      f0      :     0.000956  f :     0.005176
      f+1     :     0.000705
      f-1     :     0.000567
      f+2     :     0.000719
      f-2     :     0.000721
      f+3     :     0.000660
      f-3     :     0.000848
 16 Fes       :     6.247217  s :     6.247217
      pz      :     4.187590  p :    12.559148
      px      :     4.189337
      py      :     4.182221
      dz2     :     1.432909  d :     7.787554
      dxz     :     1.641857
      dyz     :     1.741905
      dx2y2   :     1.532964
      dxy     :     1.437920
      f0      :     0.000071  f :     0.000567
      f+1     :     0.000099
      f-1     :     0.000078
      f+2     :     0.000091
      f-2     :     0.000076
      f+3     :     0.000107
      f-3     :     0.000045

SPIN
  0 Aus       :    -0.029661  s :    -0.029661
      pz      :    -0.001643  p :    -0.015100
      px      :    -0.013723
      py      :     0.000266
      dz2     :    -0.003244  d :     0.000325
      dxz     :     0.003569
      dyz     :     0.000419
      dx2y2   :    -0.000848
      dxy     :     0.000429
      f0      :    -0.000011  f :     0.000053
      f+1     :     0.000046
      f-1     :    -0.000001
      f+2     :     0.000022
      f-2     :     0.000017
      f+3     :    -0.000018
      f-3     :    -0.000003
  1 Aus       :    -0.012827  s :    -0.012827
      pz      :    -0.007470  p :    -0.042946
      px      :    -0.017285
      py      :    -0.018191
      dz2     :     0.004150  d :     0.009476
      dxz     :    -0.000812
      dyz     :    -0.001297
      dx2y2   :    -0.003048
      dxy     :     0.010483
      f0      :    -0.000002  f :     0.000083
      f+1     :     0.000008
      f-1     :     0.000039
      f+2     :    -0.000009
      f-2     :    -0.000006
      f+3     :     0.000082
      f-3     :    -0.000029
  2 Aus       :    -0.001362  s :    -0.001362
      pz      :     0.005421  p :    -0.002496
      px      :     0.005917
      py      :    -0.013834
      dz2     :     0.005978  d :    -0.006297
      dxz     :     0.001480
      dyz     :    -0.003998
      dx2y2   :    -0.009378
      dxy     :    -0.000379
      f0      :     0.000023  f :     0.000076
      f+1     :     0.000015
      f-1     :     0.000025
      f+2     :    -0.000012
      f-2     :     0.000031
      f+3     :    -0.000004
      f-3     :    -0.000001
  3 Aus       :    -0.048294  s :    -0.048294
      pz      :    -0.006622  p :    -0.019046
      px      :     0.003120
      py      :    -0.015544
      dz2     :    -0.004854  d :    -0.019929
      dxz     :    -0.007511
      dyz     :     0.000624
      dx2y2   :    -0.012898
      dxy     :     0.004709
      f0      :    -0.000016  f :    -0.000040
      f+1     :    -0.000028
      f-1     :    -0.000003
      f+2     :    -0.000004
      f-2     :     0.000003
      f+3     :     0.000017
      f-3     :    -0.000010
  4 Aus       :     0.001522  s :     0.001522
      pz      :    -0.012065  p :    -0.031325
      px      :    -0.016460
      py      :    -0.002799
      dz2     :    -0.001062  d :    -0.006566
      dxz     :    -0.004144
      dyz     :    -0.000660
      dx2y2   :    -0.000903
      dxy     :     0.000203
      f0      :     0.000004  f :    -0.000062
      f+1     :    -0.000037
      f-1     :     0.000002
      f+2     :    -0.000008
      f-2     :    -0.000017
      f+3     :    -0.000002
      f-3     :    -0.000004
  5 Aus       :    -0.061809  s :    -0.061809
      pz      :    -0.005067  p :    -0.024659
      px      :    -0.020896
      py      :     0.001305
      dz2     :     0.000860  d :    -0.001889
      dxz     :    -0.002031
      dyz     :    -0.000057
      dx2y2   :     0.004960
      dxy     :    -0.005620
      f0      :    -0.000013  f :     0.000054
      f+1     :     0.000039
      f-1     :    -0.000003
      f+2     :    -0.000030
      f-2     :    -0.000015
      f+3     :     0.000075
      f-3     :     0.000001
  6 Aus       :    -0.070098  s :    -0.070098
      pz      :    -0.000056  p :    -0.050638
      px      :    -0.037583
      py      :    -0.012998
      dz2     :    -0.002675  d :    -0.046610
      dxz     :    -0.001375
      dyz     :    -0.001629
      dx2y2   :    -0.037823
      dxy     :    -0.003108
      f0      :    -0.000010  f :    -0.000114
      f+1     :    -0.000005
      f-1     :    -0.000014
      f+2     :    -0.000003
      f-2     :    -0.000001
      f+3     :    -0.000050
      f-3     :    -0.000031
  7 Aus       :     0.003759  s :     0.003759
      pz      :    -0.006592  p :    -0.040330
      px      :    -0.019754
      py      :    -0.013983
      dz2     :    -0.008135  d :    -0.017049
      dxz     :    -0.008159
      dyz     :     0.006422
      dx2y2   :    -0.005200
      dxy     :    -0.001976
      f0      :     0.000002  f :     0.000015
      f+1     :    -0.000030
      f-1     :    -0.000001
      f+2     :    -0.000001
      f-2     :     0.000043
      f+3     :     0.000016
      f-3     :    -0.000014
  8 Aus       :    -0.021118  s :    -0.021118
      pz      :    -0.001592  p :    -0.009680
      px      :    -0.000789
      py      :    -0.007298
      dz2     :     0.007128  d :     0.008470
      dxz     :     0.002916
      dyz     :     0.001039
      dx2y2   :    -0.005334
      dxy     :     0.002720
      f0      :     0.000015  f :     0.000065
      f+1     :     0.000008
      f-1     :     0.000022
      f+2     :    -0.000001
      f-2     :     0.000026
      f+3     :    -0.000003
      f-3     :    -0.000003
  9 Aus       :    -0.030488  s :    -0.030488
      pz      :    -0.010044  p :    -0.014623
      px      :    -0.004689
      py      :     0.000110
      dz2     :    -0.004415  d :     0.001408
      dxz     :    -0.003714
      dyz     :    -0.001506
      dx2y2   :     0.009539
      dxy     :     0.001503
      f0      :    -0.000025  f :     0.000075
      f+1     :     0.000052
      f-1     :    -0.000003
      f+2     :    -0.000015
      f-2     :    -0.000016
      f+3     :     0.000060
      f-3     :     0.000022
 10 Aus       :     0.003157  s :     0.003157
      pz      :    -0.003750  p :    -0.040380
      px      :    -0.026330
      py      :    -0.010301
      dz2     :    -0.003676  d :    -0.017751
      dxz     :    -0.007688
      dyz     :    -0.004964
      dx2y2   :    -0.008707
      dxy     :     0.007284
      f0      :    -0.000029  f :     0.000009
      f+1     :     0.000010
      f-1     :     0.000016
      f+2     :    -0.000029
      f-2     :    -0.000009
      f+3     :     0.000041
      f-3     :     0.000009
 11 Aus       :    -0.073081  s :    -0.073081
      pz      :    -0.013284  p :    -0.050456
      px      :    -0.026600
      py      :    -0.010572
      dz2     :    -0.003020  d :    -0.046085
      dxz     :    -0.014516
      dyz     :    -0.003157
      dx2y2   :    -0.022391
      dxy     :    -0.003002
      f0      :     0.000001  f :    -0.000109
      f+1     :     0.000002
      f-1     :    -0.000016
      f+2     :    -0.000050
      f-2     :    -0.000009
      f+3     :    -0.000004
      f-3     :    -0.000033
 12 Aus       :     0.005769  s :     0.005769
      pz      :    -0.002237  p :    -0.031103
      px      :    -0.027440
      py      :    -0.001426
      dz2     :    -0.004184  d :    -0.005895
      dxz     :    -0.001428
      dyz     :    -0.001069
      dx2y2   :    -0.000340
      dxy     :     0.001125
      f0      :    -0.000017  f :    -0.000063
      f+1     :    -0.000007
      f-1     :    -0.000016
      f+2     :    -0.000007
      f-2     :     0.000007
      f+3     :    -0.000016
      f-3     :    -0.000006
 13 Aus       :    -0.012788  s :    -0.012788
      pz      :    -0.001246  p :    -0.041500
      px      :    -0.018843
      py      :    -0.021411
      dz2     :    -0.000106  d :     0.009823
      dxz     :     0.003059
      dyz     :     0.010471
      dx2y2   :    -0.005241
      dxy     :     0.001640
      f0      :     0.000022  f :     0.000090
      f+1     :    -0.000011
      f-1     :     0.000005
      f+2     :     0.000032
      f-2     :     0.000048
      f+3     :     0.000039
      f-3     :    -0.000043
 14 Aus       :    -0.058850  s :    -0.058850
      pz      :    -0.006070  p :    -0.026325
      px      :    -0.020683
      py      :     0.000428
      dz2     :    -0.004034  d :    -0.001051
      dxz     :     0.008546
      dyz     :     0.000740
      dx2y2   :    -0.002154
      dxy     :    -0.004148
      f0      :    -0.000012  f :     0.000058
      f+1     :     0.000023
      f-1     :     0.000005
      f+2     :     0.000056
      f-2     :    -0.000013
      f+3     :    -0.000007
      f-3     :     0.000005
 15 Aus       :    -0.002379  s :    -0.002379
      pz      :    -0.002464  p :    -0.015723
      px      :    -0.000356
      py      :    -0.012903
      dz2     :    -0.003629  d :    -0.015189
      dxz     :    -0.002754
      dyz     :    -0.008650
      dx2y2   :    -0.001086
      dxy     :     0.000930
      f0      :    -0.000028  f :    -0.000098
      f+1     :    -0.000013
      f-1     :    -0.000002
      f+2     :    -0.000028
      f-2     :     0.000002
      f+3     :    -0.000006
      f-3     :    -0.000023
 16 Fes       :     0.006388  s :     0.006388
      pz      :     0.003768  p :     0.011358
      px      :     0.005396
      py      :     0.002194
      dz2     :     0.745678  d :     3.001847
      dxz     :     0.502997
      dyz     :     0.436694
      dx2y2   :     0.549330
      dxy     :     0.767148
      f0      :    -0.000004  f :     0.000003
      f+1     :     0.000002
      f-1     :     0.000006
      f+2     :    -0.000010
      f-2     :     0.000003
      f+3     :     0.000004
      f-3     :     0.000001


                      *****************************
                      * MAYER POPULATION ANALYSIS *
                      *****************************

  NA   - Mulliken gross atomic population
  ZA   - Total nuclear charge
  QA   - Mulliken gross atomic charge
  VA   - Mayer's total valence
  BVA  - Mayer's bonded valence
  FA   - Mayer's free valence

  ATOM       NA         ZA         QA         VA         BVA        FA
  0 Au    18.6418    19.0000     0.3582     1.4830     1.4784     0.0046
  1 Au    18.6231    19.0000     0.3769     1.5314     1.5261     0.0053
  2 Au    19.1935    19.0000    -0.1935     2.0678     2.0654     0.0024
  3 Au    19.9413    19.0000    -0.9413     2.6009     2.5728     0.0281
  4 Au    18.6507    19.0000     0.3493     1.4688     1.4681     0.0007
  5 Au    19.2035    19.0000    -0.2035     2.0772     2.0524     0.0248
  6 Au    18.5344    19.0000     0.4656     1.3959     1.3648     0.0311
  7 Au    18.8818    19.0000     0.1182     1.7058     1.7021     0.0037
  8 Au    18.6238    19.0000     0.3762     1.5241     1.5201     0.0040
  9 Au    18.6437    19.0000     0.3563     1.4844     1.4795     0.0049
 10 Au    18.8817    19.0000     0.1183     1.7041     1.7004     0.0037
 11 Au    18.5362    19.0000     0.4638     1.3964     1.3628     0.0336
 12 Au    18.6454    19.0000     0.3546     1.4661     1.4655     0.0006
 13 Au    18.6222    19.0000     0.3778     1.5297     1.5246     0.0052
 14 Au    19.1983    19.0000    -0.1983     2.0856     2.0627     0.0229
 15 Au    18.7932    19.0000     0.2068     1.5482     1.5462     0.0019
 16 Fe    28.3853    26.0000    -2.3853     7.5359     4.9625     2.5734

  Mayer bond orders larger than 0.100000
B(  0-Au,  5-Au) :   0.1733 B(  0-Au,  7-Au) :   0.2066 B(  0-Au,  8-Au) :   0.1624 
B(  0-Au, 15-Au) :   0.2073 B(  0-Au, 16-Fe) :   0.3889 B(  1-Au,  2-Au) :   0.2044 
B(  1-Au,  5-Au) :   0.3376 B(  1-Au, 13-Au) :   0.1073 B(  1-Au, 15-Au) :   0.1840 
B(  1-Au, 16-Fe) :   0.3789 B(  2-Au,  3-Au) :   0.1001 B(  2-Au,  4-Au) :   0.2768 
B(  2-Au,  5-Au) :   0.1721 B(  2-Au, 12-Au) :   0.2792 B(  2-Au, 13-Au) :   0.2021 
B(  2-Au, 14-Au) :   0.1685 B(  2-Au, 16-Fe) :   0.4877 B(  3-Au,  4-Au) :   0.2769 
B(  3-Au,  5-Au) :   0.1958 B(  3-Au,  6-Au) :   0.3303 B(  3-Au,  7-Au) :   0.2630 
B(  3-Au, 10-Au) :   0.2659 B(  3-Au, 11-Au) :   0.3275 B(  3-Au, 12-Au) :   0.2728 
B(  3-Au, 14-Au) :   0.1976 B(  3-Au, 16-Fe) :   0.2838 B(  4-Au,  5-Au) :   0.2255 
B(  4-Au,  6-Au) :   0.1564 B(  4-Au, 12-Au) :   0.2517 B(  5-Au,  6-Au) :   0.2963 
B(  5-Au, 16-Fe) :   0.3794 B(  6-Au,  7-Au) :   0.2139 B(  7-Au,  8-Au) :   0.2222 
B(  7-Au, 16-Fe) :   0.4305 B(  8-Au,  9-Au) :   0.1622 B(  8-Au, 10-Au) :   0.2223 
B(  8-Au, 16-Fe) :   0.4428 B(  9-Au, 10-Au) :   0.2053 B(  9-Au, 14-Au) :   0.1754 
B(  9-Au, 15-Au) :   0.2063 B(  9-Au, 16-Fe) :   0.3899 B( 10-Au, 11-Au) :   0.2131 
B( 10-Au, 16-Fe) :   0.4320 B( 11-Au, 12-Au) :   0.1524 B( 11-Au, 14-Au) :   0.3036 
B( 12-Au, 14-Au) :   0.2305 B( 13-Au, 14-Au) :   0.3418 B( 13-Au, 15-Au) :   0.1810 
B( 13-Au, 16-Fe) :   0.3784 B( 14-Au, 16-Fe) :   0.3751 B( 15-Au, 16-Fe) :   0.3852 


-------
TIMINGS
-------

Total SCF time: 0 days 0 hours 4 min 33 sec 

Total time                  ....     273.903 sec
Sum of individual times     ....     271.569 sec  ( 99.1%)

Fock matrix formation       ....     252.830 sec  ( 92.3%)
  Split-RI-J                ....      48.005 sec  ( 19.0% of F)
  XC integration            ....     202.991 sec  ( 80.3% of F)
    Basis function eval.    ....      11.259 sec  (  5.5% of XC)
    Density eval.           ....      93.421 sec  ( 46.0% of XC)
    XC-Functional eval.     ....       5.982 sec  (  2.9% of XC)
    XC-Potential eval.      ....      89.821 sec  ( 44.2% of XC)
Diagonalization             ....      11.214 sec  (  4.1%)
Density matrix formation    ....       0.668 sec  (  0.2%)
Population analysis         ....       0.196 sec  (  0.1%)
Initial guess               ....       0.286 sec  (  0.1%)
Orbital Transformation      ....       0.000 sec  (  0.0%)
Orbital Orthonormalization  ....       0.246 sec  (  0.1%)
DIIS solution               ....       4.898 sec  (  1.8%)
Grid generation             ....       1.478 sec  (  0.5%)

Maximum memory used throughout the entire SCF-calculation: 124.7 MB

-------------------------   --------------------
FINAL SINGLE POINT ENERGY     -3437.275208895389
-------------------------   --------------------


                            ***************************************
                            *     ORCA property calculations      *
                            ***************************************

                                    ---------------------
                                    Active property flags
                                    ---------------------
   (+) Dipole Moment


------------------------------------------------------------------------------
                       ORCA ELECTRIC PROPERTIES CALCULATION
------------------------------------------------------------------------------

Dipole Moment Calculation                       ... on
Quadrupole Moment Calculation                   ... off
Polarizability Calculation                      ... off
GBWName                                         ... scan_job2.gbw
Electron density                                ... scan_job2.scfp
The origin for moment calculation is the CENTER OF MASS  = (13.677959, 14.966901 13.020432)

-------------
DIPOLE MOMENT
-------------
                                X             Y             Z
Electronic contribution:     10.02545      19.88381     -23.09815
Nuclear contribution   :    -10.10566     -19.94388      23.31104
                        -----------------------------------------
Total Dipole Moment    :     -0.08021      -0.06007       0.21289
                        -----------------------------------------
Magnitude (a.u.)       :      0.23530
Magnitude (Debye)      :      0.59807



--------------------
Rotational spectrum 
--------------------
 
Rotational constants in cm-1:     0.000965     0.000822     0.000732 
Rotational constants in MHz :    28.920616    24.632285    21.932855 

 Dipole components along the rotational axes: 
x,y,z [a.u.] :     0.217833     0.006596     0.088708 
x,y,z [Debye]:     0.553688     0.016766     0.225477 

 

Timings for individual modules:

Sum of individual times         ...      286.524 sec (=   4.775 min)
GTO integral calculation        ...       12.472 sec (=   0.208 min)   4.4 %
SCF iterations                  ...      274.052 sec (=   4.568 min)  95.6 %



                             ****ORCA TERMINATED NORMALLY****
TOTAL RUN TIME: 0 days 0 hours 5 minutes 14 seconds 866 msec
