
                                 *****************
                                 * O   R   C   A *
                                 *****************

                                            #,                                       
                                            ###                                      
                                            ####                                     
                                            #####                                    
                                            ######                                   
                                           ########,                                 
                                     ,,################,,,,,                         
                               ,,#################################,,                 
                          ,,##########################################,,             
                       ,#########################################, ''#####,          
                    ,#############################################,,   '####,        
                  ,##################################################,,,,####,       
                ,###########''''           ''''###############################       
              ,#####''   ,,,,##########,,,,          '''####'''          '####       
            ,##' ,,,,###########################,,,                        '##       
           ' ,,###''''                  '''############,,,                           
         ,,##''                                '''############,,,,        ,,,,,,###''
      ,#''                                            '''#######################'''  
     '                                                          ''''####''''         
             ,#######,   #######,   ,#######,      ##                                
            ,#'     '#,  ##    ##  ,#'     '#,    #''#        ######   ,####,        
            ##       ##  ##   ,#'  ##            #'  '#       #        #'  '#        
            ##       ##  #######   ##           ,######,      #####,   #    #        
            '#,     ,#'  ##    ##  '#,     ,#' ,#      #,         ##   #,  ,#        
             '#######'   ##     ##  '#######'  #'      '#     #####' # '####'        



                  #######################################################
                  #                        -***-                        #
                  #          Department of theory and spectroscopy      #
                  #    Directorship and core code : Frank Neese         #
                  #        Max Planck Institute fuer Kohlenforschung    #
                  #                Kaiser Wilhelm Platz 1               #
                  #                 D-45470 Muelheim/Ruhr               #
                  #                      Germany                        #
                  #                                                     #
                  #                  All rights reserved                #
                  #                        -***-                        #
                  #######################################################


                         Program Version 5.0.3 -  RELEASE  -


 With contributions from (in alphabetic order):
   Daniel Aravena         : Magnetic Suceptibility
   Michael Atanasov       : Ab Initio Ligand Field Theory (pilot matlab implementation)
   Alexander A. Auer      : GIAO ZORA, VPT2 properties, NMR spectrum
   Ute Becker             : Parallelization
   Giovanni Bistoni       : ED, misc. LED, open-shell LED, HFLD
   Martin Brehm           : Molecular dynamics
   Dmytro Bykov           : SCF Hessian
   Vijay G. Chilkuri      : MRCI spin determinant printing, contributions to CSF-ICE
   Dipayan Datta          : RHF DLPNO-CCSD density
   Achintya Kumar Dutta   : EOM-CC, STEOM-CC
   Dmitry Ganyushin       : Spin-Orbit,Spin-Spin,Magnetic field MRCI
   Miquel Garcia          : C-PCM and meta-GGA Hessian, CC/C-PCM, Gaussian charge scheme
   Yang Guo               : DLPNO-NEVPT2, F12-NEVPT2, CIM, IAO-localization
   Andreas Hansen         : Spin unrestricted coupled pair/coupled cluster methods
   Benjamin Helmich-Paris : MC-RPA, TRAH-SCF, COSX integrals
   Lee Huntington         : MR-EOM, pCC
   Robert Izsak           : Overlap fitted RIJCOSX, COSX-SCS-MP3, EOM
   Marcus Kettner         : VPT2
   Christian Kollmar      : KDIIS, OOCD, Brueckner-CCSD(T), CCSD density, CASPT2, CASPT2-K
   Simone Kossmann        : Meta GGA functionals, TD-DFT gradient, OOMP2, MP2 Hessian
   Martin Krupicka        : Initial AUTO-CI
   Lucas Lang             : DCDCAS
   Marvin Lechner         : AUTO-CI (C++ implementation), FIC-MRCC
   Dagmar Lenk            : GEPOL surface, SMD
   Dimitrios Liakos       : Extrapolation schemes; Compound Job, initial MDCI parallelization
   Dimitrios Manganas     : Further ROCIS development; embedding schemes
   Dimitrios Pantazis     : SARC Basis sets
   Anastasios Papadopoulos: AUTO-CI, single reference methods and gradients
   Taras Petrenko         : DFT Hessian,TD-DFT gradient, ASA, ECA, R-Raman, ABS, FL, XAS/XES, NRVS
   Peter Pinski           : DLPNO-MP2, DLPNO-MP2 Gradient
   Christoph Reimann      : Effective Core Potentials
   Marius Retegan         : Local ZFS, SOC
   Christoph Riplinger    : Optimizer, TS searches, QM/MM, DLPNO-CCSD(T), (RO)-DLPNO pert. Triples
   Tobias Risthaus        : Range-separated hybrids, TD-DFT gradient, RPA, STAB
   Michael Roemelt        : Original ROCIS implementation
   Masaaki Saitow         : Open-shell DLPNO-CCSD energy and density
   Barbara Sandhoefer     : DKH picture change effects
   Avijit Sen             : IP-ROCIS
   Kantharuban Sivalingam : CASSCF convergence, NEVPT2, FIC-MRCI
   Bernardo de Souza      : ESD, SOC TD-DFT
   Georgi Stoychev        : AutoAux, RI-MP2 NMR, DLPNO-MP2 response
   Willem Van den Heuvel  : Paramagnetic NMR
   Boris Wezisla          : Elementary symmetry handling
   Frank Wennmohs         : Technical directorship


 We gratefully acknowledge several colleagues who have allowed us to
 interface, adapt or use parts of their codes:
   Stefan Grimme, W. Hujo, H. Kruse, P. Pracht,  : VdW corrections, initial TS optimization,
                  C. Bannwarth, S. Ehlert          DFT functionals, gCP, sTDA/sTD-DF
   Ed Valeev, F. Pavosevic, A. Kumar             : LibInt (2-el integral package), F12 methods
   Garnet Chan, S. Sharma, J. Yang, R. Olivares  : DMRG
   Ulf Ekstrom                                   : XCFun DFT Library
   Mihaly Kallay                                 : mrcc  (arbitrary order and MRCC methods)
   Jiri Pittner, Ondrej Demel                    : Mk-CCSD
   Frank Weinhold                                : gennbo (NPA and NBO analysis)
   Christopher J. Cramer and Donald G. Truhlar   : smd solvation model
   Lars Goerigk                                  : TD-DFT with DH, B97 family of functionals
   V. Asgeirsson, H. Jonsson                     : NEB implementation
   FAccTs GmbH                                   : IRC, NEB, NEB-TS, DLPNO-Multilevel, CI-OPT
                                                   MM, QMMM, 2- and 3-layer-ONIOM, Crystal-QMMM,
                                                   LR-CPCM, SF, NACMEs, symmetry and pop. for TD-DFT,
                                                   nearIR, NL-DFT gradient (VV10), updates on ESD,
                                                   ML-optimized integration grids
   S Lehtola, MJT Oliveira, MAL Marques          : LibXC Library
   Liviu Ungur et al                             : ANISO software


 Your calculation uses the libint2 library for the computation of 2-el integrals
 For citations please refer to: http://libint.valeyev.net

 Your ORCA version has been built with support for libXC version: 5.1.0
 For citations please refer to: https://tddft.org/programs/libxc/

 This ORCA versions uses:
   CBLAS   interface :  Fast vector & matrix operations
   LAPACKE interface :  Fast linear algebra routines
   SCALAPACK package :  Parallel linear algebra routines
   Shared memory     :  Shared parallel matrices
   BLAS/LAPACK       :  OpenBLAS 0.3.15  USE64BITINT DYNAMIC_ARCH NO_AFFINITY Haswell SINGLE_THREADED
        Core in use  :  Haswell
   Copyright (c) 2011-2014, The OpenBLAS Project




***************************************
The coordinates will be read from file: pbe.xyz
***************************************


================================================================================

cite the ECPs for Au [Def2-ECP] as follows:
Ce-Yb(ecp-28): M. Dolg, H. Stoll, H.Preuss, J. Chem. Phys., 1989, 90, 1730-1734.
Y-Cd(ecp-28), Hf-Hg(ecp-46): D. Andrae,U. Haeussermann, M. Dolg, H. Stoll, H. Preuss, Theor. Chim. Acta, 1990, 77, 123-141.
In-Sb(ecp-28), Tl-Bi(ecp-46): B. Metz, H. Stoll, M. Dolg, J. Chem. Phys., 2000, 113, 2563-2569.
Te-Xe(ecp-28), Po-Rn(ecp-46): K. A. Peterson, D. Figgen, E. Goll, H. Stoll, M. Dolg, J. Chem. Phys., 2003, 119, 11113-11123.
Rb(ecp-28), Cs(ecp-46): T. Leininger, A. Nicklass, W. Kuechle, H. Stoll, M. Dolg, A. Bergner, Chem. Phys. Lett., 1996, 255, 274-280.
Sr(ecp-28), Ba(ecp-46): M. Kaupp, P. V. Schleyer, H. Stoll and H. Preuss, J. Chem. Phys., 1991, 94, 1360-1366.
La(ecp-46): M. Dolg, H. Stoll, A. Savin, H. Preuss, Theor. Chim. Acta, 1989, 75, 173-194.
Lu(ecp-28): X. Cao, M. Dolg, J. Chem. Phys., 2001, 115, 7348-7355.

ECP parameters for Au [Def2-ECP] have been obtained from:
TURBOMOLE (7.0.2)

----- Orbital basis set information -----
Your calculation utilizes the basis: def2-TZVP
   F. Weigend and R. Ahlrichs, Phys. Chem. Chem. Phys. 7, 3297 (2005).

----- AuxJ basis set information -----
Your calculation utilizes the auxiliary basis: def2/J
   F. Weigend, Phys. Chem. Chem. Phys. 8, 1057 (2006).

----- AuxC basis set information -----
Your calculation utilizes the auxiliary basis: def2-TZVP/C
  H-La, Hf-Rn : A. Hellweg, C. Hattig, S. Hofener and W. Klopper, Theor. Chem. Acc. 117, 587 (2007).
        Ce-Lu : J. Chmela and M. E. Harding, Mol. Phys. (2018).

================================================================================
                                        WARNINGS
                       Please study these warnings very carefully!
================================================================================


INFO   : the flag for use of the SHARK integral package has been found!

================================================================================
                                       INPUT FILE
================================================================================
NAME = casscf.inp
|  1> !CASSCF def2-TZVP def2-TZVP/C
|  2> !MOREAD RIJCOSX
|  3> %maxcore 6000
|  4> %moinp "pbe.qro"
|  5> %pal nprocs 2 end 
|  6> 
|  7> %casscf
|  8>  mult 5,3
|  9>  bweight 1,1
| 10>  nroots 5,45
| 11>  nel 6
| 12>  norb 5
| 13> end
| 14> 
| 15> 
| 16> *xyzfile 0 5 pbe.xyz
| 17> 
| 18> 
| 19>                          ****END OF INPUT****
================================================================================

                       ****************************
                       * Single Point Calculation *
                       ****************************

---------------------------------
CARTESIAN COORDINATES (ANGSTROEM)
---------------------------------
  Au     6.506410    4.936093    9.111252
  Au     5.996160    6.710457    6.967844
  Au     9.321464    4.350180    5.707781
  Au     8.664301    3.400167    8.288803
  Au     7.984312    6.705642    4.995174
  Au    10.889325    5.146047    8.336078
  Au    10.526932    6.924577    6.113651
  Au     8.144321    8.617510    7.016431
  Au     7.554875    7.515984    9.597442
  Au    10.199473    7.830657    8.731268
  Cr     8.458996    5.965908    7.633582

----------------------------
CARTESIAN COORDINATES (A.U.)
----------------------------
  NO LB      ZA    FRAG     MASS         X           Y           Z
   0 Au   19.0000*   0   196.966   12.295333    9.327865   17.217771
   1 Au   19.0000*   0   196.966   11.331100   12.680926   13.167318
   2 Au   19.0000*   0   196.966   17.615013    8.220649   10.786143
   3 Au   19.0000*   0   196.966   16.373156    6.425385   15.663569
   4 Au   19.0000*   0   196.966   15.088164   12.671828    9.439512
   5 Au   19.0000*   0   196.966   20.577842    9.724620   15.752904
   6 Au   19.0000*   0   196.966   19.893018   13.085555   11.553126
   7 Au   19.0000*   0   196.966   15.390536   16.284733   13.259133
   8 Au   19.0000*   0   196.966   14.276644   14.203151   18.136537
   9 Au   19.0000*   0   196.966   19.274211   14.797798   16.499706
  10 Cr   24.0000    0    52.000   15.985186   11.273932   14.425380
* core charge reduced due to ECP

--------------------------------
INTERNAL COORDINATES (ANGSTROEM)
--------------------------------
 Au     0   0   0     0.000000000000     0.00000000     0.00000000
 Au     1   0   0     2.828942971492     0.00000000     0.00000000
 Au     2   1   0     4.268056862973    74.71048582     0.00000000
 Au     1   2   3     2.773443022268   105.24842373   359.89794567
 Au     3   2   1     2.800711311227    40.36355451   194.25614325
 Au     4   1   2     2.828615264007   105.38218470    71.03264362
 Au     5   3   2     2.786365689361    61.85403631   109.38826867
 Au     5   3   2     2.786811430526   111.40891952    63.32782705
 Au     1   2   3     2.826922969396    67.96309171   100.80090873
 Au     7   5   3     2.789288761476   107.16356194   254.17981901
 Cr     4   1   2     2.656028680351    58.53627139    35.55957593

---------------------------
INTERNAL COORDINATES (A.U.)
---------------------------
 Au     0   0   0     0.000000000000     0.00000000     0.00000000
 Au     1   0   0     5.345927464601     0.00000000     0.00000000
 Au     2   1   0     8.065458595022    74.71048582     0.00000000
 Au     1   2   3     5.241047760122   105.24842373   359.89794567
 Au     3   2   1     5.292577358395    40.36355451   194.25614325
 Au     4   1   2     5.345308187202   105.38218470    71.03264362
 Au     5   3   2     5.265468061847    61.85403631   109.38826867
 Au     5   3   2     5.266310390576   111.40891952    63.32782705
 Au     1   2   3     5.342110213849    67.96309171   100.80090873
 Au     7   5   3     5.270991867614   107.16356194   254.17981901
 Cr     4   1   2     5.019166809704    58.53627139    35.55957593

---------------------
BASIS SET INFORMATION
---------------------
There are 2 groups of distinct atoms

 Group   1 Type Au  : 8s7p6d1f contracted to 6s4p3d1f pattern {311111/4111/411/1}
 Group   2 Type Cr  : 17s11p7d1f contracted to 6s4p4d1f pattern {842111/6311/4111/1}

Atom   0Au   basis set group =>   1
Atom   1Au   basis set group =>   1
Atom   2Au   basis set group =>   1
Atom   3Au   basis set group =>   1
Atom   4Au   basis set group =>   1
Atom   5Au   basis set group =>   1
Atom   6Au   basis set group =>   1
Atom   7Au   basis set group =>   1
Atom   8Au   basis set group =>   1
Atom   9Au   basis set group =>   1
Atom  10Cr   basis set group =>   2
---------------------------------
AUXILIARY/J BASIS SET INFORMATION
---------------------------------
There are 2 groups of distinct atoms

 Group   1 Type Au  : 11s5p5d3f3g contracted to 8s5p5d2f3g pattern {41111111/11111/11111/21/111}
 Group   2 Type Cr  : 19s5p5d3f3g contracted to 8s5p5d2f3g pattern {121111111/11111/11111/21/111}

Atom   0Au   basis set group =>   1
Atom   1Au   basis set group =>   1
Atom   2Au   basis set group =>   1
Atom   3Au   basis set group =>   1
Atom   4Au   basis set group =>   1
Atom   5Au   basis set group =>   1
Atom   6Au   basis set group =>   1
Atom   7Au   basis set group =>   1
Atom   8Au   basis set group =>   1
Atom   9Au   basis set group =>   1
Atom  10Cr   basis set group =>   2
---------------------------------
AUXILIARY/C BASIS SET INFORMATION
---------------------------------
There are 2 groups of distinct atoms

 Group   1 Type Au  : 8s8p7d5f3g2h contracted to 8s8p7d5f3g2h pattern {11111111/11111111/1111111/11111/111/11}
 Group   2 Type Cr  : 11s9p8d6f5g2h contracted to 9s8p8d6f5g2h pattern {311111111/21111111/11111111/111111/11111/11}

Atom   0Au   basis set group =>   1
Atom   1Au   basis set group =>   1
Atom   2Au   basis set group =>   1
Atom   3Au   basis set group =>   1
Atom   4Au   basis set group =>   1
Atom   5Au   basis set group =>   1
Atom   6Au   basis set group =>   1
Atom   7Au   basis set group =>   1
Atom   8Au   basis set group =>   1
Atom   9Au   basis set group =>   1
Atom  10Cr   basis set group =>   2
-------------------------
ECP PARAMETER INFORMATION
-------------------------

 Group 1, Type Au ECP Def2-ECP (replacing 60 core electrons, lmax=3)

Atom   0Au   ECP group =>   1
Atom   1Au   ECP group =>   1
Atom   2Au   ECP group =>   1
Atom   3Au   ECP group =>   1
Atom   4Au   ECP group =>   1
Atom   5Au   ECP group =>   1
Atom   6Au   ECP group =>   1
Atom   7Au   ECP group =>   1
Atom   8Au   ECP group =>   1
Atom   9Au   ECP group =>   1



           ************************************************************
           *        Program running with 2 parallel MPI-processes     *
           *              working on a common directory               *
           ************************************************************
------------------------------------------------------------------------------
                           ORCA GTO INTEGRAL CALCULATION
                           -- RI-GTO INTEGRALS CHOSEN --
------------------------------------------------------------------------------
------------------------------------------------------------------------------
                   ___                                                        
                  /   \      - P O W E R E D   B Y -                         
                 /     \                                                     
                 |  |  |   _    _      __       _____    __    __             
                 |  |  |  | |  | |    /  \     |  _  \  |  |  /  |          
                  \  \/   | |  | |   /    \    | | | |  |  | /  /          
                 / \  \   | |__| |  /  /\  \   | |_| |  |  |/  /          
                |  |  |   |  __  | /  /__\  \  |    /   |      \           
                |  |  |   | |  | | |   __   |  |    \   |  |\   \          
                \     /   | |  | | |  |  |  |  | |\  \  |  | \   \       
                 \___/    |_|  |_| |__|  |__|  |_| \__\ |__|  \__/        
                                                                              
                      - O R C A' S   B I G   F R I E N D -                    
                                      &                                       
                       - I N T E G R A L  F E E D E R -                       
                                                                              
 v1 FN, 2020, v2 2021                                                         
------------------------------------------------------------------------------


Reading SHARK input file casscf.SHARKINP.tmp ... ok
----------------------
SHARK INTEGRAL PACKAGE
----------------------

Number of atoms                             ...     11
Number of basis functions                   ...    445
Number of shells                            ...    155
Maximum angular momentum                    ...      3
Integral batch strategy                     ... SHARK/LIBINT Hybrid
RI-J (if used) integral strategy            ... SPLIT-RIJ (Revised 2003 algorithm where possible)
Printlevel                                  ...      1
Contraction scheme used                     ... SEGMENTED contraction
Coulomb Range Separation                    ... NOT USED
Exchange Range Separation                   ... NOT USED
Finite Nucleus Model                        ... NOT USED
Auxiliary Coulomb fitting basis             ... AVAILABLE
   # of basis functions in Aux-J            ...    979
   # of shells in Aux-J                     ...    253
   Maximum angular momentum in Aux-J        ...      4
Auxiliary J/K fitting basis                 ... NOT available
Auxiliary Correlation fitting basis         ... AVAILABLE
   # of basis functions in Aux-C            ...   1692
   # of shells in Aux-C                     ...    368
   Maximum angular momentum in Aux-C        ...      5
Auxiliary 'external' fitting basis          ... NOT available
Integral threshold                          ...     1.000000e-10
Primitive cut-off                           ...     1.000000e-11
Primitive pair pre-selection threshold      ...     1.000000e-11

Calculating pre-screening integrals         ... done (  0.4 sec) Dimension = 155
Organizing shell pair data                  ... done (  0.4 sec)
Shell pair information
Total number of shell pairs                 ...     12090
Shell pairs after pre-screening             ...     10285
Total number of primitive shell pairs       ...     33105
Primitive shell pairs kept                  ...     20924
          la=0 lb=0:   1592 shell pairs
          la=1 lb=0:   2348 shell pairs
          la=1 lb=1:    879 shell pairs
          la=2 lb=0:   2046 shell pairs
          la=2 lb=1:   1414 shell pairs
          la=2 lb=2:    584 shell pairs
          la=3 lb=0:    568 shell pairs
          la=3 lb=1:    426 shell pairs
          la=3 lb=2:    366 shell pairs
          la=3 lb=3:     62 shell pairs

Calculating one electron integrals          ... done (  0.1 sec)
Calculating ECP integrals                   ... done ( 10.6 sec)
Calculating RI/J V-Matrix + Cholesky decomp.... done (  0.2 sec)
Calculating RI/C V-Matrix + Cholesky decomp.... done (  0.6 sec)
Calculating Nuclear repulsion               ... done (  0.0 sec) ENN=   3250.764997095157 Eh

SHARK setup successfully completed in  13.4 seconds

Maximum memory used throughout the entire GTOINT-calculation: 52.4 MB


           ************************************************************
           *        Program running with 2 parallel MPI-processes     *
           *              working on a common directory               *
           ************************************************************
-------------------------------------------------------------------------------
                                 ORCA SCF
-------------------------------------------------------------------------------

------------
SCF SETTINGS
------------
Hamiltonian:
 Ab initio Hamiltonian  Method          .... Hartree-Fock(GTOs)
 RI-approximation to the Coulomb term is turned on
   Number of AuxJ basis functions       .... 979
   RIJ-COSX (HFX calculated with COS-X)).... on


General Settings:
 Integral files         IntName         .... casscf
 Hartree-Fock type      HFTyp           .... CASSCF
 Total Charge           Charge          ....    0
 Multiplicity           Mult            ....    5
 Number of Electrons    NEL             ....  214
 Basis Dimension        Dim             ....  445
 Nuclear Repulsion      ENuc            ....   3250.7649970952 Eh


Diagonalization of the overlap matrix:
Smallest eigenvalue                        ... 1.708e-04
Time for diagonalization                   ...    0.064 sec
Threshold for overlap eigenvalues          ... 1.000e-08
Number of eigenvalues below threshold      ... 0
Time for construction of square roots      ...    0.073 sec
Total time needed                          ...    0.137 sec

---------------------
INITIAL GUESS: MOREAD
---------------------
Guess MOs are being read from file: pbe.qro
Input Geometry matches current geometry (good)
Input basis set matches current basis set (good)
MOs were renormalized
Gram-Schmidt orthogonalization of all MOs with pivot on actives
                      ------------------
                      INITIAL GUESS DONE (   1.4 sec)
                      ------------------
--------------------
COSX GRID GENERATION
--------------------

GRIDX 1
-------
General Integration Accuracy     IntAcc      ... 3.816
Radial Grid Type                 RadialGrid  ... OptM3 with GC (2021)
Angular Grid (max. ang.)         AngularGrid ... 1 (Lebedev-50)
Angular grid pruning method      GridPruning ... 4 (adaptive)
Weight generation scheme         WeightScheme... Becke
Basis function cutoff            BFCut       ... 1.0000e-10
Integration weight cutoff        WCut        ... 1.0000e-14
Angular grids for H and He will be reduced by one unit
Partially contracted basis set               ... on
Rotationally invariant grid construction     ... off

Total number of grid points                  ...    13021
Total number of batches                      ...      209
Average number of points per batch           ...       62
Average number of grid points per atom       ...     1184
UseSFitting                                  ... on

GRIDX 2
-------
General Integration Accuracy     IntAcc      ... 4.020
Radial Grid Type                 RadialGrid  ... OptM3 with GC (2021)
Angular Grid (max. ang.)         AngularGrid ... 2 (Lebedev-110)
Angular grid pruning method      GridPruning ... 4 (adaptive)
Weight generation scheme         WeightScheme... Becke
Basis function cutoff            BFCut       ... 1.0000e-10
Integration weight cutoff        WCut        ... 1.0000e-14
Angular grids for H and He will be reduced by one unit
Partially contracted basis set               ... on
Rotationally invariant grid construction     ... off

Total number of grid points                  ...    39281
Total number of batches                      ...      620
Average number of points per batch           ...       63
Average number of grid points per atom       ...     3571
UseSFitting                                  ... on

GRIDX 3
-------
General Integration Accuracy     IntAcc      ... 4.338
Radial Grid Type                 RadialGrid  ... OptM3 with GC (2021)
Angular Grid (max. ang.)         AngularGrid ... 3 (Lebedev-194)
Angular grid pruning method      GridPruning ... 4 (adaptive)
Weight generation scheme         WeightScheme... Becke
Basis function cutoff            BFCut       ... 1.0000e-10
Integration weight cutoff        WCut        ... 1.0000e-14
Angular grids for H and He will be reduced by one unit
Partially contracted basis set               ... on
Rotationally invariant grid construction     ... off

Total number of grid points                  ...    72247
Total number of batches                      ...     1134
Average number of points per batch           ...       63
Average number of grid points per atom       ...     6568
UseSFitting                                  ... on

Time for X-Grid setup             =    3.559 sec



 ... the calculation is a CASSCF calculation -I'm leaving here GOOD LUCK!!!



           ************************************************************
           *        Program running with 2 parallel MPI-processes     *
           *              working on a common directory               *
           ************************************************************
-------------------------------------------------------------------------------
                              ORCA-CASSCF
-------------------------------------------------------------------------------

Setting up the integral package       ... done
Setting up the integral package (RI)  ... done
Building the CAS space                ... done (5 configurations for Mult=5)
Building the CAS space                ... done (35 configurations for Mult=3)

SYSTEM-SPECIFIC SETTINGS:
Number of active electrons          ...    6
Number of active orbitals           ...    5
Total number of electrons           ...  214
Total number of orbitals            ...  445
Total number aux. functions         ... 1692

Determined orbital ranges:
   Internal       0 -  103 ( 104 orbitals)
   Active       104 -  108 (   5 orbitals)
   External     109 -  444 ( 336 orbitals)
Number of rotation parameters      ...  37144

CI-STEP:
CI strategy                         ... General CI
Number of multiplicity blocks       ...    2
BLOCK  1 WEIGHT=   0.5000
  Multiplicity                      ...    5
  #(Configurations)                 ...    5
  #(CSFs)                           ...    5
  #(Roots)                          ...    5
    ROOT=0 WEIGHT=    0.100000
    ROOT=1 WEIGHT=    0.100000
    ROOT=2 WEIGHT=    0.100000
    ROOT=3 WEIGHT=    0.100000
    ROOT=4 WEIGHT=    0.100000

BLOCK  2 WEIGHT=   0.5000
  Multiplicity                      ...    3
  #(Configurations)                 ...   35
  #(CSFs)                           ...   45
  #(Roots)                          ...   45
    ROOT=0 WEIGHT=    0.011111
    ROOT=1 WEIGHT=    0.011111
    ROOT=2 WEIGHT=    0.011111
    ROOT=3 WEIGHT=    0.011111
    ROOT=4 WEIGHT=    0.011111
    ROOT=5 WEIGHT=    0.011111
    ROOT=6 WEIGHT=    0.011111
    ROOT=7 WEIGHT=    0.011111
    ROOT=8 WEIGHT=    0.011111
    ROOT=9 WEIGHT=    0.011111
    ROOT=10 WEIGHT=    0.011111
    ROOT=11 WEIGHT=    0.011111
    ROOT=12 WEIGHT=    0.011111
    ROOT=13 WEIGHT=    0.011111
    ROOT=14 WEIGHT=    0.011111
    ROOT=15 WEIGHT=    0.011111
    ROOT=16 WEIGHT=    0.011111
    ROOT=17 WEIGHT=    0.011111
    ROOT=18 WEIGHT=    0.011111
    ROOT=19 WEIGHT=    0.011111
    ROOT=20 WEIGHT=    0.011111
    ROOT=21 WEIGHT=    0.011111
    ROOT=22 WEIGHT=    0.011111
    ROOT=23 WEIGHT=    0.011111
    ROOT=24 WEIGHT=    0.011111
    ROOT=25 WEIGHT=    0.011111
    ROOT=26 WEIGHT=    0.011111
    ROOT=27 WEIGHT=    0.011111
    ROOT=28 WEIGHT=    0.011111
    ROOT=29 WEIGHT=    0.011111
    ROOT=30 WEIGHT=    0.011111
    ROOT=31 WEIGHT=    0.011111
    ROOT=32 WEIGHT=    0.011111
    ROOT=33 WEIGHT=    0.011111
    ROOT=34 WEIGHT=    0.011111
    ROOT=35 WEIGHT=    0.011111
    ROOT=36 WEIGHT=    0.011111
    ROOT=37 WEIGHT=    0.011111
    ROOT=38 WEIGHT=    0.011111
    ROOT=39 WEIGHT=    0.011111
    ROOT=40 WEIGHT=    0.011111
    ROOT=41 WEIGHT=    0.011111
    ROOT=42 WEIGHT=    0.011111
    ROOT=43 WEIGHT=    0.011111
    ROOT=44 WEIGHT=    0.011111

  PrintLevel                        ...    1
  N(GuessMat)                       ...       512
  MaxDim(CI)                        ...        10
  MaxIter(CI)                       ...        64
  Energy Tolerance CI               ...  1.00e-08
  Residual Tolerance CI             ...  1.00e-08
  Shift(CI)                         ...  1.00e-04

INTEGRAL-TRANSFORMATION-STEP:
  Algorithm                         ... RI-MO

ORBITAL-IMPROVEMENT-STEP:
  Algorithm                         ... SuperCI(PT)
  Default Parametrization           ... CAYLEY
  Act-Act rotations                 ... depends on algorithm used

  Note: SuperCI(PT) will ignore FreezeIE, FreezeAct and FreezeGrad. In general Default settings are encouraged.
        In conjunction with ShiftUp, ShiftDn or GradScaling the performance of SuperCI(PT) is less optimal.  

  MaxRot                            ... 2.00e-01 
  Max. no of vectors (DIIS)         ... 15
  DThresh (cut-off) metric          ... 1.00e-06
  Switch step at gradient           ...  3.00e-02 
  Switch step at iteration          ...        50   
  Switch step to                    ... SuperCI(PT)    

SCF-SETTINGS:
  Incremental                       ... off
  RIJCOSX approximation             ... on
  UseFinalGrid                      ... on
  RI-JK approximation               ... off
  AO integral handling              ... DIRECT
  Integral Neglect Thresh           ...  1.00e-10
  Primitive cutoff TCut             ...  1.00e-11
  Energy convergence tolerance      ...  1.00e-07
  Orbital gradient convergence      ...  1.00e-03
  Max. number of iterations         ...        75  


FINAL ORBITALS:
  Active   Orbitals                 ... natural 
  Internal Orbitals                 ... canonical 
  External Orbitals                 ... canonical 

------------------
CAS-SCF ITERATIONS
------------------


MACRO-ITERATION   1: 
   --- Inactive Energy E0 = -2384.77736275 Eh
CI-ITERATION   0: 
 -2390.960719113   0.000000000000 (    0.00)
 -2390.912812906   0.000000000000
 -2390.715443463   0.000000000000
 -2390.713481838   0.000000000000
 -2390.710006457   0.000000000000
   CI-PROBLEM SOLVED
   DENSITIES MADE
CI-ITERATION   0: 
 -2390.949799160   0.000000000000 (    0.00)
 -2390.933447527   0.000000000000
 -2390.895579290   0.000000000000
 -2390.894776230   0.000000000000
 -2390.892316641   0.000000000000
 -2390.891601567   0.000000000000
 -2390.890669581   0.000000000000
 -2390.881716757   0.000000000000
 -2390.876558611   0.000000000000
 -2390.864089574   0.000000000000
 -2390.851235842   0.000000000000
 -2390.850153738   0.000000000000
 -2390.849135928   0.000000000000
 -2390.848252831   0.000000000000
 -2390.848143362   0.000000000000
 -2390.833499559   0.000000000000
 -2390.826996704   0.000000000000
 -2390.818364299   0.000000000000
 -2390.812137491   0.000000000000
 -2390.808749113   0.000000000000
 -2390.806404956   0.000000000000
 -2390.777767537   0.000000000000
 -2390.766984639   0.000000000000
 -2390.763231089   0.000000000000
 -2390.704760022   0.000000000000
 -2390.698165367   0.000000000000
 -2390.692554109   0.000000000000
 -2390.691524995   0.000000000000
 -2390.688137967   0.000000000000
 -2390.682248185   0.000000000000
 -2390.663601022   0.000000000000
 -2390.660178322   0.000000000000
 -2390.659095694   0.000000000000
 -2390.653225656   0.000000000000
 -2390.651562318   0.000000000000
 -2390.594081236   0.000000000000
 -2390.533793672   0.000000000000
 -2390.527577408   0.000000000000
 -2390.515321056   0.000000000000
 -2390.363814029   0.000000000000
 -2390.358770339   0.000000000000
 -2390.343606383   0.000000000000
 -2390.122876474   0.000000000000
 -2390.107417187   0.000000000000
 -2390.095899463   0.000000000000
   CI-PROBLEM SOLVED
   DENSITIES MADE

                 <<<<<<<<<<<<<<<<<<INITIAL CI STATE CHECK>>>>>>>>>>>>>>>>>>

BLOCK  1 MULT= 5 NROOTS= 5 
ROOT   0:  E=   -2390.9607191132 Eh
      0.87327 [     4]: 21111
      0.12673 [     0]: 11112
ROOT   1:  E=   -2390.9128129058 Eh  1.304 eV  10514.2 cm**-1
      0.99972 [     3]: 12111
ROOT   2:  E=   -2390.7154434634 Eh  6.674 eV  53831.8 cm**-1
      0.99916 [     2]: 11211
ROOT   3:  E=   -2390.7134818380 Eh  6.728 eV  54262.3 cm**-1
      0.87288 [     0]: 11112
      0.12667 [     4]: 21111
ROOT   4:  E=   -2390.7100064567 Eh  6.822 eV  55025.1 cm**-1
      0.99981 [     1]: 11121

BLOCK  2 MULT= 3 NROOTS=45 
ROOT   0:  E=   -2390.9497991598 Eh
      0.80882 [    34]: 22110
      0.10210 [    18]: 12111
      0.08785 [     3]: 02112
ROOT   1:  E=   -2390.9334475266 Eh  0.445 eV   3588.8 cm**-1
      0.87465 [    28]: 21111
      0.12466 [    10]: 11112
ROOT   2:  E=   -2390.8955792895 Eh  1.475 eV  11899.9 cm**-1
      0.88846 [    28]: 21111
      0.08475 [    10]: 11112
      0.02123 [    32]: 22011
      0.00328 [    24]: 20211
ROOT   3:  E=   -2390.8947762305 Eh  1.497 eV  12076.1 cm**-1
      0.59891 [    29]: 21120
      0.23867 [    27]: 21102
      0.15732 [    11]: 11121
      0.00494 [     0]: 01122
ROOT   4:  E=   -2390.8923166409 Eh  1.564 eV  12616.0 cm**-1
      0.44339 [    26]: 21021
      0.39922 [    30]: 21201
      0.06099 [     9]: 11022
      0.04367 [    33]: 22101
      0.04333 [    12]: 11202
      0.00543 [    17]: 12102
ROOT   5:  E=   -2390.8916015674 Eh  1.584 eV  12772.9 cm**-1
      0.56968 [    31]: 21210
      0.28144 [    25]: 21012
      0.14204 [    13]: 11211
      0.00373 [     1]: 01212
ROOT   6:  E=   -2390.8906695807 Eh  1.609 eV  12977.4 cm**-1
      0.85251 [    28]: 21111
      0.10195 [    10]: 11112
      0.03828 [    32]: 22011
      0.00406 [    15]: 12012
ROOT   7:  E=   -2390.8817167575 Eh  1.853 eV  14942.4 cm**-1
      0.73544 [    33]: 22101
      0.08644 [    26]: 21021
      0.08301 [    17]: 12102
      0.06551 [    19]: 12120
      0.01527 [     4]: 02121
      0.01020 [     9]: 11022
ROOT   8:  E=   -2390.8765586108 Eh  1.993 eV  16074.4 cm**-1
      0.73988 [    32]: 22011
      0.09820 [    21]: 12210
      0.06506 [    15]: 12012
      0.05568 [    28]: 21111
      0.02149 [     5]: 02211
      0.01342 [    10]: 11112
      0.00511 [    24]: 20211
ROOT   9:  E=   -2390.8640895737 Eh  2.332 eV  18811.1 cm**-1
      0.89254 [    18]: 12111
      0.10383 [    34]: 22110
ROOT  10:  E=   -2390.8512358424 Eh  2.682 eV  21632.1 cm**-1
      0.66384 [    20]: 12201
      0.30976 [    16]: 12021
      0.01980 [    27]: 21102
      0.00462 [    29]: 21120
ROOT  11:  E=   -2390.8501537382 Eh  2.711 eV  21869.6 cm**-1
      0.62681 [    25]: 21012
      0.21377 [    31]: 21210
      0.07625 [    18]: 12111
      0.04233 [    22]: 20112
      0.03618 [    13]: 11211
      0.00265 [    27]: 21102
ROOT  12:  E=   -2390.8491359279 Eh  2.739 eV  22093.0 cm**-1
      0.47058 [    30]: 21201
      0.32895 [    26]: 21021
      0.06140 [    12]: 11202
      0.04616 [     9]: 11022
      0.03212 [    23]: 20121
      0.01950 [    33]: 22101
      0.01931 [    19]: 12120
      0.00833 [     6]: 10122
      0.00820 [    17]: 12102
      0.00385 [     4]: 02121
ROOT  13:  E=   -2390.8482528311 Eh  2.763 eV  22286.8 cm**-1
      0.83443 [    18]: 12111
      0.06409 [    27]: 21102
      0.04885 [    25]: 21012
      0.01838 [    31]: 21210
      0.01713 [    29]: 21120
      0.00414 [    13]: 11211
      0.00401 [    22]: 20112
      0.00361 [    20]: 12201
      0.00312 [    11]: 11121
ROOT  14:  E=   -2390.8481433624 Eh  2.766 eV  22310.9 cm**-1
      0.67290 [    27]: 21102
      0.18147 [    29]: 21120
      0.09158 [    18]: 12111
      0.03264 [    11]: 11121
      0.01453 [    20]: 12201
      0.00594 [    16]: 12021
ROOT  15:  E=   -2390.8334995586 Eh  3.165 eV  25524.8 cm**-1
      0.69134 [    21]: 12210
      0.13931 [    32]: 22011
      0.13506 [     5]: 02211
      0.01605 [    24]: 20211
      0.01292 [    15]: 12012
      0.00268 [     7]: 10212
ROOT  16:  E=   -2390.8269967037 Eh  3.342 eV  26952.0 cm**-1
      0.67981 [    19]: 12120
      0.13700 [     4]: 02121
      0.11868 [    33]: 22101
      0.03292 [    23]: 20121
      0.01631 [    17]: 12102
      0.00639 [     6]: 10122
      0.00331 [    30]: 21201
      0.00282 [    14]: 11220
ROOT  17:  E=   -2390.8183642992 Eh  3.577 eV  28846.6 cm**-1
      0.94050 [    22]: 20112
      0.03577 [    25]: 21012
      0.01103 [    18]: 12111
      0.00704 [    31]: 21210
      0.00495 [     3]: 02112
ROOT  18:  E=   -2390.8121374905 Eh  3.746 eV  30213.2 cm**-1
      0.72316 [    23]: 20121
      0.18632 [     6]: 10122
      0.02385 [    19]: 12120
      0.01984 [    26]: 21021
      0.01673 [    30]: 21201
      0.01230 [    33]: 22101
      0.00870 [    17]: 12102
      0.00356 [    12]: 11202
      0.00339 [     4]: 02121
ROOT  19:  E=   -2390.8087491130 Eh  3.838 eV  30956.9 cm**-1
      0.75882 [    24]: 20211
      0.19423 [     7]: 10212
      0.01663 [    15]: 12012
      0.01312 [    21]: 12210
      0.01107 [    32]: 22011
      0.00268 [    28]: 21111
ROOT  20:  E=   -2390.8064049562 Eh  3.902 eV  31471.4 cm**-1
      0.67773 [    16]: 12021
      0.31596 [    20]: 12201
      0.00571 [    11]: 11121
ROOT  21:  E=   -2390.7777675367 Eh  4.681 eV  37756.6 cm**-1
      0.72242 [    18]: 12111
      0.21119 [     3]: 02112
      0.04639 [    34]: 22110
      0.01055 [    22]: 20112
      0.00480 [    31]: 21210
      0.00289 [    25]: 21012
ROOT  22:  E=   -2390.7669846391 Eh  4.975 eV  40123.1 cm**-1
      0.85714 [    17]: 12102
      0.06898 [    33]: 22101
      0.03721 [    19]: 12120
      0.00982 [    12]: 11202
      0.00745 [    23]: 20121
      0.00652 [     4]: 02121
      0.00556 [    15]: 12012
      0.00315 [    30]: 21201
ROOT  23:  E=   -2390.7632310894 Eh  5.077 eV  40947.0 cm**-1
      0.88070 [    15]: 12012
      0.04862 [    32]: 22011
      0.02958 [    21]: 12210
      0.01488 [    24]: 20211
      0.01235 [    10]: 11112
      0.00539 [    17]: 12102
      0.00478 [     5]: 02211
ROOT  24:  E=   -2390.7047600220 Eh  6.668 eV  53779.9 cm**-1
      0.91284 [    10]: 11112
      0.08692 [    28]: 21111
ROOT  25:  E=   -2390.6981653666 Eh  6.847 eV  55227.2 cm**-1
      0.93441 [    13]: 11211
      0.05052 [     1]: 01212
      0.01306 [    31]: 21210
ROOT  26:  E=   -2390.6925541090 Eh  7.000 eV  56458.8 cm**-1
      0.86456 [    11]: 11121
      0.10366 [     0]: 01122
      0.03072 [    29]: 21120
ROOT  27:  E=   -2390.6915249951 Eh  7.028 eV  56684.6 cm**-1
      0.81434 [    13]: 11211
      0.14401 [     1]: 01212
      0.03991 [    31]: 21210
ROOT  28:  E=   -2390.6881379666 Eh  7.120 eV  57428.0 cm**-1
      0.86820 [    10]: 11112
      0.12171 [    28]: 21111
      0.00581 [    15]: 12012
      0.00278 [     7]: 10212
ROOT  29:  E=   -2390.6822481851 Eh  7.280 eV  58720.7 cm**-1
      0.84403 [    11]: 11121
      0.11415 [     0]: 01122
      0.03735 [    29]: 21120
ROOT  30:  E=   -2390.6636010224 Eh  7.788 eV  62813.2 cm**-1
      0.63877 [    12]: 11202
      0.19996 [     9]: 11022
      0.07402 [    30]: 21201
      0.03430 [    14]: 11220
      0.02990 [    26]: 21021
      0.01074 [    17]: 12102
      0.01003 [     2]: 01221
ROOT  31:  E=   -2390.6601783223 Eh  7.881 eV  63564.4 cm**-1
      0.87524 [    10]: 11112
      0.11369 [    28]: 21111
      0.00825 [    15]: 12012
ROOT  32:  E=   -2390.6590956941 Eh  7.910 eV  63802.0 cm**-1
      0.72141 [    13]: 11211
      0.19581 [     1]: 01212
      0.07991 [    31]: 21210
ROOT  33:  E=   -2390.6532256558 Eh  8.070 eV  65090.4 cm**-1
      0.74780 [    11]: 11121
      0.17351 [     0]: 01122
      0.07601 [    29]: 21120
ROOT  34:  E=   -2390.6515623178 Eh  8.115 eV  65455.4 cm**-1
      0.42090 [    14]: 11220
      0.37758 [     9]: 11022
      0.12176 [     2]: 01221
      0.04320 [    26]: 21021
      0.02956 [    12]: 11202
      0.00275 [    19]: 12120
ROOT  35:  E=   -2390.5940812359 Eh  9.680 eV  78071.1 cm**-1
      0.31782 [    14]: 11220
      0.30312 [     9]: 11022
      0.20994 [    12]: 11202
      0.08791 [     2]: 01221
      0.04624 [    26]: 21021
      0.03048 [    30]: 21201
ROOT  36:  E=   -2390.5337936725 Eh 11.320 eV  91302.7 cm**-1
      0.83640 [     5]: 02211
      0.16325 [    21]: 12210
ROOT  37:  E=   -2390.5275774084 Eh 11.489 eV  92667.0 cm**-1
      0.69332 [     3]: 02112
      0.26448 [    18]: 12111
      0.04039 [    34]: 22110
ROOT  38:  E=   -2390.5153210564 Eh 11.823 eV  95356.9 cm**-1
      0.83311 [     4]: 02121
      0.16625 [    19]: 12120
ROOT  39:  E=   -2390.3638140286 Eh 15.945 eV 128608.9 cm**-1
      0.79427 [     7]: 10212
      0.19965 [    24]: 20211
      0.00257 [    10]: 11112
ROOT  40:  E=   -2390.3587703394 Eh 16.083 eV 129715.8 cm**-1
      0.79541 [     6]: 10122
      0.20164 [    23]: 20121
ROOT  41:  E=   -2390.3436063833 Eh 16.495 eV 133043.9 cm**-1
      0.99902 [     8]: 10221
ROOT  42:  E=   -2390.1228764745 Eh 22.502 eV 181488.6 cm**-1
      0.60396 [     1]: 01212
      0.34172 [    13]: 11211
      0.05253 [    31]: 21210
ROOT  43:  E=   -2390.1074171871 Eh 22.922 eV 184881.5 cm**-1
      0.60347 [     0]: 01122
      0.34336 [    11]: 11121
      0.05290 [    29]: 21120
ROOT  44:  E=   -2390.0958994630 Eh 23.236 eV 187409.3 cm**-1
      0.77862 [     2]: 01221
      0.22124 [    14]: 11220

                 <<<<<<<<<<<<<<<<<<INITIAL CI STATE CHECK>>>>>>>>>>>>>>>>>>

   E(CAS)= -2390.750577744 Eh DE=    0.000000e+00
   --- Energy gap subspaces: Ext-Act = 0.151   Act-Int = 0.040
   N(occ)=  1.20000 1.20000 1.20000 1.20000 1.20000
   ||g|| =     2.578172e+00 Max(G)=    4.651072e-01 Rot=110,103
   --- Orbital Update [SuperCI(PT)]
   --- Canonicalize Internal Space
   --- Canonicalize External Space
   --- SX_PT (Skipped TA=0 IT=0): ||X|| =      0.857314863 Max(X)(110,106) =      0.292584148 
   --- SFit(Active Orbitals)

MACRO-ITERATION   2: 
   --- Inactive Energy E0 = -2382.77563955 Eh
CI-ITERATION   0: 
 -2390.892641429   0.000000000000 (    0.00)
 -2390.825610259   0.000000000000
 -2390.810041451   0.000000000000
 -2390.523593222   0.000000000000
 -2390.374967545   0.000000000000
   CI-PROBLEM SOLVED
   DENSITIES MADE
CI-ITERATION   0: 
 -2391.044055118   0.000000000000 (    0.00)
 -2391.040453102   0.000000000000
 -2391.018193738   0.000000000000
 -2391.008772056   0.000000000000
 -2391.006336441   0.000000000000
 -2390.966819820   0.000000000000
 -2390.943563661   0.000000000000
 -2390.887454989   0.000000000000
 -2390.883590160   0.000000000000
 -2390.880799932   0.000000000000
 -2390.873404274   0.000000000000
 -2390.862191582   0.000000000000
 -2390.856316091   0.000000000000
 -2390.827138227   0.000000000000
 -2390.809622156   0.000000000000
 -2390.806523764   0.000000000000
 -2390.794921990   0.000000000000
 -2390.793536081   0.000000000000
 -2390.784701844   0.000000000000
 -2390.782085475   0.000000000000
 -2390.766515270   0.000000000000
 -2390.702959069   0.000000000000
 -2390.680767370   0.000000000000
 -2390.655673926   0.000000000000
 -2390.574408078   0.000000000000
 -2390.559772086   0.000000000000
 -2390.513903276   0.000000000000
 -2390.484492541   0.000000000000
 -2390.475272568   0.000000000000
 -2390.468353022   0.000000000000
 -2390.444019942   0.000000000000
 -2390.438738653   0.000000000000
 -2390.423132440   0.000000000000
 -2390.356678099   0.000000000000
 -2390.338671347   0.000000000000
 -2390.332582846   0.000000000000
 -2390.322995730   0.000000000000
 -2390.319153592   0.000000000000
 -2390.312946639   0.000000000000
 -2390.280428252   0.000000000000
 -2390.171347041   0.000000000000
 -2390.142444939   0.000000000000
 -2389.848190349   0.000000000000
 -2389.820206399   0.000000000000
 -2389.650384516   0.000000000000
   CI-PROBLEM SOLVED
   DENSITIES MADE
   E(CAS)= -2390.642180040 Eh DE=    1.083977e-01
   --- Energy gap subspaces: Ext-Act = -0.075   Act-Int = -0.308
   N(occ)=  1.20000 1.20000 1.20000 1.20000 1.20000
   ||g|| =     3.205594e+00 Max(G)=    6.284031e-01 Rot=111,106
   --- Orbital Update [SuperCI(PT)]
   --- Canonicalize Internal Space
   --- Canonicalize External Space
   --- SX_PT (Skipped TA=0 IT=0): ||X|| =      9.257780250 Max(X)(110,105) =     -8.452378459 
   --- SFit(Active Orbitals)

MACRO-ITERATION   3: 
   --- Inactive Energy E0 = -2383.87125576 Eh
CI-ITERATION   0: 
 -2391.096578832   0.000000000000 (    0.00)
 -2391.070160069   0.000000000000
 -2391.061172891   0.000000000000
 -2390.856737024   0.000000000000
 -2390.802688347   0.000000000000
   CI-PROBLEM SOLVED
   DENSITIES MADE
CI-ITERATION   0: 
 -2391.109577015   0.000000000000 (    0.00)
 -2391.107222040   0.000000000000
 -2391.105071060   0.000000000000
 -2391.103340998   0.000000000000
 -2391.087810622   0.000000000000
 -2391.081772878   0.000000000000
 -2391.081151872   0.000000000000
 -2391.075079494   0.000000000000
 -2391.067516647   0.000000000000
 -2391.063290936   0.000000000000
 -2391.059885004   0.000000000000
 -2391.058321562   0.000000000000
 -2391.053436053   0.000000000000
 -2391.052185348   0.000000000000
 -2391.049647709   0.000000000000
 -2391.049305424   0.000000000000
 -2391.036088778   0.000000000000
 -2391.028132385   0.000000000000
 -2391.026185818   0.000000000000
 -2391.011825432   0.000000000000
 -2391.002714460   0.000000000000
 -2390.981034663   0.000000000000
 -2390.980577070   0.000000000000
 -2390.941311933   0.000000000000
 -2390.846497443   0.000000000000
 -2390.844083854   0.000000000000
 -2390.832748236   0.000000000000
 -2390.810842068   0.000000000000
 -2390.804132779   0.000000000000
 -2390.803111082   0.000000000000
 -2390.796562280   0.000000000000
 -2390.790151267   0.000000000000
 -2390.784989038   0.000000000000
 -2390.764776484   0.000000000000
 -2390.759047891   0.000000000000
 -2390.747925837   0.000000000000
 -2390.745440608   0.000000000000
 -2390.723055719   0.000000000000
 -2390.706745271   0.000000000000
 -2390.704871030   0.000000000000
 -2390.667340515   0.000000000000
 -2390.644274413   0.000000000000
 -2390.304330383   0.000000000000
 -2390.274896804   0.000000000000
 -2390.194052454   0.000000000000
   CI-PROBLEM SOLVED
   DENSITIES MADE
   E(CAS)= -2390.930537724 Eh DE=   -2.883577e-01
   --- Energy gap subspaces: Ext-Act = 0.061   Act-Int = -0.171
   N(occ)=  1.20000 1.20000 1.20000 1.20000 1.20000
   ||g|| =     1.721170e+00 Max(G)=    3.759243e-01 Rot=111,106
   --- Orbital Update [SuperCI(PT)]
   --- Canonicalize Internal Space
   --- Canonicalize External Space
   --- SX_PT (Skipped TA=0 IT=0): ||X|| =      1.331897021 Max(X)(109,103) =      0.815758186 
   --- SFit(Active Orbitals)

MACRO-ITERATION   4: 
   --- Inactive Energy E0 = -2384.67755712 Eh
CI-ITERATION   0: 
 -2391.209596112   0.000000000000 (    0.08)
 -2391.197172115   0.000000000000
 -2391.150596720   0.000000000000
 -2391.149733218   0.000000000000
 -2391.112883546   0.000000000000
   CI-PROBLEM SOLVED
   DENSITIES MADE
CI-ITERATION   0: 
 -2391.219799680   0.000000000000 (    0.00)
 -2391.189835845   0.000000000000
 -2391.183021306   0.000000000000
 -2391.180742046   0.000000000000
 -2391.180542845   0.000000000000
 -2391.175016522   0.000000000000
 -2391.174783653   0.000000000000
 -2391.171455326   0.000000000000
 -2391.154151347   0.000000000000
 -2391.153355519   0.000000000000
 -2391.147486366   0.000000000000
 -2391.145054986   0.000000000000
 -2391.143450277   0.000000000000
 -2391.137827989   0.000000000000
 -2391.137292868   0.000000000000
 -2391.132305591   0.000000000000
 -2391.131865553   0.000000000000
 -2391.128044868   0.000000000000
 -2391.114994309   0.000000000000
 -2391.113171181   0.000000000000
 -2391.112279227   0.000000000000
 -2391.107539757   0.000000000000
 -2391.105028408   0.000000000000
 -2391.101763234   0.000000000000
 -2391.093391736   0.000000000000
 -2391.091499202   0.000000000000
 -2391.074583217   0.000000000000
 -2391.072744407   0.000000000000
 -2391.057644048   0.000000000000
 -2391.057173990   0.000000000000
 -2391.037912521   0.000000000000
 -2391.034237070   0.000000000000
 -2391.032020770   0.000000000000
 -2391.025359597   0.000000000000
 -2391.016410048   0.000000000000
 -2391.010091341   0.000000000000
 -2390.898794018   0.000000000000
 -2390.885204933   0.000000000000
 -2390.878898591   0.000000000000
 -2390.871844126   0.000000000000
 -2390.858639366   0.000000000000
 -2390.822904273   0.000000000000
 -2390.768398038   0.000000000000
 -2390.753631539   0.000000000000
 -2390.739873782   0.000000000000
   CI-PROBLEM SOLVED
   DENSITIES MADE
   E(CAS)= -2391.111132230 Eh DE=   -1.805945e-01
   --- Energy gap subspaces: Ext-Act = 0.253   Act-Int = 0.045
   N(occ)=  1.20000 1.20000 1.20000 1.20000 1.20000
   ||g|| =     5.870220e-01 Max(G)=   -9.837907e-02 Rot=110,53
   --- Orbital Update [SuperCI(PT)]
   --- Canonicalize Internal Space
   --- Canonicalize External Space
   --- SX_PT (Skipped TA=0 IT=0): ||X|| =      0.258474841 Max(X)(110,106) =      0.066852616 
   --- SFit(Active Orbitals)

MACRO-ITERATION   5: 
   --- Inactive Energy E0 = -2384.25001763 Eh
CI-ITERATION   0: 
 -2391.243996842   0.000000000000 (    0.19)
 -2391.222072232   0.000000000000
 -2391.209015323   0.000000000000
 -2391.208207641   0.000000000000
 -2391.148092819   0.000000000000
   CI-PROBLEM SOLVED
   DENSITIES MADE
CI-ITERATION   0: 
 -2391.252156760   0.000000000000 (    0.00)
 -2391.233699944   0.000000000000
 -2391.232770771   0.000000000000
 -2391.227603660   0.000000000000
 -2391.225844003   0.000000000000
 -2391.221879618   0.000000000000
 -2391.219154687   0.000000000000
 -2391.218820381   0.000000000000
 -2391.194936304   0.000000000000
 -2391.192490763   0.000000000000
 -2391.188261182   0.000000000000
 -2391.187406709   0.000000000000
 -2391.183402995   0.000000000000
 -2391.182125316   0.000000000000
 -2391.169637602   0.000000000000
 -2391.166728755   0.000000000000
 -2391.165551215   0.000000000000
 -2391.165157594   0.000000000000
 -2391.152344150   0.000000000000
 -2391.151423274   0.000000000000
 -2391.144584197   0.000000000000
 -2391.140858732   0.000000000000
 -2391.129659863   0.000000000000
 -2391.113841706   0.000000000000
 -2391.112161822   0.000000000000
 -2391.109484489   0.000000000000
 -2391.108044620   0.000000000000
 -2391.093610456   0.000000000000
 -2391.090717249   0.000000000000
 -2391.084091926   0.000000000000
 -2391.083337015   0.000000000000
 -2391.076266793   0.000000000000
 -2391.073341573   0.000000000000
 -2391.039799296   0.000000000000
 -2391.035659582   0.000000000000
 -2391.030795037   0.000000000000
 -2390.953463709   0.000000000000
 -2390.939507792   0.000000000000
 -2390.933146915   0.000000000000
 -2390.836534785   0.000000000000
 -2390.822914988   0.000000000000
 -2390.809571525   0.000000000000
 -2390.804231983   0.000000000000
 -2390.791123345   0.000000000000
 -2390.760271977   0.000000000000
   CI-PROBLEM SOLVED
   DENSITIES MADE
   E(CAS)= -2391.148120897 Eh DE=   -3.698867e-02
   --- Energy gap subspaces: Ext-Act = 0.261   Act-Int = 0.035
   N(occ)=  1.20000 1.20000 1.20000 1.20000 1.20000
   ||g|| =     3.116053e-01 Max(G)=    7.807029e-02 Rot=111,106
   --- Orbital Update [SuperCI(PT)]
   --- Canonicalize Internal Space
   --- Canonicalize External Space
   --- SX_PT (Skipped TA=0 IT=0): ||X|| =      0.179364752 Max(X)(110,106) =      0.082306929 
   --- SFit(Active Orbitals)

MACRO-ITERATION   6: 
   --- Inactive Energy E0 = -2384.06056068 Eh
CI-ITERATION   0: 
 -2391.268851662   0.000000000000 (    0.00)
 -2391.255902483   0.000000000000
 -2391.232227261   0.000000000000
 -2391.230550340   0.000000000000
 -2391.178322747   0.000000000000
   CI-PROBLEM SOLVED
   DENSITIES MADE
CI-ITERATION   0: 
 -2391.279839387   0.000000000000 (    0.00)
 -2391.257526025   0.000000000000
 -2391.256060431   0.000000000000
 -2391.255563889   0.000000000000
 -2391.252655647   0.000000000000
 -2391.249742219   0.000000000000
 -2391.246271418   0.000000000000
 -2391.239144206   0.000000000000
 -2391.217857187   0.000000000000
 -2391.214113227   0.000000000000
 -2391.206254255   0.000000000000
 -2391.205701859   0.000000000000
 -2391.203267034   0.000000000000
 -2391.203250348   0.000000000000
 -2391.191815495   0.000000000000
 -2391.187413948   0.000000000000
 -2391.187011889   0.000000000000
 -2391.185989825   0.000000000000
 -2391.177970668   0.000000000000
 -2391.176424707   0.000000000000
 -2391.160728576   0.000000000000
 -2391.155888178   0.000000000000
 -2391.154270016   0.000000000000
 -2391.131667959   0.000000000000
 -2391.130649199   0.000000000000
 -2391.129627497   0.000000000000
 -2391.127718920   0.000000000000
 -2391.119734226   0.000000000000
 -2391.109677831   0.000000000000
 -2391.109472588   0.000000000000
 -2391.108302830   0.000000000000
 -2391.102835765   0.000000000000
 -2391.097398843   0.000000000000
 -2391.070783169   0.000000000000
 -2391.065977804   0.000000000000
 -2391.055320747   0.000000000000
 -2390.942167485   0.000000000000
 -2390.929318635   0.000000000000
 -2390.925900278   0.000000000000
 -2390.805806253   0.000000000000
 -2390.805010817   0.000000000000
 -2390.802586690   0.000000000000
 -2390.793549604   0.000000000000
 -2390.784204017   0.000000000000
 -2390.783563172   0.000000000000
   CI-PROBLEM SOLVED
   DENSITIES MADE
   E(CAS)= -2391.169874724 Eh DE=   -2.175383e-02
   --- Energy gap subspaces: Ext-Act = 0.260   Act-Int = 0.038
   N(occ)=  1.20000 1.20000 1.20000 1.20000 1.20000
   ||g|| =     3.789104e-01 Max(G)=    4.666954e-02 Rot=110,103
   --- Orbital Update [SuperCI(PT)]
   --- Canonicalize Internal Space
   --- Canonicalize External Space
   --- SX_PT (Skipped TA=0 IT=0): ||X|| =      0.139229486 Max(X)(119,103) =     -0.043944310 
   --- SFit(Active Orbitals)

MACRO-ITERATION   7: 
   --- Inactive Energy E0 = -2383.55959370 Eh
CI-ITERATION   0: 
 -2391.289094087   0.000000000000 (    0.13)
 -2391.272851711   0.000000000000
 -2391.263299195   0.000000000000
 -2391.260910312   0.000000000000
 -2391.192108217   0.000000000000
   CI-PROBLEM SOLVED
   DENSITIES MADE
CI-ITERATION   0: 
 -2391.300385829   0.000000000000 (    0.05)
 -2391.285835745   0.000000000000
 -2391.283508380   0.000000000000
 -2391.282196610   0.000000000000
 -2391.278690960   0.000000000000
 -2391.270406018   0.000000000000
 -2391.269613421   0.000000000000
 -2391.265002337   0.000000000000
 -2391.248309981   0.000000000000
 -2391.243614997   0.000000000000
 -2391.230304714   0.000000000000
 -2391.226616155   0.000000000000
 -2391.224275121   0.000000000000
 -2391.221292034   0.000000000000
 -2391.211774413   0.000000000000
 -2391.207525960   0.000000000000
 -2391.207403810   0.000000000000
 -2391.205545780   0.000000000000
 -2391.191900403   0.000000000000
 -2391.187917821   0.000000000000
 -2391.171802245   0.000000000000
 -2391.169363668   0.000000000000
 -2391.162785491   0.000000000000
 -2391.137026716   0.000000000000
 -2391.133532984   0.000000000000
 -2391.133092179   0.000000000000
 -2391.125058171   0.000000000000
 -2391.121063033   0.000000000000
 -2391.120149138   0.000000000000
 -2391.118417048   0.000000000000
 -2391.114742125   0.000000000000
 -2391.110783052   0.000000000000
 -2391.110455627   0.000000000000
 -2391.068427093   0.000000000000
 -2391.065231095   0.000000000000
 -2391.055066938   0.000000000000
 -2390.960243991   0.000000000000
 -2390.951740521   0.000000000000
 -2390.951112052   0.000000000000
 -2390.817027905   0.000000000000
 -2390.810117062   0.000000000000
 -2390.803758649   0.000000000000
 -2390.751375938   0.000000000000
 -2390.743480525   0.000000000000
 -2390.741358133   0.000000000000
   CI-PROBLEM SOLVED
   DENSITIES MADE
   E(CAS)= -2391.186596706 Eh DE=   -1.672198e-02
   --- Energy gap subspaces: Ext-Act = 0.258   Act-Int = 0.020
   N(occ)=  1.20000 1.20000 1.20000 1.20000 1.20000
   ||g|| =     1.492252e-01 Max(G)=   -3.542346e-02 Rot=109,105
   --- Orbital Update [SuperCI(PT)]
   --- Canonicalize Internal Space
   --- Canonicalize External Space
   --- SX_PT (Skipped TA=0 IT=0): ||X|| =      0.060963324 Max(X)(128,105) =     -0.019370768 
   --- SFit(Active Orbitals)

MACRO-ITERATION   8: 
   --- Inactive Energy E0 = -2383.57648724 Eh
CI-ITERATION   0: 
 -2391.289930837   0.000000000000 (    0.00)
 -2391.277869639   0.000000000000
 -2391.261889987   0.000000000000
 -2391.259102999   0.000000000000
 -2391.195187645   0.000000000000
   CI-PROBLEM SOLVED
   DENSITIES MADE
CI-ITERATION   0: 
 -2391.303009925   0.000000000000 (    0.00)
 -2391.284970565   0.000000000000
 -2391.283811858   0.000000000000
 -2391.282236615   0.000000000000
 -2391.280321779   0.000000000000
 -2391.271549488   0.000000000000
 -2391.269965128   0.000000000000
 -2391.263748779   0.000000000000
 -2391.246115155   0.000000000000
 -2391.240924418   0.000000000000
 -2391.229151623   0.000000000000
 -2391.225897045   0.000000000000
 -2391.224433087   0.000000000000
 -2391.221023532   0.000000000000
 -2391.211332026   0.000000000000
 -2391.208574857   0.000000000000
 -2391.206711492   0.000000000000
 -2391.206127659   0.000000000000
 -2391.197129497   0.000000000000
 -2391.192394077   0.000000000000
 -2391.173519164   0.000000000000
 -2391.169378829   0.000000000000
 -2391.162968414   0.000000000000
 -2391.138013067   0.000000000000
 -2391.137692930   0.000000000000
 -2391.130169691   0.000000000000
 -2391.128462272   0.000000000000
 -2391.125711302   0.000000000000
 -2391.124980317   0.000000000000
 -2391.121878547   0.000000000000
 -2391.117768884   0.000000000000
 -2391.113966553   0.000000000000
 -2391.112817138   0.000000000000
 -2391.073798815   0.000000000000
 -2391.070847978   0.000000000000
 -2391.058240829   0.000000000000
 -2390.964983191   0.000000000000
 -2390.957137854   0.000000000000
 -2390.956328771   0.000000000000
 -2390.810888263   0.000000000000
 -2390.804067107   0.000000000000
 -2390.798083101   0.000000000000
 -2390.775158540   0.000000000000
 -2390.767431811   0.000000000000
 -2390.762920977   0.000000000000
   CI-PROBLEM SOLVED
   DENSITIES MADE
   E(CAS)= -2391.188471921 Eh DE=   -1.875215e-03
   --- Energy gap subspaces: Ext-Act = 0.254   Act-Int = 0.028
   N(occ)=  1.20000 1.20000 1.20000 1.20000 1.20000
   ||g|| =     1.085504e-01 Max(G)=   -2.737359e-02 Rot=109,105
   --- Orbital Update [SuperCI(PT)]
   --- Canonicalize Internal Space
   --- Canonicalize External Space
   --- SX_PT (Skipped TA=0 IT=0): ||X|| =      0.049989261 Max(X)(128,105) =      0.014394140 
   --- SFit(Active Orbitals)

MACRO-ITERATION   9: 
   --- Inactive Energy E0 = -2383.48946894 Eh
CI-ITERATION   0: 
 -2391.290859999   0.000000000000 (    0.00)
 -2391.282421495   0.000000000000
 -2391.263540847   0.000000000000
 -2391.260061700   0.000000000000
 -2391.195747211   0.000000000000
   CI-PROBLEM SOLVED
   DENSITIES MADE
CI-ITERATION   0: 
 -2391.306001749   0.000000000000 (    0.00)
 -2391.286828334   0.000000000000
 -2391.286133840   0.000000000000
 -2391.283259768   0.000000000000
 -2391.282911819   0.000000000000
 -2391.273470429   0.000000000000
 -2391.269970933   0.000000000000
 -2391.263174729   0.000000000000
 -2391.246487667   0.000000000000
 -2391.240324394   0.000000000000
 -2391.230424451   0.000000000000
 -2391.227145723   0.000000000000
 -2391.225117377   0.000000000000
 -2391.220787216   0.000000000000
 -2391.213168914   0.000000000000
 -2391.211097392   0.000000000000
 -2391.208237163   0.000000000000
 -2391.205987337   0.000000000000
 -2391.201137752   0.000000000000
 -2391.195466817   0.000000000000
 -2391.171712673   0.000000000000
 -2391.168179303   0.000000000000
 -2391.160926959   0.000000000000
 -2391.139721682   0.000000000000
 -2391.137647408   0.000000000000
 -2391.129534117   0.000000000000
 -2391.124697317   0.000000000000
 -2391.124433789   0.000000000000
 -2391.123009113   0.000000000000
 -2391.122415029   0.000000000000
 -2391.117033174   0.000000000000
 -2391.113335163   0.000000000000
 -2391.112302969   0.000000000000
 -2391.073572048   0.000000000000
 -2391.070663638   0.000000000000
 -2391.056745432   0.000000000000
 -2390.979194368   0.000000000000
 -2390.972368062   0.000000000000
 -2390.970638080   0.000000000000
 -2390.810219660   0.000000000000
 -2390.803504781   0.000000000000
 -2390.798039862   0.000000000000
 -2390.790982046   0.000000000000
 -2390.784495078   0.000000000000
 -2390.774582043   0.000000000000
   CI-PROBLEM SOLVED
   DENSITIES MADE
   E(CAS)= -2391.190452987 Eh DE=   -1.981066e-03
   --- Energy gap subspaces: Ext-Act = 0.246   Act-Int = 0.027
   N(occ)=  1.20000 1.20000 1.20000 1.20000 1.20000
   ||g|| =     8.773009e-02 Max(G)=   -2.752523e-02 Rot=109,105
   --- Orbital Update [SuperCI(PT)]
   --- Canonicalize Internal Space
   --- Canonicalize External Space
   --- SX_PT (Skipped TA=0 IT=0): ||X|| =      0.043437667 Max(X)(115,105) =      0.016996715 
   --- SFit(Active Orbitals)

MACRO-ITERATION  10: 
   --- Inactive Energy E0 = -2383.44748762 Eh
CI-ITERATION   0: 
 -2391.290889668   0.000000000000 (    0.00)
 -2391.285193007   0.000000000000
 -2391.263505243   0.000000000000
 -2391.259483102   0.000000000000
 -2391.196291859   0.000000000000
   CI-PROBLEM SOLVED
   DENSITIES MADE
CI-ITERATION   0: 
 -2391.307372379   0.000000000000 (    0.00)
 -2391.287295278   0.000000000000
 -2391.286776467   0.000000000000
 -2391.284098610   0.000000000000
 -2391.282734488   0.000000000000
 -2391.274331082   0.000000000000
 -2391.269261126   0.000000000000
 -2391.261624165   0.000000000000
 -2391.245537934   0.000000000000
 -2391.238616903   0.000000000000
 -2391.230575889   0.000000000000
 -2391.227399187   0.000000000000
 -2391.225114852   0.000000000000
 -2391.220052247   0.000000000000
 -2391.213943939   0.000000000000
 -2391.212551429   0.000000000000
 -2391.209865105   0.000000000000
 -2391.205199694   0.000000000000
 -2391.202516808   0.000000000000
 -2391.197209857   0.000000000000
 -2391.170520121   0.000000000000
 -2391.166660903   0.000000000000
 -2391.158775069   0.000000000000
 -2391.141370765   0.000000000000
 -2391.137255997   0.000000000000
 -2391.130346289   0.000000000000
 -2391.125402714   0.000000000000
 -2391.124884329   0.000000000000
 -2391.122709930   0.000000000000
 -2391.117107947   0.000000000000
 -2391.115413258   0.000000000000
 -2391.113409665   0.000000000000
 -2391.110082510   0.000000000000
 -2391.074463945   0.000000000000
 -2391.071639500   0.000000000000
 -2391.056619022   0.000000000000
 -2390.989881360   0.000000000000
 -2390.983230776   0.000000000000
 -2390.981044543   0.000000000000
 -2390.809259573   0.000000000000
 -2390.807416207   0.000000000000
 -2390.802179997   0.000000000000
 -2390.800851251   0.000000000000
 -2390.796682471   0.000000000000
 -2390.788772189   0.000000000000
   CI-PROBLEM SOLVED
   DENSITIES MADE
   E(CAS)= -2391.191514707 Eh DE=   -1.061720e-03
   --- Energy gap subspaces: Ext-Act = 0.240   Act-Int = 0.029
   N(occ)=  1.20000 1.20000 1.20000 1.20000 1.20000
   ||g|| =     7.677367e-02 Max(G)=   -2.553746e-02 Rot=109,105
   --- Orbital Update [SuperCI(PT)]
   --- Canonicalize Internal Space
   --- Canonicalize External Space
   --- SX_PT (Skipped TA=0 IT=0): ||X|| =      0.040550987 Max(X)(114,105) =     -0.015519714 
   --- SFit(Active Orbitals)

MACRO-ITERATION  11: 
   --- Inactive Energy E0 = -2383.40016925 Eh
CI-ITERATION   0: 
 -2391.290609608   0.000000000000 (    0.00)
 -2391.288031747   0.000000000000
 -2391.263458376   0.000000000000
 -2391.258825906   0.000000000000
 -2391.196666103   0.000000000000
   CI-PROBLEM SOLVED
   DENSITIES MADE
CI-ITERATION   0: 
 -2391.308726833   0.000000000000 (    0.00)
 -2391.287834968   0.000000000000
 -2391.286794130   0.000000000000
 -2391.284736264   0.000000000000
 -2391.282097936   0.000000000000
 -2391.274470503   0.000000000000
 -2391.268182104   0.000000000000
 -2391.259339572   0.000000000000
 -2391.244373447   0.000000000000
 -2391.236557916   0.000000000000
 -2391.231228715   0.000000000000
 -2391.228064101   0.000000000000
 -2391.224935772   0.000000000000
 -2391.218962481   0.000000000000
 -2391.215209121   0.000000000000
 -2391.213900456   0.000000000000
 -2391.212757708   0.000000000000
 -2391.204396248   0.000000000000
 -2391.202799387   0.000000000000
 -2391.198758806   0.000000000000
 -2391.168867151   0.000000000000
 -2391.165010026   0.000000000000
 -2391.156281225   0.000000000000
 -2391.143218626   0.000000000000
 -2391.136530286   0.000000000000
 -2391.131036638   0.000000000000
 -2391.125974664   0.000000000000
 -2391.125286154   0.000000000000
 -2391.120888298   0.000000000000
 -2391.117068474   0.000000000000
 -2391.113125893   0.000000000000
 -2391.107115519   0.000000000000
 -2391.104550660   0.000000000000
 -2391.075332856   0.000000000000
 -2391.072520033   0.000000000000
 -2391.056414827   0.000000000000
 -2391.003008044   0.000000000000
 -2390.996063514   0.000000000000
 -2390.993393626   0.000000000000
 -2390.826923296   0.000000000000
 -2390.820195681   0.000000000000
 -2390.809081528   0.000000000000
 -2390.806197350   0.000000000000
 -2390.801093363   0.000000000000
 -2390.795349542   0.000000000000
   CI-PROBLEM SOLVED
   DENSITIES MADE
   E(CAS)= -2391.192588660 Eh DE=   -1.073952e-03
   --- Energy gap subspaces: Ext-Act = 0.231   Act-Int = 0.032
   N(occ)=  1.20000 1.20000 1.20000 1.20000 1.20000
   ||g|| =     7.166828e-02 Max(G)=   -2.350482e-02 Rot=109,105
   --- Orbital Update [SuperCI(PT)]
   --- Canonicalize Internal Space
   --- Canonicalize External Space
   --- SX_PT (Skipped TA=0 IT=0): ||X|| =      0.037789395 Max(X)(113,105) =      0.017652147 
   --- SFit(Active Orbitals)

MACRO-ITERATION  12: 
   --- Inactive Energy E0 = -2383.31230131 Eh
CI-ITERATION   0: 
 -2391.292849193   0.000000000000 (    0.00)
 -2391.290397671   0.000000000000
 -2391.262967698   0.000000000000
 -2391.257042525   0.000000000000
 -2391.197892875   0.000000000000
   CI-PROBLEM SOLVED
   DENSITIES MADE
CI-ITERATION   0: 
 -2391.311140689   0.000000000000 (    0.02)
 -2391.287852097   0.000000000000
 -2391.286486040   0.000000000000
 -2391.284990287   0.000000000000
 -2391.280493416   0.000000000000
 -2391.273836920   0.000000000000
 -2391.266179988   0.000000000000
 -2391.254876216   0.000000000000
 -2391.241833713   0.000000000000
 -2391.233751318   0.000000000000
 -2391.231925958   0.000000000000
 -2391.229935409   0.000000000000
 -2391.224856957   0.000000000000
 -2391.219388729   0.000000000000
 -2391.218117832   0.000000000000
 -2391.216837671   0.000000000000
 -2391.216094357   0.000000000000
 -2391.202744316   0.000000000000
 -2391.201653566   0.000000000000
 -2391.200225458   0.000000000000
 -2391.166316087   0.000000000000
 -2391.163230213   0.000000000000
 -2391.153145336   0.000000000000
 -2391.146061592   0.000000000000
 -2391.135112706   0.000000000000
 -2391.133492924   0.000000000000
 -2391.127991727   0.000000000000
 -2391.127196364   0.000000000000
 -2391.118187523   0.000000000000
 -2391.115636672   0.000000000000
 -2391.108233668   0.000000000000
 -2391.091858254   0.000000000000
 -2391.083236607   0.000000000000
 -2391.077949032   0.000000000000
 -2391.075198155   0.000000000000
 -2391.056603047   0.000000000000
 -2391.025728891   0.000000000000
 -2391.018380407   0.000000000000
 -2391.014941494   0.000000000000
 -2390.865877408   0.000000000000
 -2390.858592115   0.000000000000
 -2390.841229676   0.000000000000
 -2390.806910282   0.000000000000
 -2390.797358729   0.000000000000
 -2390.790889568   0.000000000000
   CI-PROBLEM SOLVED
   DENSITIES MADE
   E(CAS)= -2391.194365879 Eh DE=   -1.777219e-03
   --- Energy gap subspaces: Ext-Act = 0.215   Act-Int = 0.036
   N(occ)=  1.20000 1.20000 1.20000 1.20000 1.20000
   ||g|| =     6.299893e-02 Max(G)=   -1.902628e-02 Rot=109,105
   --- Orbital Update [SuperCI(PT)]
   --- Canonicalize Internal Space
   --- Canonicalize External Space
   --- SX_PT (Skipped TA=0 IT=0): ||X|| =      0.032740471 Max(X)(113,105) =      0.015056474 
   --- SFit(Active Orbitals)

MACRO-ITERATION  13: 
   --- Inactive Energy E0 = -2383.25575663 Eh
CI-ITERATION   0: 
 -2391.295307826   0.000000000000 (    0.00)
 -2391.290359321   0.000000000000
 -2391.262363977   0.000000000000
 -2391.255423261   0.000000000000
 -2391.199114571   0.000000000000
   CI-PROBLEM SOLVED
   DENSITIES MADE
CI-ITERATION   0: 
 -2391.312028418   0.000000000000 (    0.00)
 -2391.286628532   0.000000000000
 -2391.285878846   0.000000000000
 -2391.283884054   0.000000000000
 -2391.278947573   0.000000000000
 -2391.272130373   0.000000000000
 -2391.264402693   0.000000000000
 -2391.251157043   0.000000000000
 -2391.239685988   0.000000000000
 -2391.235864758   0.000000000000
 -2391.231434359   0.000000000000
 -2391.228096744   0.000000000000
 -2391.225028613   0.000000000000
 -2391.223935604   0.000000000000
 -2391.220038780   0.000000000000
 -2391.217442662   0.000000000000
 -2391.215518367   0.000000000000
 -2391.201554673   0.000000000000
 -2391.200449899   0.000000000000
 -2391.200213754   0.000000000000
 -2391.164712798   0.000000000000
 -2391.162916764   0.000000000000
 -2391.152430260   0.000000000000
 -2391.147999207   0.000000000000
 -2391.136388485   0.000000000000
 -2391.134861092   0.000000000000
 -2391.130223562   0.000000000000
 -2391.129653147   0.000000000000
 -2391.119669101   0.000000000000
 -2391.115973423   0.000000000000
 -2391.094955161   0.000000000000
 -2391.081141472   0.000000000000
 -2391.078372706   0.000000000000
 -2391.075425633   0.000000000000
 -2391.062653226   0.000000000000
 -2391.057784052   0.000000000000
 -2391.043707923   0.000000000000
 -2391.036018776   0.000000000000
 -2391.032023757   0.000000000000
 -2390.899249614   0.000000000000
 -2390.891217200   0.000000000000
 -2390.871845955   0.000000000000
 -2390.806861408   0.000000000000
 -2390.795919381   0.000000000000
 -2390.788653101   0.000000000000
   CI-PROBLEM SOLVED
   DENSITIES MADE
   E(CAS)= -2391.195645550 Eh DE=   -1.279672e-03
   --- Energy gap subspaces: Ext-Act = 0.202   Act-Int = 0.038
   N(occ)=  1.20000 1.20000 1.20000 1.20000 1.20000
   ||g|| =     5.532439e-02 Max(G)=   -1.519161e-02 Rot=109,105
   --- Orbital Update [SuperCI(PT)]
   --- Canonicalize Internal Space
   --- Canonicalize External Space
   --- SX_PT (Skipped TA=0 IT=0): ||X|| =      0.029867218 Max(X)(104,103) =     -0.013844658 
   --- SFit(Active Orbitals)

MACRO-ITERATION  14: 
   --- Inactive Energy E0 = -2383.25614503 Eh
CI-ITERATION   0: 
 -2391.295296037   0.000000000000 (    0.00)
 -2391.290359645   0.000000000000
 -2391.262365061   0.000000000000
 -2391.255429668   0.000000000000
 -2391.199107113   0.000000000000
   CI-PROBLEM SOLVED
   DENSITIES MADE
CI-ITERATION   0: 
 -2391.312025399   0.000000000000 (    0.00)
 -2391.286640642   0.000000000000
 -2391.285881958   0.000000000000
 -2391.283896087   0.000000000000
 -2391.278955112   0.000000000000
 -2391.272146318   0.000000000000
 -2391.264412794   0.000000000000
 -2391.251179231   0.000000000000
 -2391.239696548   0.000000000000
 -2391.235850016   0.000000000000
 -2391.231425108   0.000000000000
 -2391.228117128   0.000000000000
 -2391.225026018   0.000000000000
 -2391.223910154   0.000000000000
 -2391.220028477   0.000000000000
 -2391.217436352   0.000000000000
 -2391.215525583   0.000000000000
 -2391.201560445   0.000000000000
 -2391.200453258   0.000000000000
 -2391.200216320   0.000000000000
 -2391.164721856   0.000000000000
 -2391.162916779   0.000000000000
 -2391.152433525   0.000000000000
 -2391.147988429   0.000000000000
 -2391.136373498   0.000000000000
 -2391.134859901   0.000000000000
 -2391.130212524   0.000000000000
 -2391.129640490   0.000000000000
 -2391.119660338   0.000000000000
 -2391.115969189   0.000000000000
 -2391.095041395   0.000000000000
 -2391.081123483   0.000000000000
 -2391.078356532   0.000000000000
 -2391.075523808   0.000000000000
 -2391.062772838   0.000000000000
 -2391.057776646   0.000000000000
 -2391.043600981   0.000000000000
 -2391.035912198   0.000000000000
 -2391.031921710   0.000000000000
 -2390.899055652   0.000000000000
 -2390.891025375   0.000000000000
 -2390.871670545   0.000000000000
 -2390.806849707   0.000000000000
 -2390.795914870   0.000000000000
 -2390.788652017   0.000000000000
   CI-PROBLEM SOLVED
   DENSITIES MADE
   E(CAS)= -2391.195637499 Eh DE=    8.050857e-06
   --- Energy gap subspaces: Ext-Act = 0.202   Act-Int = 0.038
   N(occ)=  1.20000 1.20000 1.20000 1.20000 1.20000
   ||g|| =     5.541659e-02 Max(G)=   -1.520747e-02 Rot=109,105
   --- Orbital Update [SuperCI(PT)]
   --- Canonicalize Internal Space
   --- Canonicalize External Space
   --- SX_PT (Skipped TA=0 IT=0): ||X|| =      0.029881455 Max(X)(104,103) =     -0.013824766 
Warning: badly conditioned DIIS matrix, 1 vectors out of 14 destroyed
Warning: badly conditioned DIIS matrix, 1 vectors out of 13 destroyed
Warning: badly conditioned DIIS matrix, 1 vectors out of 12 destroyed
Warning: badly conditioned DIIS matrix, 1 vectors out of 11 destroyed
Warning: badly conditioned DIIS matrix, 1 vectors out of 10 destroyed
Warning: badly conditioned DIIS matrix, 1 vectors out of 9 destroyed
   --- SFit(Active Orbitals)

MACRO-ITERATION  15: 
   --- Inactive Energy E0 = -2383.06219769 Eh
CI-ITERATION   0: 
 -2391.298647487   0.000000000000 (    0.00)
 -2391.293029062   0.000000000000
 -2391.261718881   0.000000000000
 -2391.252179416   0.000000000000
 -2391.202914038   0.000000000000
   CI-PROBLEM SOLVED
   DENSITIES MADE
CI-ITERATION   0: 
 -2391.313170258   0.000000000000 (    0.00)
 -2391.285973264   0.000000000000
 -2391.278939648   0.000000000000
 -2391.277069734   0.000000000000
 -2391.276349139   0.000000000000
 -2391.262734010   0.000000000000
 -2391.261154735   0.000000000000
 -2391.244865179   0.000000000000
 -2391.241096625   0.000000000000
 -2391.235699128   0.000000000000
 -2391.234921334   0.000000000000
 -2391.233348015   0.000000000000
 -2391.226726184   0.000000000000
 -2391.223215227   0.000000000000
 -2391.219223807   0.000000000000
 -2391.217515243   0.000000000000
 -2391.213230224   0.000000000000
 -2391.199330300   0.000000000000
 -2391.198900661   0.000000000000
 -2391.196956135   0.000000000000
 -2391.163769658   0.000000000000
 -2391.161178171   0.000000000000
 -2391.153034064   0.000000000000
 -2391.151515455   0.000000000000
 -2391.144303278   0.000000000000
 -2391.138856617   0.000000000000
 -2391.137293097   0.000000000000
 -2391.134706246   0.000000000000
 -2391.123133016   0.000000000000
 -2391.118248020   0.000000000000
 -2391.090540298   0.000000000000
 -2391.087555957   0.000000000000
 -2391.079750171   0.000000000000
 -2391.077999639   0.000000000000
 -2391.069038169   0.000000000000
 -2391.057690925   0.000000000000
 -2391.042055146   0.000000000000
 -2391.016802504   0.000000000000
 -2391.004188576   0.000000000000
 -2390.981240723   0.000000000000
 -2390.968659111   0.000000000000
 -2390.945836288   0.000000000000
 -2390.802186217   0.000000000000
 -2390.787972269   0.000000000000
 -2390.779562459   0.000000000000
   CI-PROBLEM SOLVED
   DENSITIES MADE
   E(CAS)= -2391.198154832 Eh DE=   -2.517332e-03
   --- Energy gap subspaces: Ext-Act = 0.164   Act-Int = 0.046
   N(occ)=  1.20000 1.20000 1.20000 1.20000 1.20000
   ||g|| =     3.657879e-02 Max(G)=   -9.831018e-03 Rot=110,103
   --- Orbital Update [SuperCI(PT)]
   --- Canonicalize Internal Space
   --- Canonicalize External Space
   --- SX_PT (Skipped TA=0 IT=0): ||X|| =      0.024297363 Max(X)(104,103) =     -0.016324742 
   --- SFit(Active Orbitals)

MACRO-ITERATION  16: 
   --- Inactive Energy E0 = -2383.12168987 Eh
CI-ITERATION   0: 
 -2391.296976486   0.000000000000 (    0.00)
 -2391.290674324   0.000000000000
 -2391.263313923   0.000000000000
 -2391.254794205   0.000000000000
 -2391.201073218   0.000000000000
   CI-PROBLEM SOLVED
   DENSITIES MADE
CI-ITERATION   0: 
 -2391.311876575   0.000000000000 (    0.00)
 -2391.286360869   0.000000000000
 -2391.281253034   0.000000000000
 -2391.279053722   0.000000000000
 -2391.277797738   0.000000000000
 -2391.265795259   0.000000000000
 -2391.262291924   0.000000000000
 -2391.245149992   0.000000000000
 -2391.239497072   0.000000000000
 -2391.237558637   0.000000000000
 -2391.233621465   0.000000000000
 -2391.230317196   0.000000000000
 -2391.226438816   0.000000000000
 -2391.223145178   0.000000000000
 -2391.222101742   0.000000000000
 -2391.218220834   0.000000000000
 -2391.213733447   0.000000000000
 -2391.200609452   0.000000000000
 -2391.199918921   0.000000000000
 -2391.199241562   0.000000000000
 -2391.163502088   0.000000000000
 -2391.160990656   0.000000000000
 -2391.152089035   0.000000000000
 -2391.150348433   0.000000000000
 -2391.140133333   0.000000000000
 -2391.135902174   0.000000000000
 -2391.132597723   0.000000000000
 -2391.132337253   0.000000000000
 -2391.121576484   0.000000000000
 -2391.116657802   0.000000000000
 -2391.085065858   0.000000000000
 -2391.082101434   0.000000000000
 -2391.075532395   0.000000000000
 -2391.073034292   0.000000000000
 -2391.067755180   0.000000000000
 -2391.060484325   0.000000000000
 -2391.056436804   0.000000000000
 -2391.040477669   0.000000000000
 -2391.024532152   0.000000000000
 -2390.953770616   0.000000000000
 -2390.943869485   0.000000000000
 -2390.920307093   0.000000000000
 -2390.813005120   0.000000000000
 -2390.799151023   0.000000000000
 -2390.791378330   0.000000000000
   CI-PROBLEM SOLVED
   DENSITIES MADE
   E(CAS)= -2391.197872329 Eh DE=    2.825031e-04
   --- Energy gap subspaces: Ext-Act = 0.178   Act-Int = 0.042
   N(occ)=  1.20000 1.20000 1.20000 1.20000 1.20000
   ||g|| =     2.914893e-02 Max(G)=   -1.394867e-02 Rot=109,105
   --- Orbital Update [SuperCI(PT)]
   --- Canonicalize Internal Space
   --- Canonicalize External Space
   --- SX_PT (Skipped TA=0 IT=0): ||X|| =      0.027180277 Max(X)(104,103) =     -0.017949493 
   --- SFit(Active Orbitals)

MACRO-ITERATION  17: 
   --- Inactive Energy E0 = -2383.12919114 Eh
CI-ITERATION   0: 
 -2391.297405721   0.000000000000 (    0.00)
 -2391.291059948   0.000000000000
 -2391.262902405   0.000000000000
 -2391.254532148   0.000000000000
 -2391.201060078   0.000000000000
   CI-PROBLEM SOLVED
[...]
      dxz     :     0.001269
      dyz     :     0.003983
      dx2y2   :     0.003081
      dxy     :     0.007754
      f0      :     0.000055  f :     0.000478
      f+1     :     0.000007
      f-1     :     0.000075
      f+2     :     0.000080
      f-2     :     0.000031
      f+3     :     0.000076
      f-3     :     0.000153
  4 Aus       :     0.000500  s :     0.000500
      pz      :     0.002398  p :     0.026841
      px      :     0.013699
      py      :     0.010744
      dz2     :     0.003010  d :     0.014981
      dxz     :     0.003503
      dyz     :     0.004397
      dx2y2   :     0.002472
      dxy     :     0.001600
      f0      :     0.000105  f :     0.000307
      f+1     :     0.000070
      f-1     :     0.000086
      f+2     :     0.000022
      f-2     :     0.000013
      f+3     :     0.000011
      f-3     :     0.000001
  5 Aus       :     0.006521  s :     0.006521
      pz      :     0.003947  p :     0.036168
      px      :     0.006496
      py      :     0.025725
      dz2     :     0.003332  d :     0.016407
      dxz     :     0.003252
      dyz     :     0.003337
      dx2y2   :     0.002463
      dxy     :     0.004023
      f0      :     0.000036  f :     0.000319
      f+1     :     0.000029
      f-1     :     0.000013
      f+2     :     0.000061
      f-2     :     0.000028
      f+3     :     0.000085
      f-3     :     0.000069
  6 Aus       :     0.036931  s :     0.036931
      pz      :     0.003381  p :     0.022794
      px      :     0.011774
      py      :     0.007640
      dz2     :     0.002093  d :     0.013714
      dxz     :     0.003938
      dyz     :     0.001696
      dx2y2   :     0.002709
      dxy     :     0.003278
      f0      :     0.000060  f :     0.000349
      f+1     :     0.000037
      f-1     :     0.000005
      f+2     :     0.000070
      f-2     :     0.000088
      f+3     :     0.000041
      f-3     :     0.000047
  7 Aus       :     0.037166  s :     0.037166
      pz      :     0.002476  p :     0.022780
      px      :     0.009678
      py      :     0.010626
      dz2     :     0.001915  d :     0.013725
      dxz     :     0.002577
      dyz     :     0.002435
      dx2y2   :     0.002507
      dxy     :     0.004291
      f0      :     0.000038  f :     0.000347
      f+1     :     0.000006
      f-1     :     0.000056
      f+2     :     0.000057
      f-2     :     0.000018
      f+3     :     0.000060
      f-3     :     0.000113
  8 Aus       :     0.006767  s :     0.006767
      pz      :     0.004285  p :     0.036517
      px      :     0.010605
      py      :     0.021626
      dz2     :     0.005742  d :     0.016352
      dxz     :     0.001423
      dyz     :     0.003720
      dx2y2   :     0.002569
      dxy     :     0.002898
      f0      :     0.000050  f :     0.000322
      f+1     :     0.000024
      f-1     :     0.000098
      f+2     :     0.000058
      f-2     :     0.000035
      f+3     :     0.000029
      f-3     :     0.000029
  9 Aus       :     0.000507  s :     0.000507
      pz      :     0.007178  p :     0.026609
      px      :     0.011199
      py      :     0.008232
      dz2     :     0.005353  d :     0.015054
      dxz     :     0.004212
      dyz     :     0.001931
      dx2y2   :     0.000802
      dxy     :     0.002756
      f0      :     0.000040  f :     0.000310
      f+1     :     0.000025
      f-1     :     0.000039
      f+2     :     0.000019
      f-2     :     0.000081
      f+3     :     0.000061
      f-3     :     0.000044
 10 Crs       :     0.000501  s :     0.000501
      pz      :     0.001287  p :     0.003153
      px      :     0.001093
      py      :     0.000774
      dz2     :     0.469922  d :     2.291382
      dxz     :     0.448486
      dyz     :     0.359192
      dx2y2   :     0.466324
      dxy     :     0.547459
      f0      :     0.000000  f :     0.000001
      f+1     :     0.000000
      f-1     :     0.000000
      f+2     :     0.000000
      f-2     :     0.000000
      f+3     :     0.000000
      f-3     :     0.000000


                      *****************************
                      * MAYER POPULATION ANALYSIS *
                      *****************************

  NA   - Mulliken gross atomic population
  ZA   - Total nuclear charge
  QA   - Mulliken gross atomic charge
  VA   - Mayer's total valence
  BVA  - Mayer's bonded valence
  FA   - Mayer's free valence

  ATOM       NA         ZA         QA         VA         BVA        FA
  0 Au    18.7016    19.0000     0.2984     1.3100     1.2436     0.0664
  1 Au    18.5569    19.0000     0.4431     1.3454     1.3217     0.0237
  2 Au    18.5561    19.0000     0.4439     1.3418     1.3177     0.0241
  3 Au    18.7031    19.0000     0.2969     1.3111     1.2444     0.0667
  4 Au    18.6556    19.0000     0.3444     1.3797     1.3554     0.0242
  5 Au    18.5539    19.0000     0.4461     1.3423     1.3185     0.0238
  6 Au    18.4105    19.0000     0.5895     1.1842     1.1455     0.0387
  7 Au    18.4104    19.0000     0.5896     1.1841     1.1452     0.0389
  8 Au    18.5529    19.0000     0.4471     1.3386     1.3144     0.0242
  9 Au    18.6566    19.0000     0.3434     1.3793     1.3553     0.0241
 10 Cr    28.2425    24.0000    -4.2425     8.7060     4.6070     4.0991

  Mayer bond orders larger than 0.100000
B(  0-Au,  1-Au) :   0.1616 B(  0-Au,  3-Au) :   0.2261 B(  0-Au,  6-Au) :   0.1218 
B(  0-Au,  8-Au) :   0.1623 B(  0-Au, 10-Cr) :   0.4450 B(  1-Au,  4-Au) :   0.2306 
B(  1-Au,  5-Au) :   0.1154 B(  1-Au,  7-Au) :   0.1244 B(  1-Au, 10-Cr) :   0.5187 
B(  2-Au,  3-Au) :   0.1622 B(  2-Au,  4-Au) :   0.2299 B(  2-Au,  6-Au) :   0.1246 
B(  2-Au,  8-Au) :   0.1150 B(  2-Au, 10-Cr) :   0.5150 B(  3-Au,  5-Au) :   0.1618 
B(  3-Au,  7-Au) :   0.1216 B(  3-Au, 10-Cr) :   0.4459 B(  4-Au,  6-Au) :   0.1445 
B(  4-Au,  7-Au) :   0.1437 B(  4-Au, 10-Cr) :   0.4892 B(  5-Au,  6-Au) :   0.1244 
B(  5-Au,  9-Au) :   0.2304 B(  5-Au, 10-Cr) :   0.5169 B(  6-Au,  9-Au) :   0.1430 
B(  6-Au, 10-Cr) :   0.3355 B(  7-Au,  8-Au) :   0.1246 B(  7-Au,  9-Au) :   0.1437 
B(  7-Au, 10-Cr) :   0.3358 B(  8-Au,  9-Au) :   0.2288 B(  8-Au, 10-Cr) :   0.5135 
B(  9-Au, 10-Cr) :   0.4913 


-------------------------------------------------------------
 Forming the transition density       ... done in 0.140827 sec
-------------------------------------------------------------



==========================================
CASSCF UV, CD spectra and dipole moments
==========================================
-------------------
ABSORPTION SPECTRUM
-------------------

Center of mass           = ( 16.2057, 11.7302, 14.1547)
Nuclear contribution to the dipole moment =    -4.185848,   -8.661858,    5.138235 au

Calculating the Dipole integrals                  ... done
Transforming integrals                            ... done
Calculating the Linear Momentum integrals         ... done
Transforming integrals                            ... done
Calculating the Angular Momentum integrals        ... done
Transforming integrals                            ... done

------------------------------------------------------------------------------------------
                                ABSORPTION SPECTRUM
------------------------------------------------------------------------------------------
  States           Energy   Wavelength   fosc          T2        TX         TY        TZ  
                   (cm-1)     (nm)                   (D**2)      (D)        (D)       (D) 
------------------------------------------------------------------------------------------
  0( 1)-> 1( 1) 3    4702.3   2126.6   0.000247752   0.11188  -0.12694  -0.26422   0.16112
  0( 1)-> 2( 1) 3    7055.7   1417.3   0.000181451   0.05461   0.11497   0.06520   0.19272
  0( 1)-> 3( 1) 3    9523.2   1050.1   0.000006109   0.00136   0.02960  -0.01939  -0.01048
  0( 1)-> 4( 1) 3    9784.2   1022.1   0.000000003   0.00000   0.00047  -0.00048   0.00047
  0( 1)-> 5( 1) 3   10871.3    919.9   0.000086695   0.01693  -0.10169   0.07151   0.03845
  0( 1)-> 6( 1) 3   13545.5    738.3   0.000012086   0.00189   0.01671   0.03417  -0.02117
  0( 1)-> 7( 1) 3   14678.5    681.3   0.000133354   0.01929  -0.10684   0.07795   0.04246
  0( 1)-> 8( 1) 3   16267.8    614.7   0.000129261   0.01687   0.10086  -0.07175  -0.03940
  0( 1)-> 9( 1) 3   16540.5    604.6   0.000001437   0.00018   0.00924  -0.00884  -0.00457
  0( 1)->10( 1) 3   16682.7    599.4   0.000000201   0.00003   0.00422  -0.00036  -0.00278
  0( 1)->11( 1) 3   17143.4    583.3   0.000021318   0.00264  -0.01853  -0.04106   0.02473
  0( 1)->12( 1) 3   17651.7    566.5   0.000000176   0.00002   0.00134   0.00382  -0.00219
  0( 1)->13( 1) 3   19623.9    509.6   0.000014749   0.00160  -0.01485  -0.03150   0.01958
  0( 1)->14( 1) 3   20845.4    479.7   0.000001265   0.00013  -0.00710  -0.00819  -0.00338
  0( 1)->15( 1) 3   20940.4    477.5   0.000009940   0.00101  -0.01697  -0.00580  -0.02620
  0( 1)->16( 1) 3   21221.6    471.2   0.000010340   0.00103  -0.02423   0.01825   0.01069
  0( 1)->17( 1) 3   24512.2    408.0   0.000000010   0.00000  -0.00063  -0.00040   0.00054
  0( 1)->18( 1) 3   24845.0    402.5   0.000002233   0.00019  -0.00483  -0.01063   0.00738
  0( 1)->19( 1) 3   25281.2    395.6   0.000007672   0.00064   0.01257   0.00766   0.02068
  0( 1)->20( 1) 3   32102.2    311.5   0.000000031   0.00000  -0.00086   0.00114   0.00021
  0( 1)->21( 1) 3   33300.8    300.3   0.000003953   0.00025   0.00461   0.00654   0.01371
  0( 1)->22( 1) 3   34339.2    291.2   0.000340103   0.02103  -0.11212   0.08099   0.04361
  0( 1)->23( 1) 3   35132.0    284.6   0.000102939   0.00622  -0.05923   0.04453   0.02703
  0( 1)->24( 1) 3   35497.2    281.7   0.000021430   0.00128  -0.02474  -0.00440  -0.02551
  0( 1)->25( 1) 3   37712.8    265.2   0.000000046   0.00000   0.00101   0.00079  -0.00097
  0( 1)->26( 1) 3   38199.7    261.8   0.000037530   0.00209   0.03661  -0.02179  -0.01648
  0( 1)->27( 1) 3   38257.0    261.4   0.000026495   0.00147   0.00966   0.03332  -0.01635
  0( 1)->28( 1) 3   41411.9    241.5   0.000000004   0.00000  -0.00023   0.00039  -0.00010
  0( 1)->29( 1) 3   42635.3    234.5   0.000011260   0.00056   0.01845  -0.01308  -0.00701
  0( 1)->30( 1) 3   45477.5    219.9   0.000000006   0.00000   0.00029   0.00013  -0.00040
  0( 1)->31( 1) 3   46718.9    214.0   0.000000012   0.00000  -0.00065   0.00034   0.00014
  0( 1)->32( 1) 3   48198.5    207.5   0.000000110   0.00000  -0.00168   0.00114   0.00084
  0( 1)->33( 1) 3   48739.9    205.2   0.000035618   0.00155   0.00929   0.02714  -0.02700
  0( 1)->34( 1) 3   48758.0    205.1   0.000021774   0.00095  -0.01906  -0.01976  -0.01395
  0( 1)->35( 1) 3   55123.3    181.4   0.000000320   0.00001   0.00117   0.00269  -0.00192
  0( 1)->36( 1) 3   62666.0    159.6   0.000013643   0.00046   0.00859   0.01606  -0.01143
  0( 1)->37( 1) 3   63552.7    157.3   0.001734880   0.05797   0.09182   0.19036  -0.11533
  0( 1)->38( 1) 3   69619.3    143.6   0.001363391   0.04159   0.15549  -0.11583  -0.06317
  0( 1)->39( 1) 3   71656.7    139.6   0.000443014   0.01313   0.08692  -0.06564  -0.03557
  0( 1)->40( 1) 3   75014.5    133.3   0.000000702   0.00002  -0.00188  -0.00264   0.00306
  0( 1)->41( 1) 3   82002.0    121.9   0.000010547   0.00027   0.00878   0.01304  -0.00510
  0( 1)->42( 1) 3  111381.3     89.8   0.000000010   0.00000   0.00011  -0.00038   0.00015
  0( 1)->43( 1) 3  115807.1     86.4   0.000008564   0.00016  -0.00417  -0.00970   0.00676
  0( 1)->44( 1) 3  116810.8     85.6   0.000005026   0.00009  -0.00507  -0.00303  -0.00752
------------------------------------------------------------------------------------------



------------------------------------------------------------------------------
                             CD SPECTRUM
------------------------------------------------------------------------------
      States        Energy   Wavelength   R*T        RX        RY        RZ   
                    (cm-1)      (nm)   (1e40*sgs)   (au)      (au)      (au)  
------------------------------------------------------------------------------
  0( 1)-> 1( 1) 3    4702.3   2126.6    -0.42955  -0.00090   0.00705  -0.00352
  0( 1)-> 2( 1) 3    7055.7   1417.3     0.51046  -0.50346   0.36092   0.19250
  0( 1)-> 3( 1) 3    9523.2   1050.1    -0.05927  -0.08378  -0.03912  -0.13372
  0( 1)-> 4( 1) 3    9784.2   1022.1     0.00041  -0.01096  -0.01393   0.00145
  0( 1)-> 5( 1) 3   10871.3    919.9    -0.15876   0.19477   0.09431   0.31745
  0( 1)-> 6( 1) 3   13545.5    738.3    -0.00284   0.00118   0.00056   0.00257
  0( 1)-> 7( 1) 3   14678.5    681.3    -0.06403  -0.08954  -0.04541  -0.15007
  0( 1)-> 8( 1) 3   16267.8    614.7    -0.01680   0.15655   0.07641   0.26394
  0( 1)-> 9( 1) 3   16540.5    604.6     0.03881   0.03524   0.00088   0.02381
  0( 1)->10( 1) 3   16682.7    599.4     0.05087   0.04568   0.08686  -0.04069
  0( 1)->11( 1) 3   17143.4    583.3    -0.05596   0.00272   0.00531  -0.00134
  0( 1)->12( 1) 3   17651.7    566.5     0.05196   0.02317   0.04811  -0.02971
  0( 1)->13( 1) 3   19623.9    509.6    -0.01331   0.00047   0.00176  -0.00048
  0( 1)->14( 1) 3   20845.4    479.7     0.00084   0.01902  -0.01428  -0.00671
  0( 1)->15( 1) 3   20940.4    477.5    -0.00428   0.06329  -0.04779  -0.02954
  0( 1)->16( 1) 3   21221.6    471.2     0.00082  -0.03548  -0.01492  -0.05454
  0( 1)->17( 1) 3   24512.2    408.0     0.00415  -0.01072  -0.02237   0.01208
  0( 1)->18( 1) 3   24845.0    402.5    -0.00210  -0.00167   0.00194   0.00016
  0( 1)->19( 1) 3   25281.2    395.6     0.00619  -0.04917   0.03494   0.01856
  0( 1)->20( 1) 3   32102.2    311.5     0.00347   0.01517   0.03196  -0.02134
  0( 1)->21( 1) 3   33300.8    300.3     0.00116  -0.02912   0.01582   0.00270
  0( 1)->22( 1) 3   34339.2    291.2    -0.05323  -0.15747  -0.08102  -0.26094
  0( 1)->23( 1) 3   35132.0    284.6    -0.06286  -0.12027  -0.05256  -0.18944
  0( 1)->24( 1) 3   35497.2    281.7     0.07796   0.02812  -0.03589  -0.03757
  0( 1)->25( 1) 3   37712.8    265.2    -0.00835  -0.01104  -0.02390   0.01531
  0( 1)->26( 1) 3   38199.7    261.8     0.01479  -0.02001  -0.01058  -0.03530
  0( 1)->27( 1) 3   38257.0    261.4     0.00028   0.00260   0.00130   0.00410
  0( 1)->28( 1) 3   41411.9    241.5     0.00052   0.00348   0.00783  -0.00545
  0( 1)->29( 1) 3   42635.3    234.5    -0.00212   0.01733   0.00937   0.02976
  0( 1)->30( 1) 3   45477.5    219.9    -0.00106  -0.00489  -0.01032   0.00741
  0( 1)->31( 1) 3   46718.9    214.0    -0.00083   0.00444  -0.00374  -0.00217
  0( 1)->32( 1) 3   48198.5    207.5     0.00015  -0.01827  -0.00625  -0.02727
  0( 1)->33( 1) 3   48739.9    205.2     0.00614   0.02892  -0.01998  -0.01136
  0( 1)->34( 1) 3   48758.0    205.1     0.00601   0.07089  -0.05101  -0.02692
  0( 1)->35( 1) 3   55123.3    181.4    -0.00030  -0.00003   0.00011   0.00098
  0( 1)->36( 1) 3   62666.0    159.6    -0.10356  -0.00944  -0.01990   0.01381
  0( 1)->37( 1) 3   63552.7    157.3     0.09164   0.00114   0.00085  -0.00198
  0( 1)->38( 1) 3   69619.3    143.6    -0.09719   0.03149   0.01554   0.05732
  0( 1)->39( 1) 3   71656.7    139.6     0.00975  -0.00522  -0.00064  -0.01304
  0( 1)->40( 1) 3   75014.5    133.3     0.12680  -0.06231  -0.12659   0.07589
  0( 1)->41( 1) 3   82002.0    121.9    -0.00443  -0.00014  -0.00149   0.00063
  0( 1)->42( 1) 3  111381.3     89.8     0.00068  -0.00440  -0.00882   0.00536
  0( 1)->43( 1) 3  115807.1     86.4    -0.00096  -0.00094   0.00102   0.00013
  0( 1)->44( 1) 3  116810.8     85.6    -0.00036   0.02049  -0.01469  -0.00763
------------------------------------------------------------------------------

------------------------------------------------------------------------------
                                 DIPOLE MOMENTS
------------------------------------------------------------------------------
  Root  Block           TX        TY        TZ           |T|
                      (Debye)   (Debye)   (Debye)      (Debye)
------------------------------------------------------------------------------
    0    1           -0.07476  -0.15773   0.10612      0.20428

--------------
CASSCF TIMINGS
--------------

Total time                       ...     4843.2 sec
Sum of individual times          ...     4827.7 sec ( 99.7%)

Calculation of AO operators
   F(Core) operator              ...     2341.7 sec ( 48.4%)
   G(Act) operator               ...     2263.2 sec ( 46.7%)
   J(AO) operators               ...        0.0 sec (  0.0%)
Calculation of MO transformed quantities
   J(MO) operators               ...      155.4 sec (  3.2%)
   (pq|rs) integrals             ...        0.0 sec (  0.0%)
   AO->MO one electron integrals ...        1.0 sec (  0.0%)
Configuration interaction steps
   CI-setup phase                ...        0.0 sec (  0.0%)
   CI-solution phase             ...       51.5 sec (  1.1%)
   Generation of densities       ...        3.2 sec (  0.1%)
Orbital improvement steps
   Orbital gradient              ...        1.5 sec (  0.0%)
   O(1) converger                ...       10.1 sec (  0.2%)
Properties                       ...        0.1 sec (  0.0%)
   SOC integral calculation      ...        0.0 sec (  0.0%)
   SSC RMEs (incl. integrals)    ...        0.0 sec (  0.0%)
   SOC RMEs                      ...        0.0 sec (  0.0%)

Maximum memory used throughout the entire CASSCF-calculation: 258.3 MB

-------------------------   --------------------
FINAL SINGLE POINT ENERGY     -2391.198087740400
-------------------------   --------------------


                            ***************************************
                            *     ORCA property calculations      *
                            ***************************************

                                    ---------------------
                                    Active property flags
                                    ---------------------
   (+) Dipole Moment


------------------------------------------------------------------------------
                       ORCA ELECTRIC PROPERTIES CALCULATION
------------------------------------------------------------------------------

Dipole Moment Calculation                       ... on
Quadrupole Moment Calculation                   ... off
Polarizability Calculation                      ... off
GBWName                                         ... casscf.gbw
Electron density                                ... casscf.scfp
The origin for moment calculation is the CENTER OF MASS  = (16.205681, 11.730205 14.154718)

-------------
DIPOLE MOMENT
-------------
                                X             Y             Z
Electronic contribution:      4.15294       8.59161      -5.09303
Nuclear contribution   :     -4.18585      -8.66186       5.13824
                        -----------------------------------------
Total Dipole Moment    :     -0.03291      -0.07025       0.04520
                        -----------------------------------------
Magnitude (a.u.)       :      0.08979
Magnitude (Debye)      :      0.22822



--------------------
Rotational spectrum 
--------------------
 
Rotational constants in cm-1:     0.001898     0.001827     0.001651 
Rotational constants in MHz :    56.887518    54.757265    49.497106 

 Dipole components along the rotational axes: 
x,y,z [a.u.] :     0.000035     0.089722     0.003373 
x,y,z [Debye]:     0.000089     0.228056     0.008574 

 

Timings for individual modules:

Sum of individual times         ...     4870.253 sec (=  81.171 min)
GTO integral calculation        ...       13.636 sec (=   0.227 min)   0.3 %
SCF iterations                  ...        6.233 sec (=   0.104 min)   0.1 %
CASSCF iterations               ...     4850.384 sec (=  80.840 min)  99.6 %
                             ****ORCA TERMINATED NORMALLY****
TOTAL RUN TIME: 0 days 1 hours 21 minutes 10 seconds 902 msec
