
                                 *****************
                                 * O   R   C   A *
                                 *****************

                                            #,                                       
                                            ###                                      
                                            ####                                     
                                            #####                                    
                                            ######                                   
                                           ########,                                 
                                     ,,################,,,,,                         
                               ,,#################################,,                 
                          ,,##########################################,,             
                       ,#########################################, ''#####,          
                    ,#############################################,,   '####,        
                  ,##################################################,,,,####,       
                ,###########''''           ''''###############################       
              ,#####''   ,,,,##########,,,,          '''####'''          '####       
            ,##' ,,,,###########################,,,                        '##       
           ' ,,###''''                  '''############,,,                           
         ,,##''                                '''############,,,,        ,,,,,,###''
      ,#''                                            '''#######################'''  
     '                                                          ''''####''''         
             ,#######,   #######,   ,#######,      ##                                
            ,#'     '#,  ##    ##  ,#'     '#,    #''#        ######   ,####,        
            ##       ##  ##   ,#'  ##            #'  '#       #        #'  '#        
            ##       ##  #######   ##           ,######,      #####,   #    #        
            '#,     ,#'  ##    ##  '#,     ,#' ,#      #,         ##   #,  ,#        
             '#######'   ##     ##  '#######'  #'      '#     #####' # '####'        



                  #######################################################
                  #                        -***-                        #
                  #          Department of theory and spectroscopy      #
                  #    Directorship and core code : Frank Neese         #
                  #        Max Planck Institute fuer Kohlenforschung    #
                  #                Kaiser Wilhelm Platz 1               #
                  #                 D-45470 Muelheim/Ruhr               #
                  #                      Germany                        #
                  #                                                     #
                  #                  All rights reserved                #
                  #                        -***-                        #
                  #######################################################


                         Program Version 5.0.3 -  RELEASE  -


 With contributions from (in alphabetic order):
   Daniel Aravena         : Magnetic Suceptibility
   Michael Atanasov       : Ab Initio Ligand Field Theory (pilot matlab implementation)
   Alexander A. Auer      : GIAO ZORA, VPT2 properties, NMR spectrum
   Ute Becker             : Parallelization
   Giovanni Bistoni       : ED, misc. LED, open-shell LED, HFLD
   Martin Brehm           : Molecular dynamics
   Dmytro Bykov           : SCF Hessian
   Vijay G. Chilkuri      : MRCI spin determinant printing, contributions to CSF-ICE
   Dipayan Datta          : RHF DLPNO-CCSD density
   Achintya Kumar Dutta   : EOM-CC, STEOM-CC
   Dmitry Ganyushin       : Spin-Orbit,Spin-Spin,Magnetic field MRCI
   Miquel Garcia          : C-PCM and meta-GGA Hessian, CC/C-PCM, Gaussian charge scheme
   Yang Guo               : DLPNO-NEVPT2, F12-NEVPT2, CIM, IAO-localization
   Andreas Hansen         : Spin unrestricted coupled pair/coupled cluster methods
   Benjamin Helmich-Paris : MC-RPA, TRAH-SCF, COSX integrals
   Lee Huntington         : MR-EOM, pCC
   Robert Izsak           : Overlap fitted RIJCOSX, COSX-SCS-MP3, EOM
   Marcus Kettner         : VPT2
   Christian Kollmar      : KDIIS, OOCD, Brueckner-CCSD(T), CCSD density, CASPT2, CASPT2-K
   Simone Kossmann        : Meta GGA functionals, TD-DFT gradient, OOMP2, MP2 Hessian
   Martin Krupicka        : Initial AUTO-CI
   Lucas Lang             : DCDCAS
   Marvin Lechner         : AUTO-CI (C++ implementation), FIC-MRCC
   Dagmar Lenk            : GEPOL surface, SMD
   Dimitrios Liakos       : Extrapolation schemes; Compound Job, initial MDCI parallelization
   Dimitrios Manganas     : Further ROCIS development; embedding schemes
   Dimitrios Pantazis     : SARC Basis sets
   Anastasios Papadopoulos: AUTO-CI, single reference methods and gradients
   Taras Petrenko         : DFT Hessian,TD-DFT gradient, ASA, ECA, R-Raman, ABS, FL, XAS/XES, NRVS
   Peter Pinski           : DLPNO-MP2, DLPNO-MP2 Gradient
   Christoph Reimann      : Effective Core Potentials
   Marius Retegan         : Local ZFS, SOC
   Christoph Riplinger    : Optimizer, TS searches, QM/MM, DLPNO-CCSD(T), (RO)-DLPNO pert. Triples
   Tobias Risthaus        : Range-separated hybrids, TD-DFT gradient, RPA, STAB
   Michael Roemelt        : Original ROCIS implementation
   Masaaki Saitow         : Open-shell DLPNO-CCSD energy and density
   Barbara Sandhoefer     : DKH picture change effects
   Avijit Sen             : IP-ROCIS
   Kantharuban Sivalingam : CASSCF convergence, NEVPT2, FIC-MRCI
   Bernardo de Souza      : ESD, SOC TD-DFT
   Georgi Stoychev        : AutoAux, RI-MP2 NMR, DLPNO-MP2 response
   Willem Van den Heuvel  : Paramagnetic NMR
   Boris Wezisla          : Elementary symmetry handling
   Frank Wennmohs         : Technical directorship


 We gratefully acknowledge several colleagues who have allowed us to
 interface, adapt or use parts of their codes:
   Stefan Grimme, W. Hujo, H. Kruse, P. Pracht,  : VdW corrections, initial TS optimization,
                  C. Bannwarth, S. Ehlert          DFT functionals, gCP, sTDA/sTD-DF
   Ed Valeev, F. Pavosevic, A. Kumar             : LibInt (2-el integral package), F12 methods
   Garnet Chan, S. Sharma, J. Yang, R. Olivares  : DMRG
   Ulf Ekstrom                                   : XCFun DFT Library
   Mihaly Kallay                                 : mrcc  (arbitrary order and MRCC methods)
   Jiri Pittner, Ondrej Demel                    : Mk-CCSD
   Frank Weinhold                                : gennbo (NPA and NBO analysis)
   Christopher J. Cramer and Donald G. Truhlar   : smd solvation model
   Lars Goerigk                                  : TD-DFT with DH, B97 family of functionals
   V. Asgeirsson, H. Jonsson                     : NEB implementation
   FAccTs GmbH                                   : IRC, NEB, NEB-TS, DLPNO-Multilevel, CI-OPT
                                                   MM, QMMM, 2- and 3-layer-ONIOM, Crystal-QMMM,
                                                   LR-CPCM, SF, NACMEs, symmetry and pop. for TD-DFT,
                                                   nearIR, NL-DFT gradient (VV10), updates on ESD,
                                                   ML-optimized integration grids
   S Lehtola, MJT Oliveira, MAL Marques          : LibXC Library
   Liviu Ungur et al                             : ANISO software


 Your calculation uses the libint2 library for the computation of 2-el integrals
 For citations please refer to: http://libint.valeyev.net

 Your ORCA version has been built with support for libXC version: 5.1.0
 For citations please refer to: https://tddft.org/programs/libxc/

 This ORCA versions uses:
   CBLAS   interface :  Fast vector & matrix operations
   LAPACKE interface :  Fast linear algebra routines
   SCALAPACK package :  Parallel linear algebra routines
   Shared memory     :  Shared parallel matrices
   BLAS/LAPACK       :  OpenBLAS 0.3.15  USE64BITINT DYNAMIC_ARCH NO_AFFINITY Sandybridge SINGLE_THREADED
        Core in use  :  Sandybridge
   Copyright (c) 2011-2014, The OpenBLAS Project




***************************************
The coordinates will be read from file: pbe.xyz
***************************************


================================================================================

cite the ECPs for Au [Def2-ECP] as follows:
Ce-Yb(ecp-28): M. Dolg, H. Stoll, H.Preuss, J. Chem. Phys., 1989, 90, 1730-1734.
Y-Cd(ecp-28), Hf-Hg(ecp-46): D. Andrae,U. Haeussermann, M. Dolg, H. Stoll, H. Preuss, Theor. Chim. Acta, 1990, 77, 123-141.
In-Sb(ecp-28), Tl-Bi(ecp-46): B. Metz, H. Stoll, M. Dolg, J. Chem. Phys., 2000, 113, 2563-2569.
Te-Xe(ecp-28), Po-Rn(ecp-46): K. A. Peterson, D. Figgen, E. Goll, H. Stoll, M. Dolg, J. Chem. Phys., 2003, 119, 11113-11123.
Rb(ecp-28), Cs(ecp-46): T. Leininger, A. Nicklass, W. Kuechle, H. Stoll, M. Dolg, A. Bergner, Chem. Phys. Lett., 1996, 255, 274-280.
Sr(ecp-28), Ba(ecp-46): M. Kaupp, P. V. Schleyer, H. Stoll and H. Preuss, J. Chem. Phys., 1991, 94, 1360-1366.
La(ecp-46): M. Dolg, H. Stoll, A. Savin, H. Preuss, Theor. Chim. Acta, 1989, 75, 173-194.
Lu(ecp-28): X. Cao, M. Dolg, J. Chem. Phys., 2001, 115, 7348-7355.

ECP parameters for Au [Def2-ECP] have been obtained from:
TURBOMOLE (7.0.2)

----- Orbital basis set information -----
Your calculation utilizes the basis: def2-TZVP
   F. Weigend and R. Ahlrichs, Phys. Chem. Chem. Phys. 7, 3297 (2005).

----- AuxJ basis set information -----
Your calculation utilizes the auxiliary basis: def2/J
   F. Weigend, Phys. Chem. Chem. Phys. 8, 1057 (2006).

================================================================================
                                        WARNINGS
                       Please study these warnings very carefully!
================================================================================

Using LibXC functional ID 497 : Re-regularized SCAN exchange by Furness et al
[ 1]  J. W. Furness, A. D. Kaplan, J. Ning, J. P. Perdew, and J. Sun, J. Phys. Chem. Lett. 11, 8208 (2020)
[ 2]  J. W. Furness, A. D. Kaplan, J. Ning, J. P. Perdew, and J. Sun, J. Phys. Chem. Lett. 11, 9248 (2020)
Using LibXC functional ID 498 : Re-regularized SCAN correlation by Furness et al
[ 1]  J. W. Furness, A. D. Kaplan, J. Ning, J. P. Perdew, and J. Sun, J. Phys. Chem. Lett. 11, 8208 (2020)
[ 2]  J. W. Furness, A. D. Kaplan, J. Ning, J. P. Perdew, and J. Sun, J. Phys. Chem. Lett. 11, 9248 (2020)
Using LibXC functional ID 497 : Re-regularized SCAN exchange by Furness et al
[ 1]  J. W. Furness, A. D. Kaplan, J. Ning, J. P. Perdew, and J. Sun, J. Phys. Chem. Lett. 11, 8208 (2020)
[ 2]  J. W. Furness, A. D. Kaplan, J. Ning, J. P. Perdew, and J. Sun, J. Phys. Chem. Lett. 11, 9248 (2020)
Using LibXC functional ID 498 : Re-regularized SCAN correlation by Furness et al
[ 1]  J. W. Furness, A. D. Kaplan, J. Ning, J. P. Perdew, and J. Sun, J. Phys. Chem. Lett. 11, 8208 (2020)
[ 2]  J. W. Furness, A. D. Kaplan, J. Ning, J. P. Perdew, and J. Sun, J. Phys. Chem. Lett. 11, 9248 (2020)

WARNING: your system is open-shell and RHF/RKS was chosen
  ===> : WILL SWITCH to UHF/UKS


INFO   : the flag for use of the SHARK integral package has been found!



***************************************
The coordinates will be read from file: pbe.xyz
***************************************


================================================================================

cite the ECPs for Au [Def2-ECP] as follows:
Ce-Yb(ecp-28): M. Dolg, H. Stoll, H.Preuss, J. Chem. Phys., 1989, 90, 1730-1734.
Y-Cd(ecp-28), Hf-Hg(ecp-46): D. Andrae,U. Haeussermann, M. Dolg, H. Stoll, H. Preuss, Theor. Chim. Acta, 1990, 77, 123-141.
In-Sb(ecp-28), Tl-Bi(ecp-46): B. Metz, H. Stoll, M. Dolg, J. Chem. Phys., 2000, 113, 2563-2569.
Te-Xe(ecp-28), Po-Rn(ecp-46): K. A. Peterson, D. Figgen, E. Goll, H. Stoll, M. Dolg, J. Chem. Phys., 2003, 119, 11113-11123.
Rb(ecp-28), Cs(ecp-46): T. Leininger, A. Nicklass, W. Kuechle, H. Stoll, M. Dolg, A. Bergner, Chem. Phys. Lett., 1996, 255, 274-280.
Sr(ecp-28), Ba(ecp-46): M. Kaupp, P. V. Schleyer, H. Stoll and H. Preuss, J. Chem. Phys., 1991, 94, 1360-1366.
La(ecp-46): M. Dolg, H. Stoll, A. Savin, H. Preuss, Theor. Chim. Acta, 1989, 75, 173-194.
Lu(ecp-28): X. Cao, M. Dolg, J. Chem. Phys., 2001, 115, 7348-7355.

ECP parameters for Au [Def2-ECP] have been obtained from:
TURBOMOLE (7.0.2)

----- Orbital basis set information -----
Your calculation utilizes the basis: def2-TZVP
   F. Weigend and R. Ahlrichs, Phys. Chem. Chem. Phys. 7, 3297 (2005).

----- AuxJ basis set information -----
Your calculation utilizes the auxiliary basis: def2/J
   F. Weigend, Phys. Chem. Chem. Phys. 8, 1057 (2006).

================================================================================
                                        WARNINGS
                       Please study these warnings very carefully!
================================================================================

Using LibXC functional ID 497 : Re-regularized SCAN exchange by Furness et al
[ 1]  J. W. Furness, A. D. Kaplan, J. Ning, J. P. Perdew, and J. Sun, J. Phys. Chem. Lett. 11, 8208 (2020)
[ 2]  J. W. Furness, A. D. Kaplan, J. Ning, J. P. Perdew, and J. Sun, J. Phys. Chem. Lett. 11, 9248 (2020)
Using LibXC functional ID 498 : Re-regularized SCAN correlation by Furness et al
[ 1]  J. W. Furness, A. D. Kaplan, J. Ning, J. P. Perdew, and J. Sun, J. Phys. Chem. Lett. 11, 8208 (2020)
[ 2]  J. W. Furness, A. D. Kaplan, J. Ning, J. P. Perdew, and J. Sun, J. Phys. Chem. Lett. 11, 9248 (2020)
Using LibXC functional ID 497 : Re-regularized SCAN exchange by Furness et al
[ 1]  J. W. Furness, A. D. Kaplan, J. Ning, J. P. Perdew, and J. Sun, J. Phys. Chem. Lett. 11, 8208 (2020)
[ 2]  J. W. Furness, A. D. Kaplan, J. Ning, J. P. Perdew, and J. Sun, J. Phys. Chem. Lett. 11, 9248 (2020)
Using LibXC functional ID 498 : Re-regularized SCAN correlation by Furness et al
[ 1]  J. W. Furness, A. D. Kaplan, J. Ning, J. P. Perdew, and J. Sun, J. Phys. Chem. Lett. 11, 8208 (2020)
[ 2]  J. W. Furness, A. D. Kaplan, J. Ning, J. P. Perdew, and J. Sun, J. Phys. Chem. Lett. 11, 9248 (2020)

INFO   : the flag for use of the SHARK integral package has been found!

================================================================================
                                       INPUT FILE
================================================================================
NAME = scan.inp
|  1> !R2SCAN def2-TZVP VERYSLOWCONV
|  2> !KDIIS
|  3> %scf
|  4>   AutoTRAHIter 200
|  5>   maxiter 400
|  6> end
|  7> 
|  8> %pal nprocs 6 end 
|  9> 
| 10> *xyzfile 0 6 pbe.xyz
| 11> 
| 12> $new_job
| 13> 
| 14> !R2SCAN def2-TZVP VERYSLOWCONV
| 15> !KDIIS
| 16> %scf
| 17>   AutoTRAHIter 200
| 18>   maxiter 400
| 19> end
| 20> 
| 21> 
| 22> %pal nprocs 6 end 
| 23> 
| 24> *xyzfile 0 4 pbe.xyz
| 25> 
| 26> 
| 27> 
| 28> 
| 29> 
| 30>                          ****END OF INPUT****
================================================================================


                 $$$$$$$$$$$$$$$$$$$$$$$$$$$$$$$$$$$$$$$$$$$$$$ 
                 $ THERE ARE  2 JOBS TO BE PROCESSED THIS RUN $
                 $$$$$$$$$$$$$$$$$$$$$$$$$$$$$$$$$$$$$$$$$$$$$$ 




                 $$$$$$$$$$$$$$$$  JOB NUMBER  1 $$$$$$$$$$$$$$


                       ****************************
                       * Single Point Calculation *
                       ****************************

---------------------------------
CARTESIAN COORDINATES (ANGSTROEM)
---------------------------------
  Au     9.530715    5.694890    5.281152
  Au    10.518164    5.416299    9.281785
  Au     8.754077    4.249989    7.503100
  Au     8.013763    5.806430   10.195361
  Au     9.977513    8.014137    9.915276
  Au     8.850638    8.337943    5.323241
  Au     6.247108    5.185222    8.178305
  Au     4.790025    7.246430    6.941548
  Au     5.595540    7.011065   10.216113
  Au     4.831743    9.335973    8.826054
  Au     6.903198    6.134351    5.680381
  Au     6.737488    9.181141    6.820619
  Au     7.440581    8.978228    9.690303
  Au     9.259749    9.685796    7.764773
  Mn     8.583790    6.974194    7.737390

----------------------------
CARTESIAN COORDINATES (A.U.)
----------------------------
  NO LB      ZA    FRAG     MASS         X           Y           Z
   0 Au   19.0000*   0   196.966   18.010441   10.761782    9.979931
   1 Au   19.0000*   0   196.966   19.876450   10.235321   17.540032
   2 Au   19.0000*   0   196.966   16.542808    8.031316   14.178805
   3 Au   19.0000*   0   196.966   15.143817   10.972563   19.266441
   4 Au   19.0000*   0   196.966   18.854768   15.144524   18.737155
   5 Au   19.0000*   0   196.966   16.725282   15.756430   10.059468
   6 Au   19.0000*   0   196.966   11.805323    9.798650   15.454757
   7 Au   19.0000*   0   196.966    9.051835   13.693768   13.117625
   8 Au   19.0000*   0   196.966   10.574038   13.248993   19.305656
   9 Au   19.0000*   0   196.966    9.130672   17.642432   16.678824
  10 Au   19.0000*   0   196.966   13.045155   11.592244   10.734365
  11 Au   19.0000*   0   196.966   12.732007   17.349842   12.889101
  12 Au   19.0000*   0   196.966   14.060661   16.966391   18.312019
  13 Au   19.0000*   0   196.966   17.498390   18.303502   14.673294
  14 Mn   25.0000    0    54.940   16.221012   13.179317   14.621548
* core charge reduced due to ECP

--------------------------------
INTERNAL COORDINATES (ANGSTROEM)
--------------------------------
 Au     0   0   0     0.000000000000     0.00000000     0.00000000
 Au     1   0   0     4.130101359724     0.00000000     0.00000000
 Au     1   2   0     2.761875937377    41.63900067     0.00000000
 Au     2   1   3     2.694225522304    95.53470281   305.74607747
 Au     2   1   3     2.728071940874    96.50653207   238.96743240
 Au     1   2   3     2.729470221465    96.31256097   121.18430983
 Au     4   2   1     2.752359674665   108.38890901    21.54207717
 Au     7   4   2     2.810913900678   119.31829241   249.89837855
 Au     4   2   1     2.701735902028   154.04899443   317.93526078
 Au     8   7   4     2.814123189615   104.01384731   338.37765346
 Au     1   2   3     2.693761629639    95.77669565    54.55222419
 Au     6   1   2     2.723696864939   120.10344867   296.32325425
 Au     5   2   1     2.723253048556   120.16946845    63.47717402
 Au    12   6   1     2.740055856045    62.11355217   104.30187756
 Mn     3   1   2     2.739558707344    64.28175754    57.09337323

---------------------------
INTERNAL COORDINATES (A.U.)
---------------------------
 Au     0   0   0     0.000000000000     0.00000000     0.00000000
 Au     1   0   0     7.804760475214     0.00000000     0.00000000
 Au     1   2   0     5.219189137510    41.63900067     0.00000000
 Au     2   1   3     5.091348380175    95.53470281   305.74607747
 Au     2   1   3     5.155308841886    96.50653207   238.96743240
 Au     1   2   3     5.157951209261    96.31256097   121.18430983
 Au     4   2   1     5.201206007166   108.38890901    21.54207717
 Au     7   4   2     5.311857458314   119.31829241   249.89837855
 Au     4   2   1     5.105540941015   154.04899443   317.93526078
 Au     8   7   4     5.317922135490   104.01384731   338.37765346
 Au     1   2   3     5.090471750084    95.77669565    54.55222419
 Au     6   1   2     5.147041146554   120.10344867   296.32325425
 Au     5   2   1     5.146202455137   120.16946845    63.47717402
 Au    12   6   1     5.177955159573    62.11355217   104.30187756
 Mn     3   1   2     5.177015684679    64.28175754    57.09337323

---------------------
BASIS SET INFORMATION
---------------------
There are 2 groups of distinct atoms

 Group   1 Type Au  : 8s7p6d1f contracted to 6s4p3d1f pattern {311111/4111/411/1}
 Group   2 Type Mn  : 17s11p7d1f contracted to 6s4p4d1f pattern {842111/6311/4111/1}

Atom   0Au   basis set group =>   1
Atom   1Au   basis set group =>   1
Atom   2Au   basis set group =>   1
Atom   3Au   basis set group =>   1
Atom   4Au   basis set group =>   1
Atom   5Au   basis set group =>   1
Atom   6Au   basis set group =>   1
Atom   7Au   basis set group =>   1
Atom   8Au   basis set group =>   1
Atom   9Au   basis set group =>   1
Atom  10Au   basis set group =>   1
Atom  11Au   basis set group =>   1
Atom  12Au   basis set group =>   1
Atom  13Au   basis set group =>   1
Atom  14Mn   basis set group =>   2
---------------------------------
AUXILIARY/J BASIS SET INFORMATION
---------------------------------
There are 2 groups of distinct atoms

 Group   1 Type Au  : 11s5p5d3f3g contracted to 8s5p5d2f3g pattern {41111111/11111/11111/21/111}
 Group   2 Type Mn  : 19s5p5d3f3g contracted to 8s5p5d2f3g pattern {121111111/11111/11111/21/111}

Atom   0Au   basis set group =>   1
Atom   1Au   basis set group =>   1
Atom   2Au   basis set group =>   1
Atom   3Au   basis set group =>   1
Atom   4Au   basis set group =>   1
Atom   5Au   basis set group =>   1
Atom   6Au   basis set group =>   1
Atom   7Au   basis set group =>   1
Atom   8Au   basis set group =>   1
Atom   9Au   basis set group =>   1
Atom  10Au   basis set group =>   1
Atom  11Au   basis set group =>   1
Atom  12Au   basis set group =>   1
Atom  13Au   basis set group =>   1
Atom  14Mn   basis set group =>   2
-------------------------
ECP PARAMETER INFORMATION
-------------------------

 Group 1, Type Au ECP Def2-ECP (replacing 60 core electrons, lmax=3)

Atom   0Au   ECP group =>   1
Atom   1Au   ECP group =>   1
Atom   2Au   ECP group =>   1
Atom   3Au   ECP group =>   1
Atom   4Au   ECP group =>   1
Atom   5Au   ECP group =>   1
Atom   6Au   ECP group =>   1
Atom   7Au   ECP group =>   1
Atom   8Au   ECP group =>   1
Atom   9Au   ECP group =>   1
Atom  10Au   ECP group =>   1
Atom  11Au   ECP group =>   1
Atom  12Au   ECP group =>   1
Atom  13Au   ECP group =>   1



           ************************************************************
           *        Program running with 6 parallel MPI-processes     *
           *              working on a common directory               *
           ************************************************************
------------------------------------------------------------------------------
                           ORCA GTO INTEGRAL CALCULATION
                           -- RI-GTO INTEGRALS CHOSEN --
------------------------------------------------------------------------------
------------------------------------------------------------------------------
                   ___                                                        
                  /   \      - P O W E R E D   B Y -                         
                 /     \                                                     
                 |  |  |   _    _      __       _____    __    __             
                 |  |  |  | |  | |    /  \     |  _  \  |  |  /  |          
                  \  \/   | |  | |   /    \    | | | |  |  | /  /          
                 / \  \   | |__| |  /  /\  \   | |_| |  |  |/  /          
                |  |  |   |  __  | /  /__\  \  |    /   |      \           
                |  |  |   | |  | | |   __   |  |    \   |  |\   \          
                \     /   | |  | | |  |  |  |  | |\  \  |  | \   \       
                 \___/    |_|  |_| |__|  |__|  |_| \__\ |__|  \__/        
                                                                              
                      - O R C A' S   B I G   F R I E N D -                    
                                      &                                       
                       - I N T E G R A L  F E E D E R -                       
                                                                              
 v1 FN, 2020, v2 2021                                                         
------------------------------------------------------------------------------


Reading SHARK input file scan.SHARKINP.tmp ... ok
----------------------
SHARK INTEGRAL PACKAGE
----------------------

Number of atoms                             ...     15
Number of basis functions                   ...    605
Number of shells                            ...    211
Maximum angular momentum                    ...      3
Integral batch strategy                     ... SHARK/LIBINT Hybrid
RI-J (if used) integral strategy            ... SPLIT-RIJ (Revised 2003 algorithm where possible)
Printlevel                                  ...      1
Contraction scheme used                     ... SEGMENTED contraction
Coulomb Range Separation                    ... NOT USED
Exchange Range Separation                   ... NOT USED
Finite Nucleus Model                        ... NOT USED
Auxiliary Coulomb fitting basis             ... AVAILABLE
   # of basis functions in Aux-J            ...   1335
   # of shells in Aux-J                     ...    345
   Maximum angular momentum in Aux-J        ...      4
Auxiliary J/K fitting basis                 ... NOT available
Auxiliary Correlation fitting basis         ... NOT available
Auxiliary 'external' fitting basis          ... NOT available
Integral threshold                          ...     1.000000e-10
Primitive cut-off                           ...     1.000000e-11
Primitive pair pre-selection threshold      ...     1.000000e-11

Calculating pre-screening integrals         ... done (  0.3 sec) Dimension = 211
Organizing shell pair data                  ... done (  2.2 sec)
Shell pair information
Total number of shell pairs                 ...     22366
Shell pairs after pre-screening             ...     17665
Total number of primitive shell pairs       ...     59609
Primitive shell pairs kept                  ...     33951
          la=0 lb=0:   2787 shell pairs
          la=1 lb=0:   4003 shell pairs
          la=1 lb=1:   1527 shell pairs
          la=2 lb=0:   3510 shell pairs
          la=2 lb=1:   2483 shell pairs
          la=2 lb=2:   1026 shell pairs
          la=3 lb=0:    915 shell pairs
          la=3 lb=1:    706 shell pairs
          la=3 lb=2:    612 shell pairs
          la=3 lb=3:     96 shell pairs

Calculating one electron integrals          ... done (  0.1 sec)
Calculating ECP integrals                   ... done ( 16.3 sec)
Calculating RI/J V-Matrix + Cholesky decomp.... done (  0.1 sec)
Calculating Nuclear repulsion               ... done (  0.0 sec) ENN=   5576.154266134026 Eh

SHARK setup successfully completed in  19.8 seconds

Maximum memory used throughout the entire GTOINT-calculation: 34.4 MB


           ************************************************************
           *        Program running with 6 parallel MPI-processes     *
           *              working on a common directory               *
           ************************************************************
-------------------------------------------------------------------------------
                                 ORCA SCF
-------------------------------------------------------------------------------

------------
SCF SETTINGS
------------
Hamiltonian:
 Density Functional     Method          .... DFT(GTOs)
  Functional kind                       .... Exchange
  Functional name                       .... Re-regularized SCAN exchange by Furness et al
  Functional family                     .... MGGA
  Functional refs                              
    [ 0] J. W. Furness, A. D. Kaplan, J. Ning, J. P. Perdew, and J. Sun, J. Phys. Chem. Lett. 11, 8208 (2020)
    [ 1] J. W. Furness, A. D. Kaplan, J. Ning, J. P. Perdew, and J. Sun, J. Phys. Chem. Lett. 11, 9248 (2020)
  Functional external parameters         .... 8
 Parameter  0 :         c1 parameter
 Parameter  1 :         c2 parameter
 Parameter  2 :          d parameter
 Parameter  3 :         k1 parameter
 Parameter  4 :       taur parameter
 Parameter  5 :     alphar parameter
 Parameter  6 :        eta parameter
 Parameter  7 :        dp2 parameter
  Functional kind                       .... Correlation
  Functional name                       .... Re-regularized SCAN correlation by Furness et al
  Functional family                     .... MGGA
  Functional refs                              
    [ 0] J. W. Furness, A. D. Kaplan, J. Ning, J. P. Perdew, and J. Sun, J. Phys. Chem. Lett. 11, 8208 (2020)
    [ 1] J. W. Furness, A. D. Kaplan, J. Ning, J. P. Perdew, and J. Sun, J. Phys. Chem. Lett. 11, 9248 (2020)
  Functional external parameters         .... 0
 Gradients option       PostSCFGGA      .... off
   Density functional embedding theory  .... OFF
   NL short-range parameter             .... 12.300000
 RI-approximation to the Coulomb term is turned on
   Number of AuxJ basis functions       .... 1335


General Settings:
 Integral files         IntName         .... scan
 Hartree-Fock type      HFTyp           .... UHF
 Total Charge           Charge          ....    0
 Multiplicity           Mult            ....    6
 Number of Electrons    NEL             ....  291
 Basis Dimension        Dim             ....  605
 Nuclear Repulsion      ENuc            ....   5576.1542661340 Eh

Convergence Acceleration:
 DIIS                   CNVDIIS         .... off
 Trust-Rad. Augm. Hess. CNVTRAH         .... auto
   Auto Start mean grad. ratio tolernc. ....  1.125000
   Auto Start start iteration           ....   200
   Auto Start num. interpolation iter.  ....    10
   Max. Number of Micro iterations      ....    16
   Max. Number of Macro iterations      .... Maxiter - #DIIS iter
   Number of Davidson start vectors     ....     2
   Converg. threshold I  (grad. norm)   ....   5.000e-05
   Converg. threshold II (energy diff.) ....   1.000e-06
   Grad. Scal. Fac. for Micro threshold ....   0.100
   Minimum threshold for Micro iter.    ....   0.010
   NR start threshold (gradient norm)   ....   0.001
   Initial trust radius                 ....   0.400
   Minimum AH scaling param. (alpha)    ....   1.000
   Maximum AH scaling param. (alpha)    .... 1000.000
   Orbital update algorithm             .... Taylor
   White noise on init. David. guess    .... on
   Maximum white noise                  ....   0.010
   Quad. conv. algorithm                .... NR
 SOSCF                  CNVSOSCF        .... off
 Level Shifting         CNVShift        .... off
 Zerner damping         CNVZerner       .... off
 Static damping         CNVDamp         .... off
 Fernandez-Rico         CNVRico         .... off

SCF Procedure:
 Maximum # iterations   MaxIter         ....   400
 SCF integral mode      SCFMode         .... Direct
   Integral package                     .... SHARK and LIBINT hybrid scheme
 Reset frequency        DirectResetFreq ....    20
 Integral Threshold     Thresh          ....  1.000e-10 Eh
 Primitive CutOff       TCut            ....  1.000e-11 Eh

Convergence Tolerance:
 Convergence Check Mode ConvCheckMode   .... All-Criteria
 Convergence forced     ConvForced      .... 0
 Energy Change          TolE            ....  1.000e-06 Eh
 Max Density Change     TolMaxP         ....  1.000e-05
 RMS Density Change     TolRMSP         ....  1.000e-06


Diagonalization of the overlap matrix:
Smallest eigenvalue                        ... 4.802e-04
Time for diagonalization                   ...    0.115 sec
Threshold for overlap eigenvalues          ... 1.000e-08
Number of eigenvalues below threshold      ... 0
Time for construction of square roots      ...    0.111 sec
Total time needed                          ...    0.228 sec

Time for model grid setup =    1.338 sec

------------------------------
INITIAL GUESS: MODEL POTENTIAL
------------------------------
Loading Hartree-Fock densities                     ... done
  calling /home/ehlert/src/miniconda3/envs/orca500/Programs/ORCA501/orca scan_atom79.inp > scan_atom79.out in order to generate an atomic fitting density for atom 0 (Au with ECP) on-the-fly... 
    atom 0 (Au), assumed electronic state with S=2: 1s2 2s2 2p6 3s2 3p6 4s2 3d10 4p6 5s2 4d10 5p6 6s1 4f14 5d10           ... done
Calculating cut-offs                               ... done
Initializing the effective Hamiltonian             ... done
Setting up the integral package (SHARK)            ... done
Starting the Coulomb interaction                   ... done (   1.1 sec)
Reading the grid                                   ... done
Mapping shells                                     ... done
Starting the XC term evaluation                    ... done (   1.1 sec)
  promolecular density results
     # of electrons  =   1131.014151750
     EX              =  -5172.101597273
     EC              =    -68.905381159
     EX+EC           =  -5241.006978432
Transforming the Hamiltonian                       ... done (   0.1 sec)
Diagonalizing the Hamiltonian                      ... done (   0.2 sec)
Back transforming the eigenvectors                 ... done (   0.0 sec)
Now organizing SCF variables                       ... done
                      ------------------
                      INITIAL GUESS DONE (  11.3 sec)
                      ------------------
-------------------
DFT GRID GENERATION
-------------------

General Integration Accuracy     IntAcc      ... 4.388
Radial Grid Type                 RadialGrid  ... OptM3 with GC (2021)
Angular Grid (max. ang.)         AngularGrid ... 4 (Lebedev-302)
Angular grid pruning method      GridPruning ... 4 (adaptive)
Weight generation scheme         WeightScheme... Becke
Basis function cutoff            BFCut       ... 1.0000e-10
Integration weight cutoff        WCut        ... 1.0000e-14
Angular grids for H and He will be reduced by one unit
Partially contracted basis set               ... off
Rotationally invariant grid construction     ... off

Total number of grid points                  ...   165951
Total number of batches                      ...     2600
Average number of points per batch           ...       63
Average number of grid points per atom       ...    11063
Time for grid setup =    3.086 sec

--------------
SCF ITERATIONS
--------------
ITER       Energy         Delta-E        Max-DP      RMS-DP      [F,P]   Gradient Norm
               ***  Starting incremental Fock matrix formation  ***
                             ****Resetting KDIIS****
                             ****Turning on KDIIS(Cayley)****
  0  -3050.0022878387   0.000000000000 0.50134019  0.00169532  0.3980719   0.236653792
  1  -3051.5469733525  -1.544685513763 0.47054424  0.00207902  0.3562269   0.173249986
  2  -3052.2127661275  -0.665792775036 0.13176509  0.00152471  0.2816244   0.128977867
  3  -3052.5275652670  -0.314799139437 0.15453534  0.00153315  0.1645929   0.076669528
  4  -3052.6293923854  -0.101827118457 0.06516890  0.00063873  0.0527343   0.025299162
  5  -3052.6961225361  -0.066730150640 0.23786353  0.00074552  0.0319828   0.009610410
  6  -3052.7341834541  -0.038060918072 0.08181203  0.00104223  0.0311411   0.010367303
  7  -3052.7671362754  -0.032952821300 0.03124646  0.00032687  0.0298926   0.011638248
  8  -3052.7809592169  -0.013822941448 0.03455552  0.00036487  0.0157341   0.008787543
  9  -3052.7973566396  -0.016397422687 0.02830985  0.00022583  0.0256275   0.003866385
 10  -3052.8020678617  -0.004711222158 0.02222114  0.00017796  0.0216101   0.004066002
 11  -3052.8080504084  -0.005982546637 0.01716769  0.00016278  0.0163787   0.002232040
 12  -3052.8122226296  -0.004172221267 0.03547925  0.00033714  0.0185887   0.002399105
 13  -3052.8210140050  -0.008791375336 0.02515630  0.00024588  0.0145529   0.001858933
 14  -3052.8251985680  -0.004184563040 0.05760773  0.00041394  0.0130472   0.003442078
 15  -3052.8319663538  -0.006767785785 0.02680535  0.00011337  0.0043114   0.001522127
 16  -3052.8321800216  -0.000213667809 0.01418084  0.00015337  0.0085634   0.002422101
 17  -3052.8341584868  -0.001978465203 0.02167553  0.00012153  0.0042154   0.000763126
 18  -3052.8350086729  -0.000850186049 0.02077199  0.00013196  0.0048835   0.000977508
 19  -3052.8359943793  -0.000985706470 0.00812907  0.00005309  0.0054908   0.000829249
               *** Restarting incremental Fock matrix formation ***
                             ****Resetting KDIIS****
 20  -3052.8364359565  -0.000441577195 0.00134549  0.00000893  0.0059317   0.000713213
 21  -3052.8365166085  -0.000080651933 0.00303497  0.00001892  0.0060130   0.000654676
 22  -3052.8366855970  -0.000168988582 0.00295432  0.00001985  0.0062023   0.000633032
 23  -3052.8365213400   0.000164257092 0.03471461  0.00022211  0.0060002   0.000703409
 24  -3052.8348023781   0.001718961836 0.01102043  0.00006307  0.0032072   0.000576950
 25  -3052.8346222289   0.000180149229 0.00888903  0.00007542  0.0028938   0.000887658
 26  -3052.8345179518   0.000104277065 0.00666138  0.00004968  0.0032173   0.000516959
 27  -3052.8345593129  -0.000041361123 0.01768569  0.00010290  0.0029612   0.000736312
 28  -3052.8348591411  -0.000299828168 0.00552370  0.00004973  0.0032241   0.000615422
 29  -3052.8349601081  -0.000100967001 0.01135271  0.00006997  0.0030189   0.000422714
 30  -3052.8352205003  -0.000260392223 0.00553873  0.00003951  0.0030825   0.000390332
 31  -3052.8353939473  -0.000173446972 0.00723820  0.00005301  0.0030119   0.000327561
 32  -3052.8356299791  -0.000236031807 0.00314666  0.00002498  0.0030174   0.000324543
 33  -3052.8357462018  -0.000116222699 0.00303161  0.00002295  0.0029680   0.000312378
 34  -3052.8358520072  -0.000105805384 0.00125031  0.00000641  0.0029909   0.000295474
 35  -3052.8358559777  -0.000003970491 0.00177334  0.00001371  0.0029903   0.000306139
 36  -3052.8359202159  -0.000064238207 0.00051651  0.00000391  0.0030083   0.000314902
 37  -3052.8359040611   0.000016154782 0.00088141  0.00000474  0.0029966   0.000311132
 38  -3052.8358934014   0.000010659698 0.00074826  0.00000769  0.0029935   0.000338772
 39  -3052.8358615162   0.000031885258 0.00253202  0.00002047  0.0029714   0.000338511
               *** Restarting incremental Fock matrix formation ***
                             ****Resetting KDIIS****
 40  -3052.8357641473   0.000097368900 0.00040294  0.00000356  0.0030583   0.000369288
 41  -3052.8357806974  -0.000016550187 0.00090676  0.00000723  0.0030337   0.000316347
 42  -3052.8358179441  -0.000037246693 0.00086793  0.00000743  0.0030159   0.000306009
 43  -3052.8358552920  -0.000037347866 0.00867969  0.00006948  0.0029795   0.000301007
 44  -3052.8355069504   0.000348341622 0.00254456  0.00001923  0.0030562   0.000281552
 45  -3052.8355391217  -0.000032171315 0.00195743  0.00001615  0.0029958   0.000346347
 46  -3052.8354949582   0.000044163535 0.00483555  0.00003605  0.0030627   0.000283979
 47  -3052.8355408419  -0.000045883705 0.01721010  0.00017229  0.0030563   0.000326896
 48  -3052.8362346152  -0.000693773353 0.00855715  0.00008736  0.0027945   0.000402748
 49  -3052.8359244884   0.000310126805 0.00950021  0.00010160  0.0029396   0.000362693
 50  -3052.8363463628  -0.000421874378 0.00462131  0.00004791  0.0028671   0.000294649
 51  -3052.8365370561  -0.000190693299 0.00529709  0.00005716  0.0027061   0.000232379
 52  -3052.8367724794  -0.000235423344 0.00378397  0.00003795  0.0026033   0.000218509
 53  -3052.8369323345  -0.000159855013 0.00553293  0.00005569  0.0025089   0.000224920
 54  -3052.8371552160  -0.000222881525 0.00262613  0.00002262  0.0023217   0.000222488
 55  -3052.8372518322  -0.000096616212 0.00136540  0.00000990  0.0022861   0.000206088
 56  -3052.8372713594  -0.000019527163 0.00061185  0.00000653  0.0022617   0.000208189
 57  -3052.8372857293  -0.000014369935 0.00312750  0.00002410  0.0022389   0.000216068
 58  -3052.8372438851   0.000041844142 0.00261614  0.00003095  0.0022625   0.000221032
 59  -3052.8373208746  -0.000076989402 0.00276921  0.00003205  0.0022243   0.000207958
               *** Restarting incremental Fock matrix formation ***
                             ****Resetting KDIIS****
 60  -3052.8374306033  -0.000109728715 0.00023686  0.00000239  0.0021373   0.000258796
 61  -3052.8374388296  -0.000008226338 0.00054125  0.00000472  0.0021180   0.000218388
 62  -3052.8374559001  -0.000017070546 0.00123991  0.00001026  0.0021041   0.000207874
 63  -3052.8374911767  -0.000035276503 0.00271700  0.00002181  0.0020677   0.000195534
 64  -3052.8375668607  -0.000075684058 0.00078754  0.00000583  0.0019965   0.000188886
 65  -3052.8375480933   0.000018767371 0.00199628  0.00001387  0.0020082   0.000196766
 66  -3052.8375035894   0.000044503964 0.00267594  0.00002129  0.0020602   0.000192468
 67  -3052.8375332425  -0.000029653085 0.00735979  0.00005948  0.0019895   0.000251456
 68  -3052.8376176339  -0.000084391450 0.00491029  0.00003805  0.0018433   0.000321758
 69  -3052.8375693758   0.000048258096 0.00741917  0.00005639  0.0019654   0.000310938
 70  -3052.8376765687  -0.000107192875 0.00489040  0.00003883  0.0019121   0.000305689
 71  -3052.8377587257  -0.000082157036 0.00302896  0.00002593  0.0017367   0.000213876
 72  -3052.8377299533   0.000028772455 0.00493828  0.00003551  0.0017182   0.000244778
 73  -3052.8378099389  -0.000079985601 0.00096896  0.00000912  0.0016777   0.000184801
 74  -3052.8378399095  -0.000029970585 0.00250543  0.00001850  0.0016526   0.000163623
 75  -3052.8378806290  -0.000040719538 0.00066384  0.00000693  0.0015746   0.000201669
 76  -3052.8378927260  -0.000012096978 0.00072139  0.00000517  0.0015153   0.000189468
 77  -3052.8379080381  -0.000015312120 0.00348371  0.00002855  0.0015614   0.000149759
 78  -3052.8379794727  -0.000071434574 0.00064259  0.00000708  0.0014798   0.000186748
 79  -3052.8379682499   0.000011222719 0.00070566  0.00000593  0.0014587   0.000157223
               *** Restarting incremental Fock matrix formation ***
                             ****Resetting KDIIS****
 80  -3052.8379759103  -0.000007660313 0.00011683  0.00000121  0.0014399   0.000143717
 81  -3052.8379800686  -0.000004158314 0.00033920  0.00000259  0.0014408   0.000128493
 82  -3052.8379867565  -0.000006687877 0.00096096  0.00000715  0.0014311   0.000123995
 83  -3052.8380052780  -0.000018521571 0.01019013  0.00007280  0.0014145   0.000121035
 84  -3052.8381734923  -0.000168214321 0.00061112  0.00000392  0.0011568   0.000130095
 85  -3052.8381836288  -0.000010136492 0.00219201  0.00001758  0.0011487   0.000116436
 86  -3052.8381454948   0.000038133995 0.00057733  0.00000686  0.0012121   0.000115035
 87  -3052.8381575622  -0.000012067317 0.00068823  0.00000629  0.0011741   0.000154637
 88  -3052.8381645404  -0.000006978267 0.00463865  0.00002890  0.0011390   0.000160822
 89  -3052.8382347724  -0.000070232005 0.00015927  0.00000110  0.0011088   0.000134836
 90  -3052.8382366413  -0.000001868840 0.00107626  0.00000855  0.0011021   0.000133978
 91  -3052.8382161926   0.000020448711 0.00036024  0.00000280  0.0011242   0.000141527
 92  -3052.8382120337   0.000004158818 0.00283798  0.00001947  0.0011379   0.000130080
 93  -3052.8382568873  -0.000044853512 0.00318749  0.00002902  0.0010829   0.000165033
 94  -3052.8381897154   0.000067171888 0.00258171  0.00001830  0.0011154   0.000186509
 95  -3052.8382370975  -0.000047382091 0.00830002  0.00004763  0.0011114   0.000130391
 96  -3052.8381364400   0.000100657460 0.00282256  0.00001823  0.0012088   0.000167452
 97  -3052.8381108239   0.000025616082 0.00097653  0.00001096  0.0012268   0.000119718
 98  -3052.8381270007  -0.000016176768 0.00070999  0.00000598  0.0011807   0.000145667
 99  -3052.8381425952  -0.000015594478 0.00165563  0.00001029  0.0011570   0.000142803
               *** Restarting incremental Fock matrix formation ***
                             ****Resetting KDIIS****
100  -3052.8381355701   0.000007025053 0.00014619  0.00000126  0.0012343   0.000160709
                          ***Energy convergence achieved***
101  -3052.8381364650  -0.000000894852 0.00025532  0.00000199  0.0012093   0.000118694
102  -3052.8381402785  -0.000003813581 0.00085879  0.00000694  0.0011973   0.000110612
103  -3052.8381532826  -0.000013004050 0.01634757  0.00012383  0.0011636   0.000102531
104  -3052.8383662696  -0.000212987035 0.00071662  0.00000458  0.0007355   0.000109512
105  -3052.8383736120  -0.000007342369 0.00193180  0.00002072  0.0007534   0.000087970
106  -3052.8383475904   0.000026021597 0.00135403  0.00001237  0.0007564   0.000085622
107  -3052.8383618745  -0.000014284133 0.00249431  0.00001664  0.0007456   0.000127487
108  -3052.8383412223   0.000020652238 0.01024329  0.00008254  0.0008047   0.000139115
109  -3052.8384418548  -0.000100632484 0.00069395  0.00000482  0.0008604   0.000115971
110  -3052.8384435446  -0.000001689827 0.00278448  0.00002163  0.0008816   0.000137716
111  -3052.8384653507  -0.000021806138 0.00505620  0.00004709  0.0009669   0.000120016
112  -3052.8384253593   0.000039991409 0.00145099  0.00001441  0.0009235   0.000088636
113  -3052.8384305198  -0.000005160477 0.00244329  0.00001451  0.0008730   0.000169439
114  -3052.8384588800  -0.000028360200 0.00093916  0.00000686  0.0010437   0.000159774
115  -3052.8384668920  -0.000008011977 0.00111024  0.00001166  0.0010666   0.000130649
116  -3052.8384568265   0.000010065521 0.00194856  0.00001446  0.0010642   0.000116383
117  -3052.8384381702   0.000018656218 0.00078933  0.00000703  0.0010075   0.000124080
118  -3052.8384249293   0.000013240931 0.00628281  0.00004093  0.0009632   0.000204970
119  -3052.8383579852   0.000066944133 0.00462874  0.00002892  0.0006687   0.000296835
               *** Restarting incremental Fock matrix formation ***
                             ****Resetting KDIIS****
120  -3052.8384170086  -0.000059023466 0.00019168  0.00000168  0.0009525   0.000199096
121  -3052.8384186562  -0.000001647508 0.00039679  0.00000244  0.0009518   0.000136898
122  -3052.8384225501  -0.000003893960 0.00046976  0.00000314  0.0009765   0.000120918
123  -3052.8384276195  -0.000005069382 0.01021734  0.00006189  0.0010039   0.000109606
124  -3052.8383597947   0.000067824789 0.00084240  0.00000580  0.0006106   0.000108565
                          ***Energy convergence achieved***
125  -3052.8383595402   0.000000254530 0.00102602  0.00000776  0.0006298   0.000057023
126  -3052.8383644163  -0.000004876105 0.00026575  0.00000311  0.0006125   0.000058656
127  -3052.8383683876  -0.000003971283 0.00167235  0.00001809  0.0006012   0.000057655
128  -3052.8383855095  -0.000017121899 0.00273162  0.00003462  0.0005173   0.000083263
129  -3052.8384229787  -0.000037469279 0.00111983  0.00001776  0.0004224   0.000063752
130  -3052.8384368336  -0.000013854866 0.00044547  0.00000605  0.0003409   0.000076781
131  -3052.8384427138  -0.000005880209 0.00045065  0.00000536  0.0003679   0.000070524
132  -3052.8384476539  -0.000004940106 0.00052335  0.00000658  0.0003756   0.000048360
                           ***RMSP convergence achieved***
133  -3052.8384417506   0.000005903373 0.00004032  0.00000030  0.0003679   0.000045660
                          ***Energy convergence achieved***
134  -3052.8384419187  -0.000000168178 0.00047297  0.00000552  0.0003681   0.000043454
135  -3052.8384473542  -0.000005435511 0.00011860  0.00000156  0.0003851   0.000047458
136  -3052.8384459202   0.000001434023 0.00019857  0.00000263  0.0003824   0.000046432
137  -3052.8384435464   0.000002373845 0.00030543  0.00000374  0.0003752   0.000046854
138  -3052.8384403682   0.000003178153 0.00074692  0.00000775  0.0003624   0.000047210
139  -3052.8384335044   0.000006863829 0.00021470  0.00000137  0.0003603   0.000044037
               *** Restarting incremental Fock matrix formation ***
                             ****Resetting KDIIS****
                          ***Energy convergence achieved***
                           ***RMSP convergence achieved***
140  -3052.8384331895   0.000000314914 0.00003424  0.00000043  0.0003569   0.000047435

            ***Energy convergence in two consecutive cycles with***
                    ***'reasonable' density convergence***
                       *** signaling convergence ***

                    *** KDIIS BlockDiag ( 0.262 sec) ***

               *****************************************************
               *                     SUCCESS                       *
               *           SCF CONVERGED AFTER 141 CYCLES          *
               *****************************************************


----------------
TOTAL SCF ENERGY
----------------

Total Energy       :        -3052.83843400 Eh          -83071.95709 eV

Components:
Nuclear Repulsion  :         5576.15426613 Eh          151734.87163 eV
Electronic Energy  :        -8628.99270014 Eh         -234806.82872 eV
One Electron Energy:       -16070.65999436 Eh         -437304.89060 eV
Two Electron Energy:         7441.66729423 Eh          202498.06188 eV

Virial components:
Potential Energy   :        -4844.23329930 Eh         -131818.28959 eV
Kinetic Energy     :         1791.39486530 Eh           48746.33250 eV
Virial Ratio       :            2.70416835


DFT components:
N(Alpha)           :      147.999984247096 electrons
N(Beta)            :      142.999977906252 electrons
N(Total)           :      290.999962153348 electrons
E(X)               :     -221.072268076284 Eh       
E(C)               :      -12.053752842100 Eh       
E(XC)              :     -233.126020918384 Eh       
DFET-embed. en.    :        0.000000000000 Eh       

---------------
SCF CONVERGENCE
---------------

  Last Energy change         ...   -8.1306e-07  Tolerance :   1.0000e-06
  Last MAX-Density change    ...    7.5706e-05  Tolerance :   1.0000e-05
  Last RMS-Density change    ...    9.4063e-07  Tolerance :   1.0000e-06

             **** THE GBW FILE WAS UPDATED (scan.gbw) ****
             **** DENSITY scan.scfp WAS UPDATED ****
             **** ENERGY FILE WAS UPDATED (scan.en.tmp) ****
----------------------
UHF SPIN CONTAMINATION
----------------------

Warning: in a DFT calculation there is little theoretical justification to 
         calculate <S**2> as in Hartree-Fock theory. We will do it anyways
         but you should keep in mind that the values have only limited relevance

Expectation value of <S**2>     :     9.696823
Ideal value S*(S+1) for S=2.5   :     8.750000
Deviation                       :     0.946823

             **** THE GBW FILE WAS UPDATED (scan.gbw) ****
             **** DENSITY scan.scfp WAS UPDATED ****
----------------
ORBITAL ENERGIES
----------------
                 SPIN UP ORBITALS
  NO   OCC          E(Eh)            E(eV) 
   0   1.0000    -235.055496     -6396.1852 
   1   1.0000     -27.232556      -741.0355 
   2   1.0000     -23.280374      -633.4912 
   3   1.0000     -23.278286      -633.4344 
   4   1.0000     -23.278111      -633.4296 
   5   1.0000      -4.128939      -112.3541 
   6   1.0000      -4.128546      -112.3434 
   7   1.0000      -4.127721      -112.3210 
   8   1.0000      -4.127067      -112.3032 
   9   1.0000      -4.126448      -112.2863 
  10   1.0000      -4.123692      -112.2114 
  11   1.0000      -4.123111      -112.1956 
  12   1.0000      -4.122265      -112.1725 
  13   1.0000      -4.119879      -112.1076 
  14   1.0000      -4.117729      -112.0491 
  15   1.0000      -4.117107      -112.0322 
  16   1.0000      -4.111710      -111.8853 
  17   1.0000      -4.111084      -111.8683 
  18   1.0000      -4.109696      -111.8305 
  19   1.0000      -3.258545       -88.6695 
  20   1.0000      -2.318835       -63.0987 
  21   1.0000      -2.318226       -63.0821 
  22   1.0000      -2.318084       -63.0783 
  23   1.0000      -2.317798       -63.0705 
  24   1.0000      -2.315170       -62.9990 
  25   1.0000      -2.314824       -62.9896 
  26   1.0000      -2.314567       -62.9826 
  27   1.0000      -2.313621       -62.9568 
  28   1.0000      -2.312579       -62.9285 
  29   1.0000      -2.312056       -62.9143 
  30   1.0000      -2.311852       -62.9087 
  31   1.0000      -2.311626       -62.9025 
  32   1.0000      -2.311031       -62.8863 
  33   1.0000      -2.310735       -62.8783 
  34   1.0000      -2.310361       -62.8681 
  35   1.0000      -2.309839       -62.8539 
  36   1.0000      -2.309459       -62.8436 
  37   1.0000      -2.309364       -62.8410 
  38   1.0000      -2.309237       -62.8375 
  39   1.0000      -2.307829       -62.7992 
  40   1.0000      -2.307605       -62.7931 
  41   1.0000      -2.307522       -62.7909 
  42   1.0000      -2.305892       -62.7465 
  43   1.0000      -2.305760       -62.7429 
  44   1.0000      -2.305467       -62.7349 
  45   1.0000      -2.305183       -62.7272 
  46   1.0000      -2.304726       -62.7148 
  47   1.0000      -2.304565       -62.7104 
  48   1.0000      -2.304117       -62.6982 
  49   1.0000      -2.301946       -62.6391 
  50   1.0000      -2.301309       -62.6218 
  51   1.0000      -2.301027       -62.6141 
  52   1.0000      -2.300377       -62.5964 
  53   1.0000      -2.299932       -62.5843 
  54   1.0000      -2.299739       -62.5791 
  55   1.0000      -2.297664       -62.5226 
  56   1.0000      -2.297078       -62.5067 
  57   1.0000      -2.295993       -62.4772 
  58   1.0000      -2.295699       -62.4691 
  59   1.0000      -2.293911       -62.4205 
  60   1.0000      -2.292543       -62.3833 
  61   1.0000      -2.292131       -62.3721 
  62   1.0000      -2.117537       -57.6211 
  63   1.0000      -2.114125       -57.5283 
  64   1.0000      -2.113686       -57.5163 
  65   1.0000      -0.438045       -11.9198 
  66   1.0000      -0.401703       -10.9309 
  67   1.0000      -0.399221       -10.8634 
  68   1.0000      -0.395629       -10.7656 
  69   1.0000      -0.392371       -10.6770 
  70   1.0000      -0.387570       -10.5463 
  71   1.0000      -0.377573       -10.2743 
  72   1.0000      -0.377317       -10.2673 
  73   1.0000      -0.375801       -10.2261 
  74   1.0000      -0.372456       -10.1350 
  75   1.0000      -0.372020       -10.1232 
  76   1.0000      -0.367931       -10.0119 
  77   1.0000      -0.365358        -9.9419 
  78   1.0000      -0.363611        -9.8944 
  79   1.0000      -0.360406        -9.8071 
  80   1.0000      -0.359345        -9.7783 
  81   1.0000      -0.357849        -9.7376 
  82   1.0000      -0.355813        -9.6822 
  83   1.0000      -0.352475        -9.5913 
  84   1.0000      -0.352167        -9.5830 
  85   1.0000      -0.349733        -9.5167 
  86   1.0000      -0.348990        -9.4965 
  87   1.0000      -0.344625        -9.3777 
  88   1.0000      -0.340945        -9.2776 
  89   1.0000      -0.340686        -9.2705 
  90   1.0000      -0.339815        -9.2468 
  91   1.0000      -0.336742        -9.1632 
  92   1.0000      -0.335867        -9.1394 
  93   1.0000      -0.332914        -9.0590 
  94   1.0000      -0.329939        -8.9781 
  95   1.0000      -0.329571        -8.9681 
  96   1.0000      -0.325793        -8.8653 
  97   1.0000      -0.321508        -8.7487 
  98   1.0000      -0.320276        -8.7152 
  99   1.0000      -0.316903        -8.6234 
 100   1.0000      -0.315082        -8.5738 
 101   1.0000      -0.310103        -8.4383 
 102   1.0000      -0.306126        -8.3301 
 103   1.0000      -0.300713        -8.1828 
 104   1.0000      -0.300579        -8.1792 
 105   1.0000      -0.299555        -8.1513 
 106   1.0000      -0.298351        -8.1185 
 107   1.0000      -0.295793        -8.0489 
 108   1.0000      -0.295087        -8.0297 
 109   1.0000      -0.294104        -8.0030 
 110   1.0000      -0.290354        -7.9009 
 111   1.0000      -0.288865        -7.8604 
 112   1.0000      -0.287923        -7.8348 
 113   1.0000      -0.287324        -7.8185 
 114   1.0000      -0.287157        -7.8139 
 115   1.0000      -0.283367        -7.7108 
 116   1.0000      -0.283284        -7.7086 
 117   1.0000      -0.282684        -7.6922 
 118   1.0000      -0.280793        -7.6408 
 119   1.0000      -0.279047        -7.5933 
 120   1.0000      -0.277564        -7.5529 
 121   1.0000      -0.277049        -7.5389 
 122   1.0000      -0.275450        -7.4954 
 123   1.0000      -0.274874        -7.4797 
 124   1.0000      -0.274163        -7.4604 
 125   1.0000      -0.270807        -7.3690 
 126   1.0000      -0.270105        -7.3499 
 127   1.0000      -0.269314        -7.3284 
 128   1.0000      -0.268621        -7.3096 
 129   1.0000      -0.267081        -7.2676 
 130   1.0000      -0.266277        -7.2458 
 131   1.0000      -0.266058        -7.2398 
 132   1.0000      -0.265419        -7.2224 
 133   1.0000      -0.262116        -7.1326 
 134   1.0000      -0.261531        -7.1166 
 135   1.0000      -0.260978        -7.1016 
 136   1.0000      -0.259763        -7.0685 
 137   1.0000      -0.257149        -6.9974 
 138   1.0000      -0.256886        -6.9902 
 139   1.0000      -0.253766        -6.9053 
 140   1.0000      -0.252673        -6.8756 
 141   1.0000      -0.250820        -6.8252 
 142   1.0000      -0.245817        -6.6890 
 143   1.0000      -0.239347        -6.5130 
 144   1.0000      -0.217636        -5.9222 
 145   1.0000      -0.215849        -5.8735 
 146   1.0000      -0.208904        -5.6846 
 147   1.0000      -0.201101        -5.4722 
 148   0.0000      -0.167430        -4.5560 
 149   0.0000      -0.138005        -3.7553 
 150   0.0000      -0.137800        -3.7497 
 151   0.0000      -0.130169        -3.5421 
 152   0.0000      -0.115899        -3.1538 
 153   0.0000      -0.114038        -3.1031 
 154   0.0000      -0.108997        -2.9660 
 155   0.0000      -0.072914        -1.9841 
 156   0.0000      -0.064976        -1.7681 
 157   0.0000      -0.063079        -1.7165 
 158   0.0000      -0.059694        -1.6244 
 159   0.0000      -0.051219        -1.3937 
 160   0.0000      -0.033415        -0.9093 
 161   0.0000      -0.028458        -0.7744 
 162   0.0000      -0.018472        -0.5027 
 163   0.0000      -0.008461        -0.2302 
 164   0.0000      -0.003957        -0.1077 
 165   0.0000       0.005431         0.1478 
 166   0.0000       0.010325         0.2810 
 167   0.0000       0.021576         0.5871 
 168   0.0000       0.028985         0.7887 
 169   0.0000       0.035181         0.9573 
 170   0.0000       0.036056         0.9811 
 171   0.0000       0.043408         1.1812 
 172   0.0000       0.052199         1.4204 
 173   0.0000       0.052828         1.4375 
 174   0.0000       0.059567         1.6209 
 175   0.0000       0.068546         1.8652 
 176   0.0000       0.069798         1.8993 
 177   0.0000       0.078932         2.1478 
 178   0.0000       0.080230         2.1832 
 179   0.0000       0.084152         2.2899 
 180   0.0000       0.086452         2.3525 
 181   0.0000       0.087379         2.3777 
 182   0.0000       0.095955         2.6111 
 183   0.0000       0.098219         2.6727 
 184   0.0000       0.098541         2.6814 
 185   0.0000       0.102038         2.7766 
 186   0.0000       0.108457         2.9513 
 187   0.0000       0.110042         2.9944 
 188   0.0000       0.121908         3.3173 
 189   0.0000       0.128924         3.5082 
 190   0.0000       0.131659         3.5826 
 191   0.0000       0.134991         3.6733 
 192   0.0000       0.144265         3.9256 
 193   0.0000       0.149074         4.0565 
 194   0.0000       0.155026         4.2185 
 195   0.0000       0.157295         4.2802 
 196   0.0000       0.166032         4.5180 
 197   0.0000       0.166974         4.5436 
 198   0.0000       0.173179         4.7125 
 199   0.0000       0.175812         4.7841 
 200   0.0000       0.178310         4.8521 
 201   0.0000       0.178506         4.8574 
 202   0.0000       0.182370         4.9625 
 203   0.0000       0.184386         5.0174 
 204   0.0000       0.188577         5.1315 
 205   0.0000       0.193883         5.2758 
 206   0.0000       0.213545         5.8109 
 207   0.0000       0.215061         5.8521 
 208   0.0000       0.218214         5.9379 
 209   0.0000       0.225884         6.1466 
 210   0.0000       0.233132         6.3438 
 211   0.0000       0.235927         6.4199 
 212   0.0000       0.239239         6.5100 
 213   0.0000       0.243412         6.6236 
 214   0.0000       0.249528         6.7900 
 215   0.0000       0.252159         6.8616 
 216   0.0000       0.256222         6.9721 
 217   0.0000       0.262264         7.1366 
 218   0.0000       0.271859         7.3977 
 219   0.0000       0.274670         7.4742 
 220   0.0000       0.278013         7.5651 
 221   0.0000       0.288185         7.8419 
 222   0.0000       0.290797         7.9130 
 223   0.0000       0.297159         8.0861 
 224   0.0000       0.303368         8.2551 
 225   0.0000       0.305196         8.3048 
 226   0.0000       0.305885         8.3236 
 227   0.0000       0.315519         8.5857 
 228   0.0000       0.318345         8.6626 
 229   0.0000       0.322698         8.7811 
 230   0.0000       0.322811         8.7841 
 231   0.0000       0.333269         9.0687 
 232   0.0000       0.334207         9.0942 
 233   0.0000       0.338611         9.2141 
 234   0.0000       0.340750         9.2723 
 235   0.0000       0.341553         9.2941 
 236   0.0000       0.348217         9.4755 
 237   0.0000       0.350993         9.5510 
 238   0.0000       0.359284         9.7766 
 239   0.0000       0.361564         9.8386 
 240   0.0000       0.365800         9.9539 
 241   0.0000       0.376345        10.2409 
 242   0.0000       0.378964        10.3121 
 243   0.0000       0.380724        10.3600 
 244   0.0000       0.384146        10.4531 
 245   0.0000       0.384645        10.4667 
 246   0.0000       0.387455        10.5432 
 247   0.0000       0.398507        10.8439 
 248   0.0000       0.398727        10.8499 
 249   0.0000       0.408959        11.1283 
 250   0.0000       0.412111        11.2141 
 251   0.0000       0.422159        11.4875 
 252   0.0000       0.424912        11.5624 
 253   0.0000       0.436607        11.8807 
 254   0.0000       0.438839        11.9414 
 255   0.0000       0.439461        11.9583 
 256   0.0000       0.443130        12.0582 
 257   0.0000       0.447081        12.1657 
 258   0.0000       0.459668        12.5082 
 259   0.0000       0.460400        12.5281 
 260   0.0000       0.467443        12.7198 
 261   0.0000       0.470282        12.7970 
 262   0.0000       0.475323        12.9342 
 263   0.0000       0.479411        13.0454 
 264   0.0000       0.483709        13.1624 
 265   0.0000       0.486937        13.2502 
 266   0.0000       0.491214        13.3666 
 267   0.0000       0.496560        13.5121 
 268   0.0000       0.496836        13.5196 
 269   0.0000       0.503580        13.7031 
 270   0.0000       0.507759        13.8168 
 271   0.0000       0.518566        14.1109 
 272   0.0000       0.520070        14.1518 
 273   0.0000       0.523724        14.2512 
 274   0.0000       0.525230        14.2922 
 275   0.0000       0.525435        14.2978 
 276   0.0000       0.531212        14.4550 
 277   0.0000       0.539098        14.6696 
 278   0.0000       0.546745        14.8777 
 279   0.0000       0.549897        14.9635 
 280   0.0000       0.552416        15.0320 
 281   0.0000       0.557057        15.1583 
 282   0.0000       0.562147        15.2968 
 283   0.0000       0.564576        15.3629 
 284   0.0000       0.568084        15.4584 
 285   0.0000       0.570396        15.5213 
 286   0.0000       0.581448        15.8220 
 287   0.0000       0.590403        16.0657 
 288   0.0000       0.607671        16.5356 
 289   0.0000       0.608427        16.5561 
 290   0.0000       0.634712        17.2714 
 291   0.0000       0.653744        17.7893 
 292   0.0000       0.674053        18.3419 
 293   0.0000       0.677869        18.4457 
 294   0.0000       0.693546        18.8723 
 295   0.0000       0.695370        18.9220 
 296   0.0000       0.716409        19.4945 
 297   0.0000       0.727337        19.7918 
 298   0.0000       0.736788        20.0490 
 299   0.0000       0.742387        20.2014 
 300   0.0000       0.751152        20.4399 
 301   0.0000       0.758276        20.6337 
 302   0.0000       0.770955        20.9788 
 303   0.0000       0.783710        21.3258 
 304   0.0000       0.785502        21.3746 
 305   0.0000       0.793357        21.5883 
 306   0.0000       0.801451        21.8086 
 307   0.0000       0.801995        21.8234 
 308   0.0000       0.824306        22.4305 
 309   0.0000       0.839223        22.8364 
 310   0.0000       0.843553        22.9542 
 311   0.0000       0.849432        23.1142 
 312   0.0000       0.857753        23.3406 
 313   0.0000       0.863580        23.4992 
 314   0.0000       0.880279        23.9536 
 315   0.0000       0.886763        24.1301 
 316   0.0000       0.906896        24.6779 
 317   0.0000       0.915034        24.8993 
 318   0.0000       0.917051        24.9542 
 319   0.0000       0.917173        24.9575 
 320   0.0000       0.917859        24.9762 
 321   0.0000       0.929731        25.2993 
 322   0.0000       0.935385        25.4531 
 323   0.0000       0.941622        25.6228 
 324   0.0000       0.944770        25.7085 
 325   0.0000       0.964421        26.2432 
 326   0.0000       0.970938        26.4206 
 327   0.0000       0.974649        26.5216 
 328   0.0000       0.984551        26.7910 
 329   0.0000       1.014005        27.5925 
 330   0.0000       1.017806        27.6959 
 331   0.0000       1.048443        28.5296 
 332   0.0000       1.061973        28.8978 
 333   0.0000       1.092475        29.7278 
 334   0.0000       1.202430        32.7198 
 335   0.0000       1.218343        33.1528 
 336   0.0000       1.233798        33.5734 
 337   0.0000       1.268037        34.5050 
 338   0.0000       1.272112        34.6159 
 339   0.0000       1.273977        34.6667 
 340   0.0000       1.283035        34.9132 
 341   0.0000       1.301612        35.4187 
 342   0.0000       1.307453        35.5776 
 343   0.0000       1.313804        35.7504 
 344   0.0000       1.331492        36.2317 
 345   0.0000       1.335484        36.3404 
 346   0.0000       1.340762        36.4840 
 347   0.0000       1.343222        36.5509 
 348   0.0000       1.357534        36.9404 
 349   0.0000       1.369382        37.2628 
 350   0.0000       1.376816        37.4651 
 351   0.0000       1.380686        37.5704 
 352   0.0000       1.381387        37.5895 
 353   0.0000       1.399037        38.0697 
 354   0.0000       1.407338        38.2956 
 355   0.0000       1.413336        38.4588 
 356   0.0000       1.418313        38.5943 
 357   0.0000       1.421384        38.6778 
 358   0.0000       1.430169        38.9169 
 359   0.0000       1.438329        39.1389 
 360   0.0000       1.445989        39.3474 
 361   0.0000       1.448402        39.4130 
 362   0.0000       1.453102        39.5409 
 363   0.0000       1.456552        39.6348 
 364   0.0000       1.461261        39.7629 
 365   0.0000       1.463259        39.8173 
 366   0.0000       1.464262        39.8446 
 367   0.0000       1.471073        40.0299 
 368   0.0000       1.474127        40.1130 
 369   0.0000       1.474780        40.1308 
 370   0.0000       1.478737        40.2385 
 371   0.0000       1.481593        40.3162 
 372   0.0000       1.487187        40.4684 
 373   0.0000       1.497167        40.7400 
 374   0.0000       1.498329        40.7716 
 375   0.0000       1.505567        40.9686 
 376   0.0000       1.506219        40.9863 
 377   0.0000       1.507561        41.0228 
 378   0.0000       1.517295        41.2877 
 379   0.0000       1.523674        41.4613 
 380   0.0000       1.524571        41.4857 
 381   0.0000       1.525515        41.5114 
 382   0.0000       1.526288        41.5324 
 383   0.0000       1.533474        41.7279 
 384   0.0000       1.533671        41.7333 
 385   0.0000       1.536127        41.8001 
 386   0.0000       1.541441        41.9447 
 387   0.0000       1.541695        41.9517 
 388   0.0000       1.544796        42.0360 
 389   0.0000       1.546020        42.0693 
 390   0.0000       1.548000        42.1232 
 391   0.0000       1.548966        42.1495 
 392   0.0000       1.550246        42.1843 
 393   0.0000       1.553779        42.2805 
 394   0.0000       1.554637        42.3038 
 395   0.0000       1.556379        42.3512 
 396   0.0000       1.557239        42.3746 
 397   0.0000       1.559565        42.4379 
 398   0.0000       1.560745        42.4700 
 399   0.0000       1.560789        42.4712 
 400   0.0000       1.564435        42.5704 
 401   0.0000       1.565189        42.5910 
 402   0.0000       1.565422        42.5973 
 403   0.0000       1.569700        42.7137 
 404   0.0000       1.570086        42.7242 
 405   0.0000       1.571378        42.7594 
 406   0.0000       1.571875        42.7729 
 407   0.0000       1.573575        42.8191 
 408   0.0000       1.574212        42.8365 
 409   0.0000       1.576254        42.8920 
 410   0.0000       1.577739        42.9325 
 411   0.0000       1.580458        43.0065 
 412   0.0000       1.581561        43.0365 
 413   0.0000       1.582397        43.0592 
 414   0.0000       1.582811        43.0705 
 415   0.0000       1.584971        43.1293 
 416   0.0000       1.586326        43.1661 
 417   0.0000       1.587497        43.1980 
 418   0.0000       1.589313        43.2474 
 419   0.0000       1.589505        43.2526 
 420   0.0000       1.592570        43.3360 
 421   0.0000       1.593268        43.3550 
 422   0.0000       1.594175        43.3797 
 423   0.0000       1.595239        43.4087 
 424   0.0000       1.596722        43.4490 
 425   0.0000       1.599134        43.5147 
 426   0.0000       1.602070        43.5945 
 427   0.0000       1.602137        43.5964 
 428   0.0000       1.603186        43.6249 
 429   0.0000       1.609642        43.8006 
 430   0.0000       1.612725        43.8845 
 431   0.0000       1.614340        43.9284 
 432   0.0000       1.615759        43.9670 
 433   0.0000       1.616828        43.9961 
 434   0.0000       1.617911        44.0256 
 435   0.0000       1.619884        44.0793 
 436   0.0000       1.622604        44.1533 
 437   0.0000       1.626374        44.2559 
 438   0.0000       1.626689        44.2645 
 439   0.0000       1.630449        44.3668 
 440   0.0000       1.633411        44.4474 
 441   0.0000       1.634291        44.4713 
 442   0.0000       1.640018        44.6272 
 443   0.0000       1.640273        44.6341 
 444   0.0000       1.640424        44.6382 
 445   0.0000       1.641097        44.6565 
 446   0.0000       1.646191        44.7951 
 447   0.0000       1.646403        44.8009 
 448   0.0000       1.650234        44.9051 
 449   0.0000       1.651910        44.9507 
 450   0.0000       1.652904        44.9778 
 451   0.0000       1.657581        45.1051 
 452   0.0000       1.658974        45.1430 
 453   0.0000       1.659517        45.1578 
 454   0.0000       1.663574        45.2681 
 455   0.0000       1.667764        45.3822 
 456   0.0000       1.669295        45.4238 
 457   0.0000       1.670468        45.4557 
 458   0.0000       1.672117        45.5006 
 459   0.0000       1.674677        45.5703 
 460   0.0000       1.681066        45.7441 
 461   0.0000       1.682733        45.7895 
 462   0.0000       1.686277        45.8859 
 463   0.0000       1.687900        45.9301 
 464   0.0000       1.694180        46.1010 
 465   0.0000       1.699048        46.2334 
 466   0.0000       1.699362        46.2420 
 467   0.0000       1.707693        46.4687 
 468   0.0000       1.714101        46.6431 
 469   0.0000       1.716947        46.7205 
 470   0.0000       1.722296        46.8661 
 471   0.0000       1.729591        47.0646 
 472   0.0000       1.738039        47.2944 
 473   0.0000       1.745066        47.4857 
 474   0.0000       1.754746        47.7491 
 475   0.0000       1.757387        47.8209 
 476   0.0000       1.766284        48.0630 
 477   0.0000       1.780503        48.4499 
 478   0.0000       1.785448        48.5845 
 479   0.0000       1.801769        49.0286 
 480   0.0000       1.804488        49.1026 
 481   0.0000       1.824374        49.6437 
 482   0.0000       1.829703        49.7887 
 483   0.0000       1.831148        49.8281 
 484   0.0000       1.845895        50.2294 
 485   0.0000       1.852487        50.4087 
 486   0.0000       1.853132        50.4263 
 487   0.0000       1.866628        50.7935 
 488   0.0000       1.879857        51.1535 
 489   0.0000       1.881475        51.1975 
 490   0.0000       1.886828        51.3432 
 491   0.0000       1.904243        51.8171 
 492   0.0000       1.912573        52.0438 
 493   0.0000       1.922881        52.3243 
 494   0.0000       1.929397        52.5016 
 495   0.0000       1.942572        52.8601 
 496   0.0000       1.944389        52.9095 
 497   0.0000       1.959021        53.3077 
 498   0.0000       1.973084        53.6903 
 499   0.0000       1.994813        54.2816 
 500   0.0000       2.005072        54.5608 
 501   0.0000       2.011723        54.7418 
 502   0.0000       2.030220        55.2451 
 503   0.0000       2.077527        56.5324 
 504   0.0000       2.155122        58.6439 
 505   0.0000       2.186970        59.5105 
 506   0.0000       2.257492        61.4295 
 507   0.0000       2.307400        62.7875 
 508   0.0000       2.316117        63.0247 
 509   0.0000       2.358309        64.1728 
 510   0.0000       2.465427        67.0877 
 511   0.0000       2.473352        67.3033 
 512   0.0000       2.484151        67.5972 
 513   0.0000       2.489991        67.7561 
 514   0.0000       2.534697        68.9726 
 515   0.0000       2.542772        69.1923 
 516   0.0000       2.572585        70.0036 
 517   0.0000       2.613964        71.1296 
 518   0.0000       2.614313        71.1391 
 519   0.0000       2.625027        71.4306 
 520   0.0000       2.628771        71.5325 
 521   0.0000       2.673916        72.7610 
 522   0.0000       2.994836        81.4936 
 523   0.0000       3.301345        89.8342 
 524   0.0000       3.304897        89.9308 
 525   0.0000       3.308726        90.0350 
 526   0.0000       3.316797        90.2546 
 527   0.0000       3.317685        90.2788 
 528   0.0000       3.326311        90.5135 
 529   0.0000       3.326625        90.5221 
 530   0.0000       3.390695        92.2655 
 531   0.0000       3.441550        93.6493 
 532   0.0000       3.445440        93.7552 
 533   0.0000       3.528424        96.0133 
 534   0.0000       3.571007        97.1720 
 535   0.0000      23.876447       649.7111 
 536   0.0000      24.051664       654.4790 
 537   0.0000      24.227016       659.2506 
 538   0.0000      24.300318       661.2453 
 539   0.0000      24.506654       666.8600 
 540   0.0000      24.665091       671.1712 
 541   0.0000      24.681277       671.6117 
 542   0.0000      24.821312       675.4222 
 543   0.0000      25.124604       683.6752 
 544   0.0000      25.226168       686.4389 
 545   0.0000      25.298980       688.4202 
 546   0.0000      25.411410       691.4796 
 547   0.0000      25.557233       695.4477 
 548   0.0000      25.686605       698.9681 
 549   0.0000      25.737848       700.3624 
 550   0.0000      25.817785       702.5376 
 551   0.0000      26.124898       710.8946 
 552   0.0000      26.166879       712.0370 
 553   0.0000      26.447927       719.6847 
 554   0.0000      26.463210       720.1006 
 555   0.0000      26.515351       721.5194 
 556   0.0000      26.591314       723.5865 
 557   0.0000      26.676422       725.9023 
 558   0.0000      26.703366       726.6355 
 559   0.0000      26.884905       731.5754 
 560   0.0000      26.999323       734.6889 
 561   0.0000      27.033548       735.6203 
 562   0.0000      27.213560       740.5186 
 563   0.0000      27.275360       742.2003 
 564   0.0000      27.374831       744.9070 
 565   0.0000      27.412313       745.9269 
 566   0.0000      27.556491       749.8502 
 567   0.0000      27.592123       750.8198 
 568   0.0000      27.753698       755.2165 
 569   0.0000      27.890716       758.9450 
 570   0.0000      28.016678       762.3726 
 571   0.0000      28.232405       768.2428 
 572   0.0000      28.318878       770.5958 
 573   0.0000      28.369168       771.9643 
 574   0.0000      29.635753       806.4298 
 575   0.0000      30.520657       830.5093 
 576   0.0000      30.626394       833.3866 
 577   0.0000      44.394275      1208.0296 
 578   0.0000      44.481989      1210.4164 
 579   0.0000      44.525346      1211.5963 
 580   0.0000      44.532592      1211.7934 
 581   0.0000      44.583229      1213.1713 
 582   0.0000      44.595436      1213.5035 
 583   0.0000      44.620702      1214.1910 
 584   0.0000      44.634908      1214.5776 
 585   0.0000      44.650019      1214.9888 
 586   0.0000      44.677789      1215.7444 
 587   0.0000      44.684487      1215.9267 
 588   0.0000      44.701534      1216.3906 
 589   0.0000      44.721070      1216.9222 
 590   0.0000      44.739644      1217.4276 
 591   0.0000     205.252366      5585.2008 
 592   0.0000     205.288669      5586.1887 
 593   0.0000     205.304966      5586.6322 
 594   0.0000     205.306239      5586.6668 
 595   0.0000     205.334594      5587.4384 
 596   0.0000     205.335808      5587.4714 
 597   0.0000     205.347601      5587.7923 
 598   0.0000     205.354984      5587.9932 
 599   0.0000     205.356312      5588.0293 
 600   0.0000     205.370014      5588.4022 
 601   0.0000     205.370777      5588.4229 
 602   0.0000     205.378383      5588.6299 
 603   0.0000     205.386400      5588.8481 
 604   0.0000     205.393953      5589.0536 

                 SPIN DOWN ORBITALS
  NO   OCC          E(Eh)            E(eV) 
   0   1.0000    -235.054532     -6396.1590 
   1   1.0000     -27.141598      -738.5604 
   2   1.0000     -23.210187      -631.5813 
   3   1.0000     -23.208783      -631.5431 
   4   1.0000     -23.208646      -631.5394 
   5   1.0000      -4.128105      -112.3314 
   6   1.0000      -4.127767      -112.3223 
   7   1.0000      -4.126662      -112.2922 
   8   1.0000      -4.126219      -112.2801 
   9   1.0000      -4.125298      -112.2551 
  10   1.0000      -4.122768      -112.1862 
  11   1.0000      -4.122211      -112.1711 
  12   1.0000      -4.121709      -112.1574 
  13   1.0000      -4.118691      -112.0753 
  14   1.0000      -4.116959      -112.0282 
  15   1.0000      -4.116475      -112.0150 
  16   1.0000      -4.111373      -111.8762 
  17   1.0000      -4.110907      -111.8635 
  18   1.0000      -4.110320      -111.8475 
  19   1.0000      -3.040919       -82.7476 
  20   1.0000      -2.317648       -63.0664 
  21   1.0000      -2.317574       -63.0644 
  22   1.0000      -2.317286       -63.0566 
  23   1.0000      -2.317079       -63.0509 
  24   1.0000      -2.313844       -62.9629 
  25   1.0000      -2.313439       -62.9519 
  26   1.0000      -2.312928       -62.9380 
  27   1.0000      -2.312003       -62.9128 
  28   1.0000      -2.311260       -62.8926 
  29   1.0000      -2.311159       -62.8898 
  30   1.0000      -2.310833       -62.8810 
  31   1.0000      -2.310607       -62.8748 
  32   1.0000      -2.309770       -62.8520 
  33   1.0000      -2.309520       -62.8452 
  34   1.0000      -2.309343       -62.8404 
  35   1.0000      -2.308846       -62.8269 
  36   1.0000      -2.308625       -62.8209 
  37   1.0000      -2.308558       -62.8190 
  38   1.0000      -2.308202       -62.8094 
  39   1.0000      -2.307179       -62.7815 
  40   1.0000      -2.306999       -62.7766 
  41   1.0000      -2.305736       -62.7423 
  42   1.0000      -2.305172       -62.7269 
  43   1.0000      -2.304872       -62.7188 
  44   1.0000      -2.304797       -62.7167 
  45   1.0000      -2.304216       -62.7009 
[...]
      dx2y2   :     1.986066
      dxy     :     1.967948
      f0      :     0.000548  f :     0.005310
      f+1     :     0.000655
      f-1     :     0.000797
      f+2     :     0.000694
      f-2     :     0.000588
      f+3     :     0.000962
      f-3     :     0.001065
  5 Aus       :     2.629220  s :     2.629220
      pz      :     2.104215  p :     6.458284
      px      :     2.138742
      py      :     2.215328
      dz2     :     1.972138  d :     9.859715
      dxz     :     1.974351
      dyz     :     1.955305
      dx2y2   :     1.990103
      dxy     :     1.967818
      f0      :     0.000739  f :     0.005302
      f+1     :     0.000598
      f-1     :     0.000949
      f+2     :     0.000753
      f-2     :     0.000646
      f+3     :     0.000818
      f-3     :     0.000799
  6 Aus       :     2.531740  s :     2.531740
      pz      :     2.260532  p :     6.559809
      px      :     2.183868
      py      :     2.115409
      dz2     :     1.971340  d :     9.911464
      dxz     :     1.981608
      dyz     :     2.007182
      dx2y2   :     1.990789
      dxy     :     1.960545
      f0      :     0.000993  f :     0.006790
      f+1     :     0.001137
      f-1     :     0.000984
      f+2     :     0.001020
      f-2     :     0.001120
      f+3     :     0.000716
      f-3     :     0.000819
  7 Aus       :     2.598713  s :     2.598713
      pz      :     2.151787  p :     6.472407
      px      :     2.111504
      py      :     2.209115
      dz2     :     1.988471  d :     9.919402
      dxz     :     1.980258
      dyz     :     1.984634
      dx2y2   :     1.983666
      dxy     :     1.982372
      f0      :     0.000603  f :     0.005391
      f+1     :     0.000532
      f-1     :     0.000719
      f+2     :     0.000684
      f-2     :     0.001002
      f+3     :     0.000883
      f-3     :     0.000967
  8 Aus       :     2.600567  s :     2.600567
      pz      :     2.105869  p :     6.472084
      px      :     2.150448
      py      :     2.215767
      dz2     :     1.996294  d :     9.918232
      dxz     :     1.984250
      dyz     :     1.997348
      dx2y2   :     1.978722
      dxy     :     1.961618
      f0      :     0.000606  f :     0.005371
      f+1     :     0.000544
      f-1     :     0.000727
      f+2     :     0.000611
      f-2     :     0.000821
      f+3     :     0.000985
      f-3     :     0.001076
  9 Aus       :     2.680217  s :     2.680217
      pz      :     2.138120  p :     6.348712
      px      :     2.114744
      py      :     2.095848
      dz2     :     1.983251  d :     9.893107
      dxz     :     1.972900
      dyz     :     1.976940
      dx2y2   :     1.971216
      dxy     :     1.988800
      f0      :     0.000555  f :     0.004757
      f+1     :     0.000705
      f-1     :     0.000565
      f+2     :     0.001118
      f-2     :     0.000590
      f+3     :     0.000663
      f-3     :     0.000561
 10 Aus       :     2.549007  s :     2.549007
      pz      :     2.127281  p :     6.580142
      px      :     2.285682
      py      :     2.167180
      dz2     :     1.978591  d :     9.876391
      dxz     :     1.956430
      dyz     :     1.975593
      dx2y2   :     1.983148
      dxy     :     1.982629
      f0      :     0.001014  f :     0.006807
      f+1     :     0.001119
      f-1     :     0.000692
      f+2     :     0.000839
      f-2     :     0.000920
      f+3     :     0.001169
      f-3     :     0.001054
 11 Aus       :     2.546467  s :     2.546467
      pz      :     2.189483  p :     6.593305
      px      :     2.280413
      py      :     2.123409
      dz2     :     1.994044  d :     9.925540
      dxz     :     1.985731
      dyz     :     1.980997
      dx2y2   :     1.992667
      dxy     :     1.972101
      f0      :     0.000963  f :     0.007114
      f+1     :     0.001339
      f-1     :     0.000493
      f+2     :     0.001200
      f-2     :     0.000937
      f+3     :     0.001095
      f-3     :     0.001087
 12 Aus       :     2.550008  s :     2.550008
      pz      :     2.143029  p :     6.592329
      px      :     2.312387
      py      :     2.136912
      dz2     :     1.997490  d :     9.922932
      dxz     :     1.981740
      dyz     :     1.967381
      dx2y2   :     1.996126
      dxy     :     1.980196
      f0      :     0.000920  f :     0.007092
      f+1     :     0.001323
      f-1     :     0.000529
      f+2     :     0.000848
      f-2     :     0.000878
      f+3     :     0.001317
      f-3     :     0.001276
 13 Aus       :     2.572220  s :     2.572220
      pz      :     2.263897  p :     6.487961
      px      :     2.149156
      py      :     2.074908
      dz2     :     1.964026  d :     9.867998
      dxz     :     1.970346
      dyz     :     1.999191
      dx2y2   :     1.956435
      dxy     :     1.978000
      f0      :     0.000747  f :     0.005652
      f+1     :     0.000898
      f-1     :     0.000893
      f+2     :     0.001074
      f-2     :     0.000791
      f+3     :     0.000605
      f-3     :     0.000643
 14 Mns       :     6.265436  s :     6.265436
      pz      :     4.194624  p :    12.531757
      px      :     4.138361
      py      :     4.198773
      dz2     :     1.296380  d :     6.481492
      dxz     :     1.286563
      dyz     :     1.403808
      dx2y2   :     1.218977
      dxy     :     1.275763
      f0      :     0.000081  f :     0.000703
      f+1     :     0.000098
      f-1     :     0.000172
      f+2     :     0.000076
      f-2     :     0.000108
      f+3     :     0.000066
      f-3     :     0.000104

SPIN
  0 Aus       :    -0.029427  s :    -0.029427
      pz      :    -0.012905  p :    -0.062321
      px      :    -0.024627
      py      :    -0.024789
      dz2     :     0.000699  d :    -0.019938
      dxz     :    -0.003900
      dyz     :     0.001272
      dx2y2   :    -0.009755
      dxy     :    -0.008254
      f0      :    -0.000003  f :    -0.000002
      f+1     :     0.000014
      f-1     :     0.000062
      f+2     :    -0.000018
      f-2     :     0.000012
      f+3     :    -0.000006
      f-3     :    -0.000063
  1 Aus       :    -0.025335  s :    -0.025335
      pz      :    -0.020742  p :    -0.065328
      px      :    -0.021638
      py      :    -0.022948
      dz2     :     0.002355  d :    -0.021292
      dxz     :    -0.007487
      dyz     :     0.003972
      dx2y2   :    -0.014812
      dxy     :    -0.005321
      f0      :    -0.000005  f :    -0.000003
      f+1     :    -0.000004
      f-1     :     0.000008
      f+2     :    -0.000013
      f-2     :     0.000028
      f+3     :    -0.000003
      f-3     :    -0.000014
  2 Aus       :    -0.110638  s :    -0.110638
      pz      :     0.001620  p :    -0.017112
      px      :    -0.009893
      py      :    -0.008838
      dz2     :    -0.002017  d :     0.005441
      dxz     :    -0.002408
      dyz     :     0.002866
      dx2y2   :     0.005386
      dxy     :     0.001613
      f0      :     0.000012  f :     0.000258
      f+1     :     0.000007
      f-1     :     0.000036
      f+2     :     0.000047
      f-2     :    -0.000010
      f+3     :     0.000052
      f-3     :     0.000114
  3 Aus       :    -0.031936  s :    -0.031936
      pz      :    -0.012324  p :    -0.022468
      px      :    -0.001476
      py      :    -0.008669
      dz2     :    -0.000831  d :    -0.006581
      dxz     :     0.001476
      dyz     :     0.004705
      dx2y2   :    -0.013790
      dxy     :     0.001859
      f0      :     0.000037  f :     0.000148
      f+1     :     0.000029
      f-1     :     0.000089
      f+2     :    -0.000014
      f-2     :     0.000006
      f+3     :     0.000003
      f-3     :    -0.000001
  4 Aus       :    -0.034834  s :    -0.034834
      pz      :    -0.021399  p :    -0.075817
      px      :    -0.035540
      py      :    -0.018878
      dz2     :    -0.004064  d :     0.003100
      dxz     :     0.002962
      dyz     :     0.003943
      dx2y2   :    -0.001859
      dxy     :     0.002118
      f0      :     0.000016  f :     0.000069
      f+1     :     0.000043
      f-1     :     0.000022
      f+2     :    -0.000014
      f-2     :     0.000042
      f+3     :    -0.000020
      f-3     :    -0.000021
  5 Aus       :    -0.025411  s :    -0.025411
      pz      :    -0.014688  p :    -0.079908
      px      :    -0.048200
      py      :    -0.017020
      dz2     :    -0.002930  d :     0.003005
      dxz     :    -0.005898
      dyz     :     0.007033
      dx2y2   :     0.001429
      dxy     :     0.003372
      f0      :     0.000016  f :     0.000065
      f+1     :     0.000010
      f-1     :     0.000100
      f+2     :     0.000007
      f-2     :    -0.000022
      f+3     :    -0.000032
      f-3     :    -0.000014
  6 Aus       :    -0.047910  s :    -0.047910
      pz      :     0.003088  p :    -0.046960
      px      :    -0.033934
      py      :    -0.016114
      dz2     :    -0.005704  d :    -0.000910
      dxz     :     0.000464
      dyz     :    -0.000414
      dx2y2   :     0.000613
      dxy     :     0.004131
      f0      :    -0.000005  f :     0.000020
      f+1     :    -0.000012
      f-1     :    -0.000001
      f+2     :    -0.000006
      f-2     :     0.000015
      f+3     :     0.000016
      f-3     :     0.000014
  7 Aus       :    -0.024284  s :    -0.024284
      pz      :    -0.024433  p :    -0.048505
      px      :    -0.022272
      py      :    -0.001800
      dz2     :    -0.007536  d :    -0.022618
      dxz     :    -0.004845
      dyz     :    -0.000540
      dx2y2   :    -0.002506
      dxy     :    -0.007191
      f0      :    -0.000023  f :    -0.000110
      f+1     :    -0.000009
      f-1     :    -0.000019
      f+2     :     0.000002
      f-2     :    -0.000035
      f+3     :    -0.000025
      f-3     :    -0.000001
  8 Aus       :    -0.022402  s :    -0.022402
      pz      :    -0.006001  p :    -0.048626
      px      :    -0.043161
      py      :     0.000537
      dz2     :    -0.007939  d :    -0.024213
      dxz     :    -0.004399
      dyz     :    -0.003182
      dx2y2   :    -0.005824
      dxy     :    -0.002869
      f0      :    -0.000014  f :    -0.000116
      f+1     :    -0.000025
      f-1     :    -0.000001
      f+2     :    -0.000005
      f-2     :    -0.000011
      f+3     :    -0.000042
      f-3     :    -0.000018
  9 Aus       :     0.002765  s :     0.002765
      pz      :     0.006877  p :    -0.046690
      px      :    -0.035221
      py      :    -0.018346
      dz2     :    -0.004783  d :    -0.041208
      dxz     :    -0.002633
      dyz     :     0.002838
      dx2y2   :    -0.033754
      dxy     :    -0.002876
      f0      :    -0.000013  f :    -0.000133
      f+1     :    -0.000036
      f-1     :    -0.000024
      f+2     :    -0.000003
      f-2     :     0.000001
      f+3     :    -0.000027
      f-3     :    -0.000030
 10 Aus       :    -0.036828  s :    -0.036828
      pz      :    -0.017405  p :    -0.019889
      px      :     0.008122
      py      :    -0.010606
      dz2     :     0.000366  d :    -0.008202
      dxz     :     0.000952
      dyz     :    -0.001473
      dx2y2   :    -0.011620
      dxy     :     0.003573
      f0      :     0.000014  f :     0.000145
      f+1     :     0.000038
      f-1     :     0.000012
      f+2     :     0.000030
      f-2     :     0.000047
      f+3     :    -0.000005
      f-3     :     0.000009
 11 Aus       :    -0.032296  s :    -0.032296
      pz      :    -0.004428  p :    -0.011500
      px      :     0.001826
      py      :    -0.008897
      dz2     :    -0.003428  d :    -0.010733
      dxz     :    -0.003774
      dyz     :     0.002863
      dx2y2   :    -0.007076
      dxy     :     0.000681
      f0      :     0.000002  f :    -0.000007
      f+1     :     0.000001
      f-1     :    -0.000000
      f+2     :     0.000004
      f-2     :     0.000001
      f+3     :     0.000010
      f-3     :    -0.000025
 12 Aus       :    -0.028973  s :    -0.028973
      pz      :    -0.007174  p :    -0.011374
      px      :     0.006644
      py      :    -0.010844
      dz2     :    -0.007596  d :    -0.013142
      dxz     :    -0.004050
      dyz     :     0.006862
      dx2y2   :    -0.004273
      dxy     :    -0.004085
      f0      :    -0.000005  f :    -0.000006
      f+1     :    -0.000009
      f-1     :     0.000000
      f+2     :     0.000009
      f-2     :     0.000013
      f+3     :     0.000013
      f-3     :    -0.000027
 13 Aus       :    -0.117743  s :    -0.117743
      pz      :     0.000320  p :    -0.057062
      px      :    -0.051705
      py      :    -0.005678
      dz2     :     0.003148  d :     0.003596
      dxz     :     0.000652
      dyz     :     0.001443
      dx2y2   :    -0.004260
      dxy     :     0.002613
      f0      :    -0.000017  f :     0.000111
      f+1     :    -0.000044
      f-1     :     0.000046
      f+2     :     0.000015
      f-2     :    -0.000011
      f+3     :     0.000081
      f-3     :     0.000041
 14 Mns       :     0.024363  s :     0.024363
      pz      :     0.009043  p :     0.020082
      px      :    -0.000134
      py      :     0.011172
      dz2     :     0.800659  d :     4.287580
      dxz     :     0.881559
      dyz     :     0.863214
      dx2y2   :     0.864922
      dxy     :     0.877227
      f0      :     0.000005  f :     0.000041
      f+1     :     0.000005
      f-1     :     0.000010
      f+2     :     0.000005
      f-2     :     0.000008
      f+3     :     0.000003
      f-3     :     0.000005


                      *****************************
                      * MAYER POPULATION ANALYSIS *
                      *****************************

  NA   - Mulliken gross atomic population
  ZA   - Total nuclear charge
  QA   - Mulliken gross atomic charge
  VA   - Mayer's total valence
  BVA  - Mayer's bonded valence
  FA   - Mayer's free valence

  ATOM       NA         ZA         QA         VA         BVA        FA
  0 Au    18.7266    19.0000     0.2734     1.4721     1.4624     0.0097
  1 Au    18.7312    19.0000     0.2688     1.4731     1.4643     0.0089
  2 Au    18.7672    19.0000     0.2328     1.6307     1.5765     0.0542
  3 Au    19.0357    19.0000    -0.0357     1.9683     1.9589     0.0094
  4 Au    18.7296    19.0000     0.2704     1.5432     1.5338     0.0095
  5 Au    18.7422    19.0000     0.2578     1.5435     1.5365     0.0070
  6 Au    19.0028    19.0000    -0.0028     1.7809     1.7650     0.0159
  7 Au    18.8048    19.0000     0.1952     1.5941     1.5845     0.0096
  8 Au    18.8067    19.0000     0.1933     1.5946     1.5855     0.0091
  9 Au    18.6465    19.0000     0.3535     1.4410     1.4361     0.0049
 10 Au    19.0296    19.0000    -0.0296     1.9730     1.9620     0.0110
 11 Au    19.3063    19.0000    -0.3063     2.0730     2.0627     0.0103
 12 Au    19.3092    19.0000    -0.3092     2.0684     2.0593     0.0091
 13 Au    18.6649    19.0000     0.3351     1.5291     1.4623     0.0668
 14 Mn    26.6965    25.0000    -1.6965     8.5719     4.5425     4.0293

  Mayer bond orders larger than 0.100000
B(  0-Au,  2-Au) :   0.2516 B(  0-Au,  5-Au) :   0.2213 B(  0-Au, 10-Au) :   0.3432 
B(  0-Au, 14-Mn) :   0.3235 B(  1-Au,  2-Au) :   0.2423 B(  1-Au,  3-Au) :   0.3468 
B(  1-Au,  4-Au) :   0.2239 B(  1-Au, 14-Mn) :   0.3259 B(  2-Au,  6-Au) :   0.2508 
B(  2-Au, 14-Mn) :   0.4620 B(  3-Au,  6-Au) :   0.2393 B(  3-Au,  8-Au) :   0.4090 
B(  3-Au, 12-Au) :   0.1138 B(  3-Au, 14-Mn) :   0.4707 B(  4-Au, 12-Au) :   0.3557 
B(  4-Au, 13-Au) :   0.2049 B(  4-Au, 14-Mn) :   0.4373 B(  5-Au, 11-Au) :   0.3587 
B(  5-Au, 13-Au) :   0.1967 B(  5-Au, 14-Mn) :   0.4421 B(  6-Au,  7-Au) :   0.2711 
B(  6-Au,  8-Au) :   0.2697 B(  6-Au, 10-Au) :   0.2466 B(  6-Au, 14-Mn) :   0.3028 
B(  7-Au,  8-Au) :   0.1037 B(  7-Au,  9-Au) :   0.2433 B(  7-Au, 10-Au) :   0.4039 
B(  7-Au, 11-Au) :   0.2923 B(  8-Au,  9-Au) :   0.2431 B(  8-Au, 12-Au) :   0.2863 
B(  9-Au, 11-Au) :   0.3227 B(  9-Au, 12-Au) :   0.3220 B( 10-Au, 11-Au) :   0.1171 
B( 10-Au, 14-Mn) :   0.4655 B( 11-Au, 12-Au) :   0.2230 B( 11-Au, 13-Au) :   0.1980 
B( 11-Au, 14-Mn) :   0.3510 B( 12-Au, 13-Au) :   0.2063 B( 12-Au, 14-Mn) :   0.3510 
B( 13-Au, 14-Mn) :   0.4189 

-------
TIMINGS
-------

Total SCF time: 0 days 0 hours 3 min 39 sec 

Total time                  ....     219.974 sec
Sum of individual times     ....     216.716 sec  ( 98.5%)

Fock matrix formation       ....     203.756 sec  ( 92.6%)
  Split-RI-J                ....      40.151 sec  ( 19.7% of F)
  XC integration            ....     162.629 sec  ( 79.8% of F)
    Basis function eval.    ....       8.942 sec  (  5.5% of XC)
    Density eval.           ....      80.321 sec  ( 49.4% of XC)
    XC-Functional eval.     ....       4.619 sec  (  2.8% of XC)
    XC-Potential eval.      ....      51.030 sec  ( 31.4% of XC)
Diagonalization             ....       8.545 sec  (  3.9%)
Density matrix formation    ....       0.354 sec  (  0.2%)
Population analysis         ....       0.415 sec  (  0.2%)
Initial guess               ....       0.666 sec  (  0.3%)
Orbital Transformation      ....       0.000 sec  (  0.0%)
Orbital Orthonormalization  ....       0.602 sec  (  0.3%)
DIIS solution               ....       0.000 sec  (  0.0%)
Grid generation             ....       2.980 sec  (  1.4%)

Maximum memory used throughout the entire SCF-calculation: 101.9 MB

-------------------------   --------------------
FINAL SINGLE POINT ENERGY     -3052.850549300636
-------------------------   --------------------


                            ***************************************
                            *     ORCA property calculations      *
                            ***************************************

                                    ---------------------
                                    Active property flags
                                    ---------------------
   (+) Dipole Moment


------------------------------------------------------------------------------
                       ORCA ELECTRIC PROPERTIES CALCULATION
------------------------------------------------------------------------------

Dipole Moment Calculation                       ... on
Quadrupole Moment Calculation                   ... off
Polarizability Calculation                      ... off
GBWName                                         ... scan_job2.gbw
Electron density                                ... scan_job2.scfp
The origin for moment calculation is the CENTER OF MASS  = (14.537236, 13.528595 15.057561)

-------------
DIPOLE MOMENT
-------------
                                X             Y             Z
Electronic contribution:    -32.86789       6.63578       8.49648
Nuclear contribution   :     33.17091      -6.88089      -8.58960
                        -----------------------------------------
Total Dipole Moment    :      0.30303      -0.24510      -0.09311
                        -----------------------------------------
Magnitude (a.u.)       :      0.40071
Magnitude (Debye)      :      1.01854



--------------------
Rotational spectrum 
--------------------
 
Rotational constants in cm-1:     0.001137     0.000970     0.000906 
Rotational constants in MHz :    34.088371    29.065900    27.165973 

 Dipole components along the rotational axes: 
x,y,z [a.u.] :     0.400456    -0.001608    -0.014294 
x,y,z [Debye]:     1.017879    -0.004088    -0.036331 

 

Timings for individual modules:

Sum of individual times         ...      244.606 sec (=   4.077 min)
GTO integral calculation        ...       23.936 sec (=   0.399 min)   9.8 %
SCF iterations                  ...      220.670 sec (=   3.678 min)  90.2 %



                             ****ORCA TERMINATED NORMALLY****
TOTAL RUN TIME: 0 days 0 hours 26 minutes 54 seconds 281 msec
