
                                 *****************
                                 * O   R   C   A *
                                 *****************

                                            #,                                       
                                            ###                                      
                                            ####                                     
                                            #####                                    
                                            ######                                   
                                           ########,                                 
                                     ,,################,,,,,                         
                               ,,#################################,,                 
                          ,,##########################################,,             
                       ,#########################################, ''#####,          
                    ,#############################################,,   '####,        
                  ,##################################################,,,,####,       
                ,###########''''           ''''###############################       
              ,#####''   ,,,,##########,,,,          '''####'''          '####       
            ,##' ,,,,###########################,,,                        '##       
           ' ,,###''''                  '''############,,,                           
         ,,##''                                '''############,,,,        ,,,,,,###''
      ,#''                                            '''#######################'''  
     '                                                          ''''####''''         
             ,#######,   #######,   ,#######,      ##                                
            ,#'     '#,  ##    ##  ,#'     '#,    #''#        ######   ,####,        
            ##       ##  ##   ,#'  ##            #'  '#       #        #'  '#        
            ##       ##  #######   ##           ,######,      #####,   #    #        
            '#,     ,#'  ##    ##  '#,     ,#' ,#      #,         ##   #,  ,#        
             '#######'   ##     ##  '#######'  #'      '#     #####' # '####'        



                  #######################################################
                  #                        -***-                        #
                  #          Department of theory and spectroscopy      #
                  #    Directorship and core code : Frank Neese         #
                  #        Max Planck Institute fuer Kohlenforschung    #
                  #                Kaiser Wilhelm Platz 1               #
                  #                 D-45470 Muelheim/Ruhr               #
                  #                      Germany                        #
                  #                                                     #
                  #                  All rights reserved                #
                  #                        -***-                        #
                  #######################################################


                         Program Version 5.0.3 -  RELEASE  -


 With contributions from (in alphabetic order):
   Daniel Aravena         : Magnetic Suceptibility
   Michael Atanasov       : Ab Initio Ligand Field Theory (pilot matlab implementation)
   Alexander A. Auer      : GIAO ZORA, VPT2 properties, NMR spectrum
   Ute Becker             : Parallelization
   Giovanni Bistoni       : ED, misc. LED, open-shell LED, HFLD
   Martin Brehm           : Molecular dynamics
   Dmytro Bykov           : SCF Hessian
   Vijay G. Chilkuri      : MRCI spin determinant printing, contributions to CSF-ICE
   Dipayan Datta          : RHF DLPNO-CCSD density
   Achintya Kumar Dutta   : EOM-CC, STEOM-CC
   Dmitry Ganyushin       : Spin-Orbit,Spin-Spin,Magnetic field MRCI
   Miquel Garcia          : C-PCM and meta-GGA Hessian, CC/C-PCM, Gaussian charge scheme
   Yang Guo               : DLPNO-NEVPT2, F12-NEVPT2, CIM, IAO-localization
   Andreas Hansen         : Spin unrestricted coupled pair/coupled cluster methods
   Benjamin Helmich-Paris : MC-RPA, TRAH-SCF, COSX integrals
   Lee Huntington         : MR-EOM, pCC
   Robert Izsak           : Overlap fitted RIJCOSX, COSX-SCS-MP3, EOM
   Marcus Kettner         : VPT2
   Christian Kollmar      : KDIIS, OOCD, Brueckner-CCSD(T), CCSD density, CASPT2, CASPT2-K
   Simone Kossmann        : Meta GGA functionals, TD-DFT gradient, OOMP2, MP2 Hessian
   Martin Krupicka        : Initial AUTO-CI
   Lucas Lang             : DCDCAS
   Marvin Lechner         : AUTO-CI (C++ implementation), FIC-MRCC
   Dagmar Lenk            : GEPOL surface, SMD
   Dimitrios Liakos       : Extrapolation schemes; Compound Job, initial MDCI parallelization
   Dimitrios Manganas     : Further ROCIS development; embedding schemes
   Dimitrios Pantazis     : SARC Basis sets
   Anastasios Papadopoulos: AUTO-CI, single reference methods and gradients
   Taras Petrenko         : DFT Hessian,TD-DFT gradient, ASA, ECA, R-Raman, ABS, FL, XAS/XES, NRVS
   Peter Pinski           : DLPNO-MP2, DLPNO-MP2 Gradient
   Christoph Reimann      : Effective Core Potentials
   Marius Retegan         : Local ZFS, SOC
   Christoph Riplinger    : Optimizer, TS searches, QM/MM, DLPNO-CCSD(T), (RO)-DLPNO pert. Triples
   Tobias Risthaus        : Range-separated hybrids, TD-DFT gradient, RPA, STAB
   Michael Roemelt        : Original ROCIS implementation
   Masaaki Saitow         : Open-shell DLPNO-CCSD energy and density
   Barbara Sandhoefer     : DKH picture change effects
   Avijit Sen             : IP-ROCIS
   Kantharuban Sivalingam : CASSCF convergence, NEVPT2, FIC-MRCI
   Bernardo de Souza      : ESD, SOC TD-DFT
   Georgi Stoychev        : AutoAux, RI-MP2 NMR, DLPNO-MP2 response
   Willem Van den Heuvel  : Paramagnetic NMR
   Boris Wezisla          : Elementary symmetry handling
   Frank Wennmohs         : Technical directorship


 We gratefully acknowledge several colleagues who have allowed us to
 interface, adapt or use parts of their codes:
   Stefan Grimme, W. Hujo, H. Kruse, P. Pracht,  : VdW corrections, initial TS optimization,
                  C. Bannwarth, S. Ehlert          DFT functionals, gCP, sTDA/sTD-DF
   Ed Valeev, F. Pavosevic, A. Kumar             : LibInt (2-el integral package), F12 methods
   Garnet Chan, S. Sharma, J. Yang, R. Olivares  : DMRG
   Ulf Ekstrom                                   : XCFun DFT Library
   Mihaly Kallay                                 : mrcc  (arbitrary order and MRCC methods)
   Jiri Pittner, Ondrej Demel                    : Mk-CCSD
   Frank Weinhold                                : gennbo (NPA and NBO analysis)
   Christopher J. Cramer and Donald G. Truhlar   : smd solvation model
   Lars Goerigk                                  : TD-DFT with DH, B97 family of functionals
   V. Asgeirsson, H. Jonsson                     : NEB implementation
   FAccTs GmbH                                   : IRC, NEB, NEB-TS, DLPNO-Multilevel, CI-OPT
                                                   MM, QMMM, 2- and 3-layer-ONIOM, Crystal-QMMM,
                                                   LR-CPCM, SF, NACMEs, symmetry and pop. for TD-DFT,
                                                   nearIR, NL-DFT gradient (VV10), updates on ESD,
                                                   ML-optimized integration grids
   S Lehtola, MJT Oliveira, MAL Marques          : LibXC Library
   Liviu Ungur et al                             : ANISO software


 Your calculation uses the libint2 library for the computation of 2-el integrals
 For citations please refer to: http://libint.valeyev.net

 Your ORCA version has been built with support for libXC version: 5.1.0
 For citations please refer to: https://tddft.org/programs/libxc/

 This ORCA versions uses:
   CBLAS   interface :  Fast vector & matrix operations
   LAPACKE interface :  Fast linear algebra routines
   SCALAPACK package :  Parallel linear algebra routines
   Shared memory     :  Shared parallel matrices
   BLAS/LAPACK       :  OpenBLAS 0.3.15  USE64BITINT DYNAMIC_ARCH NO_AFFINITY Sandybridge SINGLE_THREADED
        Core in use  :  Sandybridge
   Copyright (c) 2011-2014, The OpenBLAS Project




***************************************
The coordinates will be read from file: 3.xyz
***************************************


================================================================================

cite the ECPs for Au [Def2-ECP] as follows:
Ce-Yb(ecp-28): M. Dolg, H. Stoll, H.Preuss, J. Chem. Phys., 1989, 90, 1730-1734.
Y-Cd(ecp-28), Hf-Hg(ecp-46): D. Andrae,U. Haeussermann, M. Dolg, H. Stoll, H. Preuss, Theor. Chim. Acta, 1990, 77, 123-141.
In-Sb(ecp-28), Tl-Bi(ecp-46): B. Metz, H. Stoll, M. Dolg, J. Chem. Phys., 2000, 113, 2563-2569.
Te-Xe(ecp-28), Po-Rn(ecp-46): K. A. Peterson, D. Figgen, E. Goll, H. Stoll, M. Dolg, J. Chem. Phys., 2003, 119, 11113-11123.
Rb(ecp-28), Cs(ecp-46): T. Leininger, A. Nicklass, W. Kuechle, H. Stoll, M. Dolg, A. Bergner, Chem. Phys. Lett., 1996, 255, 274-280.
Sr(ecp-28), Ba(ecp-46): M. Kaupp, P. V. Schleyer, H. Stoll and H. Preuss, J. Chem. Phys., 1991, 94, 1360-1366.
La(ecp-46): M. Dolg, H. Stoll, A. Savin, H. Preuss, Theor. Chim. Acta, 1989, 75, 173-194.
Lu(ecp-28): X. Cao, M. Dolg, J. Chem. Phys., 2001, 115, 7348-7355.

ECP parameters for Au [Def2-ECP] have been obtained from:
TURBOMOLE (7.0.2)

----- Orbital basis set information -----
Your calculation utilizes the basis: def2-TZVP
   F. Weigend and R. Ahlrichs, Phys. Chem. Chem. Phys. 7, 3297 (2005).

----- AuxJ basis set information -----
Your calculation utilizes the auxiliary basis: def2/J
   F. Weigend, Phys. Chem. Chem. Phys. 8, 1057 (2006).

================================================================================
                                        WARNINGS
                       Please study these warnings very carefully!
================================================================================


WARNING: your system is open-shell and RHF/RKS was chosen
  ===> : WILL SWITCH to UHF/UKS


WARNING: Geometry Optimization
  ===> : Switching off AutoStart
         For restart on a previous wavefunction, please use MOREAD

INFO   : the flag for use of the SHARK integral package has been found!

================================================================================
                                       INPUT FILE
================================================================================
NAME = pbe.inp
|  1> %pal nprocs 1 end 
|  2> 
|  3> !PBE def2-TZVP OPT UNO
|  4> !SLOWCONV KDIIS 
|  5> 
|  6> %geom maxiter 300 end
|  7> 
|  8> *xyzfile 0 5 3.xyz                           ****END OF INPUT****
================================================================================

                       *****************************
                       * Geometry Optimization Run *
                       *****************************

Geometry optimization settings:
Update method            Update   .... BFGS
Choice of coordinates    CoordSys .... Z-matrix Internals
Initial Hessian          InHess   .... Almoef's Model

Convergence Tolerances:
Energy Change            TolE     ....  5.0000e-06 Eh
Max. Gradient            TolMAXG  ....  3.0000e-04 Eh/bohr
RMS Gradient             TolRMSG  ....  1.0000e-04 Eh/bohr
Max. Displacement        TolMAXD  ....  4.0000e-03 bohr
RMS Displacement         TolRMSD  ....  2.0000e-03 bohr
Strict Convergence                ....  False
------------------------------------------------------------------------------
                        ORCA OPTIMIZATION COORDINATE SETUP
------------------------------------------------------------------------------

The optimization will be done in new redundant internal coordinates
Making redundant internal coordinates   ...  (new redundants) done
Evaluating the initial hessian          ...  (Almloef) done
Evaluating the coordinates              ...  done
Calculating the B-matrix                .... done
Calculating the G-matrix                .... done
Diagonalizing the G-matrix              .... done
The first mode is                       ....  101
The number of degrees of freedom        ....   33

    -----------------------------------------------------------------
                    Redundant Internal Coordinates


    -----------------------------------------------------------------
         Definition                    Initial Value    Approx d2E/dq
    -----------------------------------------------------------------
      1. B(Au  3,Au  2)                  2.7372         0.008580   
      2. B(Au  4,Au  3)                  2.7346         0.008664   
      3. B(Au  5,Au  0)                  2.7351         0.008648   
      4. B(Au  6,Au  5)                  2.7320         0.008746   
      5. B(Au  8,Au  3)                  2.7541         0.008064   
      6. B(Au 11,Au  5)                  2.7839         0.007228   
      7. B(Fe 12,Au  8)                  2.7793         0.053451   
      8. B(Fe 12,Au  7)                  2.6414         0.088703   
      9. B(Fe 12,Au  2)                  2.6971         0.072276   
     10. B(Fe 12,Au 11)                  2.8569         0.040191   
     11. B(Fe 12,Au  6)                  2.6914         0.073821   
     12. B(Fe 12,Au 10)                  2.7183         0.066867   
     13. B(Fe 12,Au  9)                  2.6354         0.090689   
     14. B(Fe 12,Au  4)                  2.6808         0.076750   
     15. B(Fe 12,Au  1)                  2.5316         0.132750   
     16. B(Fe 12,Au  0)                  2.8291         0.044511   
     17. A(Au  5,Au  0,Fe 12)          100.8329         0.177952   
     18. A(Au  3,Au  2,Fe 12)          101.4972         0.188089   
     19. A(Au  4,Au  3,Au  8)           70.0830         0.142902   
     20. A(Au  2,Au  3,Au  8)           64.6518         0.142783   
     21. A(Au  2,Au  3,Au  4)           65.0042         0.143664   
     22. A(Au  3,Au  4,Fe 12)          101.9886         0.189667   
     23. A(Au  0,Au  5,Au  6)           64.5077         0.143879   
     24. A(Au  0,Au  5,Au 11)           67.6953         0.141561   
     25. A(Au  6,Au  5,Au 11)           68.9053         0.141696   
     26. A(Au  5,Au  6,Fe 12)          104.5147         0.188999   
     27. A(Au  3,Au  8,Fe 12)           99.0218         0.180259   
     28. A(Au  5,Au 11,Fe 12)           98.9736         0.172462   
     29. A(Au  1,Fe 12,Au  8)          117.0451         0.281936   
     30. A(Au  6,Fe 12,Au  7)           65.8440         0.278462   
     31. A(Au  0,Fe 12,Au  6)           63.7526         0.251084   
     32. A(Au  4,Fe 12,Au  7)           65.5429         0.280138   
     33. A(Au  2,Fe 12,Au  7)          118.1508         0.277557   
     34. A(Au  2,Fe 12,Au  4)           66.2830         0.271480   
     35. A(Au  1,Fe 12,Au  2)           60.7241         0.295573   
     36. A(Au  4,Fe 12,Au  9)          121.6527         0.281098   
     37. A(Au  2,Fe 12,Au  9)          113.2704         0.278504   
     38. A(Au  0,Fe 12,Au  7)          117.6908         0.257963   
     39. A(Au  6,Fe 12,Au  9)          122.2935         0.279413   
     40. A(Au  7,Fe 12,Au  9)           65.9862         0.287495   
     41. A(Au  8,Fe 12,Au  9)           60.3434         0.265994   
     42. A(Au  0,Fe 12,Au 10)           61.2226         0.247495   
     43. A(Au  1,Fe 12,Au 10)           66.2427         0.291968   
     44. A(Au  2,Fe 12,Au 10)          114.7290         0.265874   
     45. A(Au  4,Fe 12,Au 10)          174.6299         0.268295   
     46. A(Au  6,Fe 12,Au 10)          116.2229         0.266723   
     47. A(Au  1,Fe 12,Au  9)          117.8068         0.306460   
     48. A(Au  0,Fe 12,Au  9)          116.6781         0.258812   
     49. A(Au  4,Fe 12,Au  6)           59.7720         0.272356   
     50. A(Au  1,Fe 12,Au  4)          111.1493         0.298400   
     51. A(Au  7,Fe 12,Au 11)           63.5849         0.254103   
     52. A(Au  6,Fe 12,Au 11)           68.3799         0.247381   
     53. A(Au  7,Fe 12,Au  8)           64.1431         0.265109   
     54. A(Au  4,Fe 12,Au 11)          117.8891         0.248782   
     55. A(Au  8,Fe 12,Au 11)          113.7107         0.236219   
     56. A(Au  9,Fe 12,Au 11)           62.9157         0.254933   
     57. A(Au 10,Fe 12,Au 11)           61.3563         0.243874   
     58. A(Au  1,Fe 12,Au 11)          117.8571         0.269878   
     59. A(Au  6,Fe 12,Au  8)          119.8711         0.257939   
     60. A(Au  2,Fe 12,Au  6)          116.3547         0.269880   
     61. A(Au  0,Fe 12,Au 11)           65.4574         0.230245   
     62. A(Au  9,Fe 12,Au 10)           63.2129         0.275197   
     63. A(Au  4,Fe 12,Au  8)           70.4799         0.259434   
     64. A(Au  8,Fe 12,Au 10)          114.8405         0.254198   
     65. A(Au  7,Fe 12,Au 10)          116.8818         0.274266   
     66. A(Au  2,Fe 12,Au  8)           64.8305         0.257132   
     67. A(Au  1,Fe 12,Au  6)          111.0771         0.296564   
     68. A(Au  0,Fe 12,Au  4)          113.4482         0.252518   
     69. A(Au  0,Fe 12,Au  2)          115.6554         0.250310   
     70. A(Au  0,Fe 12,Au  1)           61.3794         0.274107   
     71. D(Au  8,Au  3,Au  2,Fe 12)    -41.5364         0.001502   
     72. D(Au  4,Au  3,Au  2,Fe 12)     37.2163         0.001502   
     73. D(Fe 12,Au  4,Au  3,Au  2)    -37.5606         0.001502   
     74. D(Fe 12,Au  4,Au  3,Au  8)     32.9589         0.001502   
     75. D(Au 11,Au  5,Au  0,Fe 12)     39.2893         0.001502   
     76. D(Au  6,Au  5,Au  0,Fe 12)    -37.0969         0.001502   
     77. D(Fe 12,Au  6,Au  5,Au 11)    -34.4947         0.001502   
     78. D(Fe 12,Au  6,Au  5,Au  0)     40.0353         0.001502   
     79. D(Fe 12,Au  8,Au  3,Au  2)     39.6790         0.001502   
     80. D(Au  3,Au  8,Au  0,Au  5)    104.6161         0.001500   
     81. D(Fe 12,Au  8,Au  3,Au  4)    -31.3150         0.001502   
     82. D(Au  5,Au 11,Au  2,Au  3)   -104.1168         0.001500   
     83. D(Fe 12,Au 11,Au  5,Au  6)     31.5266         0.001501   
     84. D(Fe 12,Au 11,Au  5,Au  0)    -38.5746         0.001501   
     85. D(Au  1,Fe 12,Au  0,Au  5)    174.5786         0.001510   
     86. D(Au 11,Fe 12,Au  8,Au  3)    144.6554         0.001514   
     87. D(Au  8,Fe 12,Au  2,Au  3)     41.0052         0.001524   
     88. D(Au  6,Fe 12,Au  2,Au  3)    -71.4106         0.001524   
     89. D(Au  1,Fe 12,Au  8,Au  3)    -72.4790         0.001514   
     90. D(Au 11,Fe 12,Au  6,Au  5)     33.6313         0.001525   
     91. D(Au  1,Fe 12,Au  2,Au  3)   -171.9180         0.001524   
     92. D(Au  0,Fe 12,Au  2,Au  3)   -143.3774         0.001524   
     93. D(Au  7,Fe 12,Au  6,Au  5)    103.3453         0.001525   
     94. D(Au  4,Fe 12,Au  2,Au  3)    -37.6447         0.001524   
     95. D(Au  6,Fe 12,Au  8,Au  3)     66.8845         0.001514   
     96. D(Au  7,Fe 12,Au  2,Au  3)      3.9423         0.001524   
     97. D(Au  0,Fe 12,Au 11,Au  5)     37.8143         0.001508   
     98. D(Au  9,Fe 12,Au  2,Au  3)     78.1406         0.001524   
     99. D(Au 10,Fe 12,Au  2,Au  3)    148.1389         0.001524   
    100. D(Au  0,Fe 12,Au  4,Au  3)    146.7270         0.001527   
    101. D(Au 11,Fe 12,Au  0,Au  5)    -38.8728         0.001510   
    102. D(Au 10,Fe 12,Au  0,Au  5)   -108.3593         0.001510   
    103. D(Au  1,Fe 12,Au  6,Au  5)    -79.0693         0.001525   
    104. D(Au  0,Fe 12,Au  6,Au  5)    -38.7463         0.001525   
    105. D(Au  9,Fe 12,Au  0,Au  5)    -76.7251         0.001510   
    106. D(Au 11,Fe 12,Au  4,Au  3)   -139.6950         0.001527   
    107. D(Au 10,Fe 12,Au  4,Au  3)    139.8056         0.001527   
    108. D(Au  7,Fe 12,Au  0,Au  5)     -1.2412         0.001510   
    109. D(Au  9,Fe 12,Au  4,Au  3)    -65.8893         0.001527   
    110. D(Au  8,Fe 12,Au  4,Au  3)    -32.5323         0.001527   
    111. D(Au  2,Fe 12,Au  6,Au  5)   -145.8702         0.001525   
    112. D(Au  4,Fe 12,Au  6,Au  5)    178.0481         0.001525   
    113. D(Au  6,Fe 12,Au  0,Au  5)     38.0389         0.001510   
    114. D(Au  8,Fe 12,Au  6,Au  5)    139.3660         0.001525   
    115. D(Au  9,Fe 12,Au  6,Au  5)     67.5468         0.001525   
    116. D(Au 10,Fe 12,Au  6,Au  5)     -6.0138         0.001525   
    117. D(Au  7,Fe 12,Au  4,Au  3)   -102.2228         0.001527   
    118. D(Au  6,Fe 12,Au  4,Au  3)   -177.4316         0.001527   
    119. D(Au  2,Fe 12,Au  8,Au  3)    -40.3179         0.001514   
    120. D(Au  4,Fe 12,Au  8,Au  3)     31.9285         0.001514   
    121. D(Au  4,Fe 12,Au  0,Au  5)     72.3779         0.001510   
    122. D(Au  7,Fe 12,Au  8,Au  3)    103.4883         0.001514   
    123. D(Au  9,Fe 12,Au  8,Au  3)    179.3390         0.001514   
    124. D(Au 10,Fe 12,Au  8,Au  3)   -147.2837         0.001514   
    125. D(Au  2,Fe 12,Au  4,Au  3)     37.7666         0.001527   
    126. D(Au 10,Fe 12,Au 11,Au  5)    107.1061         0.001508   
    127. D(Au  1,Fe 12,Au 11,Au  5)     70.9962         0.001508   
    128. D(Au  4,Fe 12,Au 11,Au  5)    -66.8565         0.001508   
    129. D(Au  6,Fe 12,Au 11,Au  5)    -32.1877         0.001508   
    130. D(Au  7,Fe 12,Au 11,Au  5)   -105.0520         0.001508   
    131. D(Au  8,Fe 12,Au 11,Au  5)   -146.4596         0.001508   
    132. D(Au  9,Fe 12,Au 11,Au  5)    179.8014         0.001508   
    133. D(Au  1,Fe 12,Au  4,Au  3)     79.8084         0.001527   
    134. D(Au  2,Fe 12,Au  0,Au  5)    146.2343         0.001510   
    -----------------------------------------------------------------

Number of atoms                         .... 13
Number of degrees of freedom            .... 134

         *************************************************************
         *                GEOMETRY OPTIMIZATION CYCLE   1            *
         *************************************************************
---------------------------------
CARTESIAN COORDINATES (ANGSTROEM)
---------------------------------
  Au     6.464161    8.895777    3.947231
  Au     8.147125    6.736115    4.181607
  Au     7.564148    4.766222    5.850514
  Au     6.219856    3.488342    7.863580
  Au     4.875768    5.578012    6.721336
  Au     4.447086   10.549823    4.769591
  Au     4.306698    7.979403    5.684536
  Au     5.360208    7.881048    8.383165
  Au     7.412952    5.868568    8.568004
  Au     8.170376    8.466451    8.254006
  Au     8.743667    9.164188    5.596598
  Au     6.324783   10.095853    6.774172
  Fe     6.852081    7.333061    6.273433

----------------------------
CARTESIAN COORDINATES (A.U.)
----------------------------
  NO LB      ZA    FRAG     MASS         X           Y           Z
   0 Au   19.0000*   0   196.966   12.215493   16.810582    7.459185
   1 Au   19.0000*   0   196.966   15.395834   12.729412    7.902091
   2 Au   19.0000*   0   196.966   14.294167    9.006855   11.055869
   3 Au   19.0000*   0   196.966   11.753824    6.592011   14.860012
   4 Au   19.0000*   0   196.966    9.213865   10.540914   12.701485
   5 Au   19.0000*   0   196.966    8.403775   19.936276    9.013220
   6 Au   19.0000*   0   196.966    8.138480   15.078886   10.742216
   7 Au   19.0000*   0   196.966   10.129325   14.893022   15.841886
   8 Au   19.0000*   0   196.966   14.008449   11.089987   16.191181
   9 Au   19.0000*   0   196.966   15.439773   15.999274   15.597810
  10 Au   19.0000*   0   196.966   16.523135   17.317806   10.576038
  11 Au   19.0000*   0   196.966   11.952108   19.078398   12.801329
  12 Fe   26.0000    0    55.850   12.948557   13.857476   11.855070
* core charge reduced due to ECP

--------------------------------
INTERNAL COORDINATES (ANGSTROEM)
--------------------------------
 Au     0   0   0     0.000000000000     0.00000000     0.00000000
 Au     1   0   0     2.747988406342     0.00000000     0.00000000
 Au     2   1   0     2.646807616527   120.25162015     0.00000000
 Au     3   2   1     2.737248985321   156.82990692   349.61308981
 Au     4   3   2     2.734595688276    65.00421535    19.87179739
 Au     1   2   3     2.735093098515   154.32821198    17.95266968
 Au     5   4   3     2.676840631614   162.13897997   315.14737262
 Au     5   4   3     2.881029935381   106.69457395   264.06078310
 Au     4   3   2     2.754118797249    64.65177515   301.11909660
 Au     9   4   3     2.724203123271   156.22465544    41.05739900
 Au    10   9   4     2.806655003600   113.76574777   326.48727139
 Au     6   1   2     2.783914092995    67.69533123    49.44766232
 Fe     2   1   3     2.531643068993    64.65133482   329.67852969

---------------------------
INTERNAL COORDINATES (A.U.)
---------------------------
 Au     0   0   0     0.000000000000     0.00000000     0.00000000
 Au     1   0   0     5.192945507177     0.00000000     0.00000000
 Au     2   1   0     5.001741524414   120.25162015     0.00000000
 Au     3   2   1     5.172650942610   156.82990692   349.61308981
 Au     4   3   2     5.167636937843    65.00421535    19.87179739
 Au     1   2   3     5.168576906971   154.32821198    17.95266968
 Au     5   4   3     5.058495697904   162.13897997   315.14737262
 Au     5   4   3     5.444357561500   106.69457395   264.06078310
 Au     4   3   2     5.204530267086    64.65177515   301.11909660
 Au     9   4   3     5.147997836156   156.22465544    41.05739900
 Au    10   9   4     5.303809309204   113.76574777   326.48727139
 Au     6   1   2     5.260835216124    67.69533123    49.44766232
 Fe     2   1   3     4.784112069237    64.65133482   329.67852969

---------------------
BASIS SET INFORMATION
---------------------
There are 2 groups of distinct atoms

 Group   1 Type Au  : 8s7p6d1f contracted to 6s4p3d1f pattern {311111/4111/411/1}
 Group   2 Type Fe  : 17s11p7d1f contracted to 6s4p4d1f pattern {842111/6311/4111/1}

Atom   0Au   basis set group =>   1
Atom   1Au   basis set group =>   1
Atom   2Au   basis set group =>   1
Atom   3Au   basis set group =>   1
Atom   4Au   basis set group =>   1
Atom   5Au   basis set group =>   1
Atom   6Au   basis set group =>   1
Atom   7Au   basis set group =>   1
Atom   8Au   basis set group =>   1
Atom   9Au   basis set group =>   1
Atom  10Au   basis set group =>   1
Atom  11Au   basis set group =>   1
Atom  12Fe   basis set group =>   2
---------------------------------
AUXILIARY/J BASIS SET INFORMATION
---------------------------------
There are 2 groups of distinct atoms

 Group   1 Type Au  : 11s5p5d3f3g contracted to 8s5p5d2f3g pattern {41111111/11111/11111/21/111}
 Group   2 Type Fe  : 19s5p5d3f3g contracted to 8s5p5d2f3g pattern {121111111/11111/11111/21/111}

Atom   0Au   basis set group =>   1
Atom   1Au   basis set group =>   1
Atom   2Au   basis set group =>   1
Atom   3Au   basis set group =>   1
Atom   4Au   basis set group =>   1
Atom   5Au   basis set group =>   1
Atom   6Au   basis set group =>   1
Atom   7Au   basis set group =>   1
Atom   8Au   basis set group =>   1
Atom   9Au   basis set group =>   1
Atom  10Au   basis set group =>   1
Atom  11Au   basis set group =>   1
Atom  12Fe   basis set group =>   2
-------------------------
ECP PARAMETER INFORMATION
-------------------------

 Group 1, Type Au ECP Def2-ECP (replacing 60 core electrons, lmax=3)

Atom   0Au   ECP group =>   1
Atom   1Au   ECP group =>   1
Atom   2Au   ECP group =>   1
Atom   3Au   ECP group =>   1
Atom   4Au   ECP group =>   1
Atom   5Au   ECP group =>   1
Atom   6Au   ECP group =>   1
Atom   7Au   ECP group =>   1
Atom   8Au   ECP group =>   1
Atom   9Au   ECP group =>   1
Atom  10Au   ECP group =>   1
Atom  11Au   ECP group =>   1

------------------------------------------------------------------------------
                           ORCA GTO INTEGRAL CALCULATION
                           -- RI-GTO INTEGRALS CHOSEN --
------------------------------------------------------------------------------
------------------------------------------------------------------------------
                   ___                                                        
                  /   \      - P O W E R E D   B Y -                         
                 /     \                                                     
                 |  |  |   _    _      __       _____    __    __             
                 |  |  |  | |  | |    /  \     |  _  \  |  |  /  |          
                  \  \/   | |  | |   /    \    | | | |  |  | /  /          
                 / \  \   | |__| |  /  /\  \   | |_| |  |  |/  /          
                |  |  |   |  __  | /  /__\  \  |    /   |      \           
                |  |  |   | |  | | |   __   |  |    \   |  |\   \          
                \     /   | |  | | |  |  |  |  | |\  \  |  | \   \       
                 \___/    |_|  |_| |__|  |__|  |_| \__\ |__|  \__/        
                                                                              
                      - O R C A' S   B I G   F R I E N D -                    
                                      &                                       
                       - I N T E G R A L  F E E D E R -                       
                                                                              
 v1 FN, 2020, v2 2021                                                         
------------------------------------------------------------------------------


Reading SHARK input file pbe.SHARKINP.tmp ... ok
----------------------
SHARK INTEGRAL PACKAGE
----------------------

Number of atoms                             ...     13
Number of basis functions                   ...    525
Number of shells                            ...    183
Maximum angular momentum                    ...      3
Integral batch strategy                     ... SHARK/LIBINT Hybrid
RI-J (if used) integral strategy            ... SPLIT-RIJ (Revised 2003 algorithm where possible)
Printlevel                                  ...      1
Contraction scheme used                     ... SEGMENTED contraction
Coulomb Range Separation                    ... NOT USED
Exchange Range Separation                   ... NOT USED
Finite Nucleus Model                        ... NOT USED
Auxiliary Coulomb fitting basis             ... AVAILABLE
   # of basis functions in Aux-J            ...   1157
   # of shells in Aux-J                     ...    299
   Maximum angular momentum in Aux-J        ...      4
Auxiliary J/K fitting basis                 ... NOT available
Auxiliary Correlation fitting basis         ... NOT available
Auxiliary 'external' fitting basis          ... NOT available
Integral threshold                          ...     2.500000e-11
Primitive cut-off                           ...     2.500000e-12
Primitive pair pre-selection threshold      ...     2.500000e-12

Calculating pre-screening integrals         ... done (  0.5 sec) Dimension = 183
Organizing shell pair data                  ... done (  0.5 sec)
Shell pair information
Total number of shell pairs                 ...     16836
Shell pairs after pre-screening             ...     13708
Total number of primitive shell pairs       ...     45389
Primitive shell pairs kept                  ...     27025
          la=0 lb=0:   2141 shell pairs
          la=1 lb=0:   3152 shell pairs
          la=1 lb=1:   1181 shell pairs
          la=2 lb=0:   2720 shell pairs
          la=2 lb=1:   1914 shell pairs
          la=2 lb=2:    789 shell pairs
          la=3 lb=0:    713 shell pairs
          la=3 lb=1:    550 shell pairs
          la=3 lb=2:    472 shell pairs
          la=3 lb=3:     76 shell pairs

Calculating one electron integrals          ... done (  0.1 sec)
Calculating ECP integrals                   ... done (  8.0 sec)
Calculating RI/J V-Matrix + Cholesky decomp.... done (  0.1 sec)
Calculating Nuclear repulsion               ... done (  0.0 sec) ENN=   4360.004476733074 Eh

SHARK setup successfully completed in   9.8 seconds

Maximum memory used throughout the entire GTOINT-calculation: 400.9 MB
-------------------------------------------------------------------------------
                                 ORCA SCF
-------------------------------------------------------------------------------

------------
SCF SETTINGS
------------
Hamiltonian:
 Density Functional     Method          .... DFT(GTOs)
 Exchange Functional    Exchange        .... PBE
   PBE kappa parameter   XKappa         ....  0.804000
   PBE mue parameter    XMuePBE         ....  0.219520
 Correlation Functional Correlation     .... PBE
   PBE beta parameter  CBetaPBE         ....  0.066725
 LDA part of GGA corr.  LDAOpt          .... PW91-LDA
 Gradients option       PostSCFGGA      .... off
   Density functional embedding theory  .... OFF
   NL short-range parameter             ....  6.400000
 RI-approximation to the Coulomb term is turned on
   Number of AuxJ basis functions       .... 1157


General Settings:
 Integral files         IntName         .... pbe
 Hartree-Fock type      HFTyp           .... UHF
 Total Charge           Charge          ....    0
 Multiplicity           Mult            ....    5
 Number of Electrons    NEL             ....  254
 Basis Dimension        Dim             ....  525
 Nuclear Repulsion      ENuc            ....   4360.0044767331 Eh

Convergence Acceleration:
 DIIS                   CNVDIIS         .... off
 Trust-Rad. Augm. Hess. CNVTRAH         .... auto
   Auto Start mean grad. ratio tolernc. ....  1.125000
   Auto Start start iteration           ....    20
   Auto Start num. interpolation iter.  ....    10
   Max. Number of Micro iterations      ....    16
   Max. Number of Macro iterations      .... Maxiter - #DIIS iter
   Number of Davidson start vectors     ....     2
   Converg. threshold I  (grad. norm)   ....   1.000e-05
   Converg. threshold II (energy diff.) ....   1.000e-08
   Grad. Scal. Fac. for Micro threshold ....   0.100
   Minimum threshold for Micro iter.    ....   0.010
   NR start threshold (gradient norm)   ....   0.001
   Initial trust radius                 ....   0.400
   Minimum AH scaling param. (alpha)    ....   1.000
   Maximum AH scaling param. (alpha)    .... 1000.000
   Orbital update algorithm             .... Taylor
   White noise on init. David. guess    .... on
   Maximum white noise                  ....   0.010
   Quad. conv. algorithm                .... NR
 SOSCF                  CNVSOSCF        .... off
 Level Shifting         CNVShift        .... off
 Zerner damping         CNVZerner       .... off
 Static damping         CNVDamp         .... off
 Fernandez-Rico         CNVRico         .... off

SCF Procedure:
 Maximum # iterations   MaxIter         ....   125
 SCF integral mode      SCFMode         .... Direct
   Integral package                     .... SHARK and LIBINT hybrid scheme
 Reset frequency        DirectResetFreq ....    20
 Integral Threshold     Thresh          ....  2.500e-11 Eh
 Primitive CutOff       TCut            ....  2.500e-12 Eh

Convergence Tolerance:
 Convergence Check Mode ConvCheckMode   .... Total+1el-Energy
 Convergence forced     ConvForced      .... 0
 Energy Change          TolE            ....  1.000e-08 Eh
 1-El. energy change                    ....  1.000e-05 Eh


Diagonalization of the overlap matrix:
Smallest eigenvalue                        ... 4.646e-04
Time for diagonalization                   ...    0.069 sec
Threshold for overlap eigenvalues          ... 1.000e-08
Number of eigenvalues below threshold      ... 0
Time for construction of square roots      ...    0.030 sec
Total time needed                          ...    0.100 sec

Time for model grid setup =    1.553 sec

------------------------------
INITIAL GUESS: MODEL POTENTIAL
------------------------------
Loading Hartree-Fock densities                     ... done
  calling /home/ehlert/src/miniconda3/envs/orca500/Programs/ORCA501/orca pbe_atom79.inp > pbe_atom79.out in order to generate an atomic fitting density for atom 0 (Au with ECP) on-the-fly... 
    atom 0 (Au), assumed electronic state with S=2: 1s2 2s2 2p6 3s2 3p6 4s2 3d10 4p6 5s2 4d10 5p6 6s1 4f14 5d10           ... done
Calculating cut-offs                               ... done
Initializing the effective Hamiltonian             ... done
Setting up the integral package (SHARK)            ... done
Starting the Coulomb interaction                   ... done (   2.1 sec)
Reading the grid                                   ... done
Mapping shells                                     ... done
Starting the XC term evaluation                    ... done (   2.7 sec)
  promolecular density results
     # of electrons  =    974.013289330
     EX              =  -4443.957857507
     EC              =    -59.268476125
     EX+EC           =  -4503.226333632
Transforming the Hamiltonian                       ... done (   0.0 sec)
Diagonalizing the Hamiltonian                      ... done (   0.1 sec)
Back transforming the eigenvectors                 ... done (   0.0 sec)
Now organizing SCF variables                       ... done
                      ------------------
                      INITIAL GUESS DONE (   7.3 sec)
                      ------------------
-------------------
DFT GRID GENERATION
-------------------

General Integration Accuracy     IntAcc      ... 4.388
Radial Grid Type                 RadialGrid  ... OptM3 with GC (2021)
Angular Grid (max. ang.)         AngularGrid ... 4 (Lebedev-302)
Angular grid pruning method      GridPruning ... 4 (adaptive)
Weight generation scheme         WeightScheme... Becke
Basis function cutoff            BFCut       ... 1.0000e-11
Integration weight cutoff        WCut        ... 1.0000e-14
Angular grids for H and He will be reduced by one unit
Partially contracted basis set               ... off
Rotationally invariant grid construction     ... off

Total number of grid points                  ...   144899
Total number of batches                      ...     2270
Average number of points per batch           ...       63
Average number of grid points per atom       ...    11146
Time for grid setup =    3.715 sec

--------------
SCF ITERATIONS
--------------
ITER       Energy         Delta-E        Max-DP      RMS-DP      [F,P]   Gradient Norm
               ***  Starting incremental Fock matrix formation  ***
                             ****Resetting KDIIS****
                             ****Turning on KDIIS(Cayley)****
  0  -2890.4384803954   0.000000000000 0.37796655  0.00203202  0.3336127   0.249041275
  1  -2892.4013492576  -1.962868862190 0.56874085  0.00186025  0.2983108   0.166338365
  2  -2892.9508134968  -0.549464239176 0.16837103  0.00127398  0.2354335   0.124091737
  3  -2893.1829223766  -0.232108879783 0.16969539  0.00156329  0.1375361   0.073990923
  4  -2893.2596541333  -0.076731756684 0.04371672  0.00056866  0.0253662   0.024305368
  5  -2893.3106610957  -0.051006962396 0.26858741  0.00091069  0.0174301   0.011019783
  6  -2893.3405968468  -0.029935751163 0.06269095  0.00064262  0.0304102   0.012909781
  7  -2893.3628645458  -0.022267698992 0.02166439  0.00027863  0.0096510   0.007075758
  8  -2893.3683381034  -0.005473557533 0.01595586  0.00022816  0.0082514   0.006388241
  9  -2893.3759357402  -0.007597636821 0.01688702  0.00020394  0.0066613   0.003040386
 10  -2893.3797288615  -0.003793121296 0.02249310  0.00026049  0.0068271   0.004214597
 11  -2893.3843315334  -0.004602671956 0.02949190  0.00014773  0.0035879   0.002028588
 12  -2893.3846320149  -0.000300481473 0.02603711  0.00009065  0.0058995   0.003839896
 13  -2893.3849753408  -0.000343325861 0.00564148  0.00007713  0.0061668   0.003148938
 14  -2893.3858830181  -0.000907677347 0.00591950  0.00005292  0.0018213   0.001423375
 15  -2893.3859701065  -0.000087088362 0.00914034  0.00004586  0.0023328   0.001474324
 16  -2893.3862315870  -0.000261480488 0.00432597  0.00002816  0.0016370   0.000954919
 17  -2893.3863949607  -0.000163373768 0.00250456  0.00003753  0.0017090   0.000504961
 18  -2893.3865933075  -0.000198346817 0.00412548  0.00001919  0.0014156   0.000637752
 19  -2893.3865857642   0.000007543306 0.00178684  0.00002770  0.0017686   0.001038902
               *** Restarting incremental Fock matrix formation ***
                             ****Resetting KDIIS****
 20  -2893.3867526484  -0.000166884141 0.00089826  0.00000480  0.0015296   0.000555387
 21  -2893.3867803362  -0.000027687848 0.00062450  0.00000596  0.0014923   0.000402972

 WARNING: the maximum gradient error descreased on average only by a factor   1.1
          during the last 20 iterations

                      *** Initiating the TRAH-SCF procedure ***

                    *** KDIIS BlockDiag ( 0.160 sec) ***

TRAH GRID
---------

General Integration Accuracy     IntAcc      ... 3.467
Radial Grid Type                 RadialGrid  ... OptM3 with GC (2021)
Angular Grid (max. ang.)         AngularGrid ... 1 (Lebedev-50)
Angular grid pruning method      GridPruning ... 4 (adaptive)
Weight generation scheme         WeightScheme... Becke
Basis function cutoff            BFCut       ... 1.0000e-11
Integration weight cutoff        WCut        ... 1.0000e-14
Angular grids for H and He will be reduced by one unit
Partially contracted basis set               ... off
Rotationally invariant grid construction     ... off

Total number of grid points                  ...    62552
Total number of batches                      ...      984
Average number of points per batch           ...       63
Average number of grid points per atom       ...     4812

 --------------------------------------------------------------------------------------------
   Iter.        energy            ||Error||_2        Shift      TRadius  Mac/Mic        Rej.
 --------------------------------------------------------------------------------------------
WARNING: 1 diagonal Hessian elements are negative!
    0      -2893.386813512119     5.549363e-03                     0.400 (TRAH MAcro)   No
WARNING : small    HOMO - LUMO gap : (op = alpha) 0.011766
WARNING : negative HOMO - LUMO gap : (op =  beta) -0.007462
    0     dE    -7.254110e-06     1.499525e-02    -7.2541e-06      0.001 (TRAH MIcro)
    0     dE    -3.295111e-04     1.660382e-02    -3.2561e-04      0.109 (TRAH MIcro)
    0     dE    -4.619063e-04     1.830856e-02    -4.5135e-04      0.153 (TRAH MIcro)
    0     dE    -5.308654e-04     1.214722e-02    -5.1541e-04      0.173 (TRAH MIcro)
    0     dE    -5.895123e-04     1.069413e-02    -5.6873e-04      0.191 (TRAH MIcro)
    0     dE    -6.281215e-04     8.033419e-03    -6.0297e-04      0.204 (TRAH MIcro)
    0     dE    -6.608712e-04     7.970884e-03    -6.3105e-04      0.217 (TRAH MIcro)
    0     dE    -7.031929e-04     9.099483e-03    -6.6549e-04      0.238 (TRAH MIcro)
    0     dE    -7.607944e-04     1.200921e-02    -7.1127e-04      0.264 (TRAH MIcro)
    0     dE    -9.052262e-04     1.701708e-02    -8.2426e-04      0.313 (TRAH MIcro)
    0     dE    -1.362000e-03     2.527798e-02    -2.1153e-03      0.400 (TRAH MIcro)
    0     dE    -2.110811e-03     3.362120e-02    -6.1995e-03      0.400 (TRAH MIcro)
    0     dE    -3.221507e-03     3.855729e-02    -1.2544e-02      0.400 (TRAH MIcro)
    0     dE    -3.916459e-03     1.906050e-02    -1.8176e-02      0.388 (TRAH MIcro)
    1      -2893.389930447312     3.972202e-02                     0.480 (TRAH MAcro)   No
WARNING : small    HOMO - LUMO gap : (op = alpha) 0.013532
WARNING : small    HOMO - LUMO gap : (op =  beta) 0.007552
    1     dE    -2.678053e-04     8.018280e-02    -2.6779e-04      0.007 (TRAH MIcro)
    1     dE    -4.857421e-03     7.619421e-02    -5.7826e-03      0.480 (TRAH MIcro)
    1     dE    -5.729507e-03     5.840281e-02    -1.0612e-02      0.480 (TRAH MIcro)
    1     dE    -6.379705e-03     2.593523e-02    -1.3117e-02      0.480 (TRAH MIcro)
    1     dE    -6.870627e-03     1.503590e-02    -1.5066e-02      0.480 (TRAH MIcro)
    1     dE    -6.974057e-03     7.923598e-03    -1.5472e-02      0.480 (TRAH MIcro)
    1     dE    -7.003693e-03     3.564457e-03    -1.5643e-02      0.480 (TRAH MIcro)
    2      -2893.396121407573     2.354615e-02                     0.576 (TRAH MAcro)   No
WARNING : small    HOMO - LUMO gap : (op = alpha) 0.014452
WARNING : small    HOMO - LUMO gap : (op =  beta) 0.014870
    2     dE    -9.661875e-05     5.242252e-02    -9.6617e-05      0.004 (TRAH MIcro)
    2     dE    -6.391123e-04     4.191092e-02    -6.3538e-04      0.077 (TRAH MIcro)
    2     dE    -3.081576e-03     2.921271e-02    -2.6394e-03      0.409 (TRAH MIcro)
    2     dE    -3.841572e-03     2.288461e-02    -3.0974e-03      0.490 (TRAH MIcro)
    2     dE    -4.456031e-03     1.600694e-02    -3.4345e-03      0.545 (TRAH MIcro)
    2     dE    -4.647683e-03     9.576002e-03    -3.5339e-03      0.561 (TRAH MIcro)
    2     dE    -4.709788e-03     4.629623e-03    -3.5619e-03      0.568 (TRAH MIcro)
    2     dE    -4.724917e-03     2.230391e-03    -3.5685e-03      0.569 (TRAH MIcro)
    3      -2893.399552476140     3.724095e-02                     0.576 (TRAH MAcro)   No
WARNING : small    HOMO - LUMO gap : (op = alpha) 0.014338
    3     dE    -2.639278e-04     3.743914e-02    -2.6391e-04      0.007 (TRAH MIcro)
    3     dE    -4.287822e-04     1.454167e-02    -4.2862e-04      0.020 (TRAH MIcro)
    3     dE    -5.344064e-04     1.210619e-02    -5.3382e-04      0.033 (TRAH MIcro)
    3     dE    -6.251981e-04     5.245243e-03    -6.2329e-04      0.055 (TRAH MIcro)
    3     dE    -6.382313e-04     3.150636e-03    -6.3595e-04      0.060 (TRAH MIcro)
    4      -2893.400189305881     3.222315e-03                     0.691 (TRAH MAcro)   No
WARNING : small    HOMO - LUMO gap : (op = alpha) 0.015678
    4     dE    -5.833910e-07     1.164889e-02    -5.8340e-07      0.000 (TRAH MIcro)
    4     dE    -9.354758e-06     3.384660e-03    -9.3540e-06      0.009 (TRAH MIcro)
    4     dE    -1.441069e-05     5.197543e-03    -1.4407e-05      0.016 (TRAH MIcro)
    4     dE    -2.348889e-05     5.776276e-03    -2.3467e-05      0.031 (TRAH MIcro)
    4     dE    -2.643169e-05     3.199390e-03    -2.6396e-05      0.037 (TRAH MIcro)
    4     dE    -2.875565e-05     9.174598e-04    -2.8704e-05      0.042 (TRAH MIcro)
    4     dE    -2.917865e-05     5.339225e-04    -2.9123e-05      0.044 (TRAH MIcro)
    4     dE    -2.934813e-05     3.544826e-04    -2.9291e-05      0.044 (TRAH MIcro)
    4     dE    -2.939649e-05     1.851291e-04    -2.9339e-05      0.044 (TRAH MIcro)
    5      -2893.400218612430     6.390805e-04                           (NR   MAcro)
WARNING : small    HOMO - LUMO gap : (op = alpha) 0.015628
    5     dE    -1.066811e-07     2.003784e-04                           (NR   MIcro)
    5     dE    -1.251858e-07     1.105963e-04                           (NR   MIcro)
    5     dE    -1.358797e-07     8.975508e-05                           (NR   MIcro)
    5     dE    -1.407498e-07     5.822208e-05                           (NR   MIcro)
    5     dE    -1.427142e-07     2.800330e-05                           (NR   MIcro)
    5     dE    -1.431252e-07     2.083983e-05                           (NR   MIcro)
    5     dE    -1.434458e-07     1.059639e-05                           (NR   MIcro)
    5     dE    -1.435063e-07     5.853219e-06                           (NR   MIcro)
    5     dE    -1.435323e-07     4.220912e-06                           (NR   MIcro)
    5     dE    -1.435454e-07     3.175557e-06                           (NR   MIcro)
    6      -2893.400218756137     3.260109e-06                           (NR   MAcro)
WARNING : small    HOMO - LUMO gap : (op = alpha) 0.015634
    6     dE    -5.591598e-12     2.059039e-06                           (NR   MIcro)
    6     dE    -8.306465e-12     2.479735e-06                           (NR   MIcro)
    6     dE    -1.188515e-11     1.850701e-06                           (NR   MIcro)
    6     dE    -1.405910e-11     1.200499e-06                           (NR   MIcro)
    6     dE    -1.495693e-11     7.399669e-07                           (NR   MIcro)
    7      -2893.400218756143     7.397855e-07                           (NR   MAcro)
WARNING : small    HOMO - LUMO gap : (op = alpha) 0.015634

               *****************************************************
               *                     SUCCESS                       *
               *           SCF CONVERGED AFTER  88 CYCLES          *
               *****************************************************


----------------
TOTAL SCF ENERGY
----------------

Total Energy       :        -2893.40021876 Eh          -78733.42268 eV

Components:
Nuclear Repulsion  :         4360.00447673 Eh          118641.75344 eV
Electronic Energy  :        -7253.40469549 Eh         -197375.17612 eV
One Electron Energy:       -13320.17078456 Eh         -362460.27417 eV
Two Electron Energy:         6066.76608907 Eh          165085.09805 eV

Virial components:
Potential Energy   :        -4704.41709852 Eh         -128013.69734 eV
Kinetic Energy     :         1811.01687976 Eh           49280.27466 eV
Virial Ratio       :            2.59766607


DFT components:
N(Alpha)           :      129.000037132362 electrons
N(Beta)            :      125.000039387448 electrons
N(Total)           :      254.000076519810 electrons
E(X)               :     -198.893012183822 Eh       
E(C)               :      -11.082678529748 Eh       
E(XC)              :     -209.975690713570 Eh       
DFET-embed. en.    :        0.000000000000 Eh       

---------------
SCF CONVERGENCE
---------------

  Last Energy change         ...   -5.9117e-12  Tolerance :   1.0000e-08
  Last Orbital Gradient      ...    7.3979e-07  Tolerance :   1.0000e-05
  Last Orbital Rotation      ...    2.4812e-05

             **** THE GBW FILE WAS UPDATED (pbe.gbw) ****
             **** DENSITY pbe.scfp WAS UPDATED ****
             **** ENERGY FILE WAS UPDATED (pbe.en.tmp) ****
----------------------
UHF SPIN CONTAMINATION
----------------------

Warning: in a DFT calculation there is little theoretical justification to 
         calculate <S**2> as in Hartree-Fock theory. We will do it anyways
         but you should keep in mind that the values have only limited relevance

Expectation value of <S**2>     :     6.287123
Ideal value S*(S+1) for S=2.0   :     6.000000
Deviation                       :     0.287123

             **** THE GBW FILE WAS UPDATED (pbe.gbw) ****
             **** DENSITY pbe.scfp WAS UPDATED ****
----------------
ORBITAL ENERGIES
----------------
                 SPIN UP ORBITALS
  NO   OCC          E(Eh)            E(eV) 
   0   1.0000    -254.765269     -6932.5154 
   1   1.0000     -29.606957      -805.6463 
   2   1.0000     -25.545263      -695.1219 
   3   1.0000     -25.541689      -695.0247 
   4   1.0000     -25.538598      -694.9406 
   5   1.0000      -4.033836      -109.7662 
   6   1.0000      -4.029013      -109.6350 
   7   1.0000      -4.027890      -109.6045 
   8   1.0000      -4.027619      -109.5971 
   9   1.0000      -4.026524      -109.5673 
  10   1.0000      -4.024351      -109.5082 
  11   1.0000      -4.022919      -109.4692 
  12   1.0000      -4.021736      -109.4370 
  13   1.0000      -4.020410      -109.4009 
  14   1.0000      -4.019489      -109.3759 
  15   1.0000      -4.019243      -109.3692 
  16   1.0000      -4.016555      -109.2960 
  17   1.0000      -3.385907       -92.1352 
  18   1.0000      -2.252971       -61.3065 
  19   1.0000      -2.246997       -61.1439 
  20   1.0000      -2.245653       -61.1073 
  21   1.0000      -2.245474       -61.1025 
  22   1.0000      -2.245215       -61.0954 
  23   1.0000      -2.243687       -61.0538 
  24   1.0000      -2.243535       -61.0497 
  25   1.0000      -2.243134       -61.0388 
  26   1.0000      -2.241389       -60.9913 
  27   1.0000      -2.240924       -60.9786 
  28   1.0000      -2.240797       -60.9752 
  29   1.0000      -2.239703       -60.9454 
  30   1.0000      -2.238924       -60.9242 
  31   1.0000      -2.238144       -60.9030 
  32   1.0000      -2.237944       -60.8976 
  33   1.0000      -2.237755       -60.8924 
  34   1.0000      -2.237077       -60.8740 
  35   1.0000      -2.236552       -60.8597 
  36   1.0000      -2.236095       -60.8472 
  37   1.0000      -2.235849       -60.8405 
  38   1.0000      -2.235435       -60.8293 
  39   1.0000      -2.234926       -60.8154 
  40   1.0000      -2.234642       -60.8077 
  41   1.0000      -2.234245       -60.7969 
  42   1.0000      -2.234041       -60.7914 
  43   1.0000      -2.233493       -60.7764 
  44   1.0000      -2.232297       -60.7439 
  45   1.0000      -2.231958       -60.7347 
  46   1.0000      -2.231502       -60.7222 
  47   1.0000      -2.231429       -60.7203 
  48   1.0000      -2.231230       -60.7148 
  49   1.0000      -2.231040       -60.7097 
  50   1.0000      -2.228442       -60.6390 
  51   1.0000      -2.227298       -60.6079 
  52   1.0000      -2.226138       -60.5763 
  53   1.0000      -2.225344       -60.5547 
  54   1.0000      -2.206252       -60.0352 
  55   1.0000      -2.198866       -59.8342 
  56   1.0000      -2.192499       -59.6609 
  57   1.0000      -0.428833       -11.6691 
  58   1.0000      -0.388135       -10.5617 
  59   1.0000      -0.385253       -10.4833 
  60   1.0000      -0.380865       -10.3639 
  61   1.0000      -0.377445       -10.2708 
  62   1.0000      -0.370998       -10.0954 
  63   1.0000      -0.366872        -9.9831 
  64   1.0000      -0.363330        -9.8867 
  65   1.0000      -0.354015        -9.6332 
  66   1.0000      -0.351597        -9.5674 
  67   1.0000      -0.347469        -9.4551 
  68   1.0000      -0.344090        -9.3632 
  69   1.0000      -0.342804        -9.3282 
  70   1.0000      -0.337654        -9.1880 
  71   1.0000      -0.335430        -9.1275 
  72   1.0000      -0.334287        -9.0964 
  73   1.0000      -0.331756        -9.0276 
  74   1.0000      -0.330881        -9.0037 
  75   1.0000      -0.329942        -8.9782 
  76   1.0000      -0.328457        -8.9378 
  77   1.0000      -0.327335        -8.9072 
  78   1.0000      -0.323116        -8.7924 
  79   1.0000      -0.320867        -8.7312 
  80   1.0000      -0.317607        -8.6425 
  81   1.0000      -0.316544        -8.6136 
  82   1.0000      -0.313918        -8.5421 
  83   1.0000      -0.309555        -8.4234 
  84   1.0000      -0.303210        -8.2508 
  85   1.0000      -0.300610        -8.1800 
  86   1.0000      -0.299030        -8.1370 
  87   1.0000      -0.294924        -8.0253 
  88   1.0000      -0.291377        -7.9288 
  89   1.0000      -0.291134        -7.9221 
  90   1.0000      -0.288199        -7.8423 
  91   1.0000      -0.286805        -7.8044 
  92   1.0000      -0.285094        -7.7578 
  93   1.0000      -0.282845        -7.6966 
  94   1.0000      -0.280803        -7.6410 
  95   1.0000      -0.279357        -7.6017 
  96   1.0000      -0.278008        -7.5650 
  97   1.0000      -0.276916        -7.5353 
  98   1.0000      -0.274089        -7.4583 
  99   1.0000      -0.272004        -7.4016 
 100   1.0000      -0.269737        -7.3399 
 101   1.0000      -0.269335        -7.3290 
 102   1.0000      -0.268171        -7.2973 
 103   1.0000      -0.266656        -7.2561 
 104   1.0000      -0.265439        -7.2230 
 105   1.0000      -0.264065        -7.1856 
 106   1.0000      -0.263150        -7.1607 
 107   1.0000      -0.261842        -7.1251 
 108   1.0000      -0.260295        -7.0830 
 109   1.0000      -0.259097        -7.0504 
 110   1.0000      -0.258099        -7.0232 
 111   1.0000      -0.256163        -6.9705 
 112   1.0000      -0.255614        -6.9556 
 113   1.0000      -0.254798        -6.9334 
 114   1.0000      -0.253094        -6.8870 
 115   1.0000      -0.252463        -6.8699 
 116   1.0000      -0.251360        -6.8399 
 117   1.0000      -0.249751        -6.7961 
 118   1.0000      -0.249300        -6.7838 
 119   1.0000      -0.247776        -6.7423 
 120   1.0000      -0.244614        -6.6563 
 121   1.0000      -0.240837        -6.5535 
 122   1.0000      -0.239891        -6.5278 
 123   1.0000      -0.237891        -6.4733 
 124   1.0000      -0.234316        -6.3761 
 125   1.0000      -0.232533        -6.3275 
 126   1.0000      -0.220188        -5.9916 
 127   1.0000      -0.194279        -5.2866 
 128   1.0000      -0.182681        -4.9710 
 129   0.0000      -0.167047        -4.5456 
 130   0.0000      -0.146897        -3.9973 
 131   0.0000      -0.137561        -3.7432 
 132   0.0000      -0.135407        -3.6846 
 133   0.0000      -0.115390        -3.1399 
 134   0.0000      -0.106337        -2.8936 
 135   0.0000      -0.063958        -1.7404 
 136   0.0000      -0.059648        -1.6231 
 137   0.0000      -0.059041        -1.6066 
 138   0.0000      -0.055591        -1.5127 
 139   0.0000      -0.052731        -1.4349 
 140   0.0000      -0.045891        -1.2488 
 141   0.0000      -0.036620        -0.9965 
 142   0.0000      -0.028578        -0.7776 
 143   0.0000      -0.019866        -0.5406 
 144   0.0000      -0.010307        -0.2805 
 145   0.0000       0.000606         0.0165 
 146   0.0000       0.011381         0.3097 
 147   0.0000       0.024898         0.6775 
 148   0.0000       0.032005         0.8709 
 149   0.0000       0.037508         1.0206 
 150   0.0000       0.043761         1.1908 
 151   0.0000       0.047102         1.2817 
 152   0.0000       0.049373         1.3435 
 153   0.0000       0.053278         1.4498 
 154   0.0000       0.056951         1.5497 
 155   0.0000       0.058659         1.5962 
 156   0.0000       0.062011         1.6874 
 157   0.0000       0.067335         1.8323 
 158   0.0000       0.071680         1.9505 
 159   0.0000       0.072835         1.9820 
 160   0.0000       0.077951         2.1212 
 161   0.0000       0.086094         2.3427 
 162   0.0000       0.091130         2.4798 
 163   0.0000       0.100156         2.7254 
 164   0.0000       0.100798         2.7429 
 165   0.0000       0.114992         3.1291 
 166   0.0000       0.119983         3.2649 
 167   0.0000       0.127810         3.4779 
 168   0.0000       0.136317         3.7094 
 169   0.0000       0.142182         3.8690 
 170   0.0000       0.147466         4.0127 
 171   0.0000       0.148689         4.0460 
 172   0.0000       0.152129         4.1396 
 173   0.0000       0.157730         4.2921 
 174   0.0000       0.169753         4.6192 
 175   0.0000       0.172322         4.6891 
 176   0.0000       0.178012         4.8439 
 177   0.0000       0.181157         4.9295 
 178   0.0000       0.183784         5.0010 
 179   0.0000       0.200094         5.4448 
 180   0.0000       0.203088         5.5263 
 181   0.0000       0.206490         5.6189 
 182   0.0000       0.211488         5.7549 
 183   0.0000       0.216015         5.8781 
 184   0.0000       0.220058         5.9881 
 185   0.0000       0.232356         6.3227 
 186   0.0000       0.234061         6.3691 
 187   0.0000       0.236097         6.4245 
 188   0.0000       0.243342         6.6217 
 189   0.0000       0.246227         6.7002 
 190   0.0000       0.250904         6.8274 
 191   0.0000       0.257103         6.9961 
 192   0.0000       0.259276         7.0553 
 193   0.0000       0.269751         7.3403 
 194   0.0000       0.273111         7.4317 
 195   0.0000       0.279313         7.6005 
 196   0.0000       0.282393         7.6843 
 197   0.0000       0.283932         7.7262 
 198   0.0000       0.285659         7.7732 
 199   0.0000       0.291789         7.9400 
 200   0.0000       0.297523         8.0960 
 201   0.0000       0.303093         8.2476 
 202   0.0000       0.307138         8.3577 
 203   0.0000       0.313859         8.5405 
 204   0.0000       0.320199         8.7131 
 205   0.0000       0.322247         8.7688 
 206   0.0000       0.322994         8.7891 
 207   0.0000       0.329511         8.9665 
 208   0.0000       0.336596         9.1593 
 209   0.0000       0.338920         9.2225 
 210   0.0000       0.344313         9.3692 
 211   0.0000       0.347041         9.4435 
 212   0.0000       0.352014         9.5788 
 213   0.0000       0.364247         9.9117 
 214   0.0000       0.366006         9.9595 
 215   0.0000       0.373401        10.1607 
 216   0.0000       0.376449        10.2437 
 217   0.0000       0.383256        10.4289 
 218   0.0000       0.386922        10.5287 
 219   0.0000       0.391351        10.6492 
 220   0.0000       0.401154        10.9159 
 221   0.0000       0.402291        10.9469 
 222   0.0000       0.411324        11.1927 
 223   0.0000       0.417323        11.3559 
 224   0.0000       0.421134        11.4596 
 225   0.0000       0.428546        11.6613 
 226   0.0000       0.433539        11.7972 
 227   0.0000       0.438980        11.9453 
 228   0.0000       0.439356        11.9555 
 229   0.0000       0.441663        12.0183 
 230   0.0000       0.445765        12.1299 
 231   0.0000       0.449080        12.2201 
 232   0.0000       0.466403        12.6915 
 233   0.0000       0.475857        12.9487 
 234   0.0000       0.480259        13.0685 
 235   0.0000       0.482981        13.1426 
 236   0.0000       0.485696        13.2165 
 237   0.0000       0.488923        13.3043 
 238   0.0000       0.491480        13.3738 
 239   0.0000       0.494387        13.4529 
 240   0.0000       0.499547        13.5934 
 241   0.0000       0.501930        13.6582 
 242   0.0000       0.504902        13.7391 
 243   0.0000       0.508804        13.8453 
 244   0.0000       0.514677        14.0051 
 245   0.0000       0.522767        14.2252 
 246   0.0000       0.532311        14.4849 
 247   0.0000       0.535438        14.5700 
 248   0.0000       0.542634        14.7658 
 249   0.0000       0.551646        15.0110 
 250   0.0000       0.555771        15.1233 
 251   0.0000       0.569348        15.4928 
 252   0.0000       0.587058        15.9747 
 253   0.0000       0.592918        16.1341 
 254   0.0000       0.624166        16.9844 
 255   0.0000       0.646283        17.5863 
 256   0.0000       0.662481        18.0270 
 257   0.0000       0.672604        18.3025 
 258   0.0000       0.683830        18.6080 
 259   0.0000       0.688069        18.7233 
 260   0.0000       0.690007        18.7760 
 261   0.0000       0.703135        19.1333 
 262   0.0000       0.713568        19.4172 
 263   0.0000       0.719974        19.5915 
 264   0.0000       0.727595        19.7989 
 265   0.0000       0.749172        20.3860 
 266   0.0000       0.760600        20.6970 
 267   0.0000       0.763947        20.7881 
 268   0.0000       0.769153        20.9297 
 269   0.0000       0.780879        21.2488 
 270   0.0000       0.793765        21.5994 
 271   0.0000       0.806773        21.9534 
 272   0.0000       0.834316        22.7029 
 273   0.0000       0.837921        22.8010 
 274   0.0000       0.860546        23.4167 
 275   0.0000       0.874088        23.7851 
 276   0.0000       0.880318        23.9547 
 277   0.0000       0.896479        24.3944 
 278   0.0000       0.904972        24.6255 
 279   0.0000       0.915483        24.9116 
 280   0.0000       0.919156        25.0115 
 281   0.0000       0.922673        25.1072 
 282   0.0000       0.938527        25.5386 
 283   0.0000       0.940166        25.5832 
 284   0.0000       0.955507        26.0007 
 285   0.0000       0.991163        26.9709 
 286   0.0000       0.999748        27.2045 
 287   0.0000       1.040752        28.3203 
 288   0.0000       1.079891        29.3853 
 289   0.0000       1.104051        30.0428 
 290   0.0000       1.121146        30.5079 
 291   0.0000       1.181052        32.1380 
 292   0.0000       1.185764        32.2663 
 293   0.0000       1.200863        32.6771 
 294   0.0000       1.224675        33.3251 
 295   0.0000       1.229824        33.4652 
 296   0.0000       1.260814        34.3085 
 297   0.0000       1.268539        34.5187 
 298   0.0000       1.274932        34.6927 
 299   0.0000       1.285584        34.9825 
 300   0.0000       1.291708        35.1492 
 301   0.0000       1.297980        35.3198 
 302   0.0000       1.328424        36.1483 
 303   0.0000       1.331792        36.2399 
 304   0.0000       1.336637        36.3717 
 305   0.0000       1.343624        36.5619 
 306   0.0000       1.348919        36.7060 
 307   0.0000       1.355425        36.8830 
 308   0.0000       1.368760        37.2459 
 309   0.0000       1.371518        37.3209 
 310   0.0000       1.374799        37.4102 
 311   0.0000       1.385233        37.6941 
 312   0.0000       1.387237        37.7486 
 313   0.0000       1.397551        38.0293 
 314   0.0000       1.400053        38.0974 
 315   0.0000       1.406035        38.2601 
 316   0.0000       1.407038        38.2875 
 317   0.0000       1.408463        38.3262 
 318   0.0000       1.414153        38.4810 
 319   0.0000       1.421724        38.6871 
 320   0.0000       1.427688        38.8494 
 321   0.0000       1.430857        38.9356 
 322   0.0000       1.436322        39.0843 
 323   0.0000       1.442197        39.2442 
 324   0.0000       1.444043        39.2944 
 325   0.0000       1.447557        39.3900 
 326   0.0000       1.450304        39.4648 
 327   0.0000       1.454783        39.5867 
 328   0.0000       1.458421        39.6857 
 329   0.0000       1.459549        39.7163 
 330   0.0000       1.461314        39.7644 
 331   0.0000       1.467622        39.9360 
 332   0.0000       1.471591        40.0440 
 333   0.0000       1.472359        40.0649 
 334   0.0000       1.473660        40.1003 
 335   0.0000       1.476683        40.1826 
 336   0.0000       1.481177        40.3049 
 337   0.0000       1.481834        40.3228 
 338   0.0000       1.482610        40.3439 
 339   0.0000       1.482947        40.3530 
 340   0.0000       1.487947        40.4891 
 341   0.0000       1.489020        40.5183 
 342   0.0000       1.490197        40.5503 
 343   0.0000       1.491677        40.5906 
 344   0.0000       1.492098        40.6021 
 345   0.0000       1.493996        40.6537 
 346   0.0000       1.497308        40.7438 
 347   0.0000       1.497880        40.7594 
 348   0.0000       1.500288        40.8249 
 349   0.0000       1.500804        40.8390 
 350   0.0000       1.502263        40.8786 
 351   0.0000       1.503197        40.9041 
 352   0.0000       1.504210        40.9316 
 353   0.0000       1.506426        40.9919 
 354   0.0000       1.507524        41.0218 
 355   0.0000       1.509217        41.0679 
 356   0.0000       1.510574        41.1048 
 357   0.0000       1.513841        41.1937 
 358   0.0000       1.514566        41.2134 
 359   0.0000       1.516033        41.2534 
 360   0.0000       1.516868        41.2761 
 361   0.0000       1.518471        41.3197 
 362   0.0000       1.520112        41.3644 
 363   0.0000       1.522628        41.4328 
 364   0.0000       1.523807        41.4649 
 365   0.0000       1.526172        41.5292 
 366   0.0000       1.527703        41.5709 
 367   0.0000       1.530570        41.6489 
 368   0.0000       1.532737        41.7079 
 369   0.0000       1.535846        41.7925 
 370   0.0000       1.536037        41.7977 
 371   0.0000       1.539535        41.8929 
 372   0.0000       1.540806        41.9275 
 373   0.0000       1.544802        42.0362 
 374   0.0000       1.547048        42.0973 
 375   0.0000       1.549953        42.1764 
 376   0.0000       1.550174        42.1824 
 377   0.0000       1.551968        42.2312 
 378   0.0000       1.552653        42.2498 
 379   0.0000       1.554763        42.3073 
 380   0.0000       1.558551        42.4103 
 381   0.0000       1.562272        42.5116 
 382   0.0000       1.565408        42.5969 
 383   0.0000       1.567615        42.6570 
 384   0.0000       1.568582        42.6833 
 385   0.0000       1.570651        42.7396 
 386   0.0000       1.573639        42.8209 
 387   0.0000       1.578831        42.9622 
 388   0.0000       1.581994        43.0483 
 389   0.0000       1.583511        43.0895 
 390   0.0000       1.584739        43.1229 
 391   0.0000       1.588750        43.2321 
 392   0.0000       1.591001        43.2933 
 393   0.0000       1.598293        43.4918 
 394   0.0000       1.600932        43.5636 
 395   0.0000       1.603211        43.6256 
 396   0.0000       1.605565        43.6897 
 397   0.0000       1.607471        43.7415 
 398   0.0000       1.611056        43.8391 
 399   0.0000       1.614264        43.9264 
 400   0.0000       1.615043        43.9476 
 401   0.0000       1.617190        44.0060 
 402   0.0000       1.623525        44.1784 
 403   0.0000       1.632111        44.4120 
 404   0.0000       1.634339        44.4726 
 405   0.0000       1.638840        44.5951 
 406   0.0000       1.645168        44.7673 
 407   0.0000       1.653519        44.9945 
 408   0.0000       1.659684        45.1623 
 409   0.0000       1.672838        45.5202 
 410   0.0000       1.679169        45.6925 
 411   0.0000       1.688618        45.9496 
 412   0.0000       1.691739        46.0346 
 413   0.0000       1.695755        46.1438 
 414   0.0000       1.699001        46.2322 
 415   0.0000       1.717255        46.7289 
 416   0.0000       1.726127        46.9703 
 417   0.0000       1.733655        47.1752 
 418   0.0000       1.742274        47.4097 
 419   0.0000       1.749409        47.6038 
 420   0.0000       1.766494        48.0688 
 421   0.0000       1.772933        48.2440 
 422   0.0000       1.778963        48.4081 
 423   0.0000       1.794311        48.8257 
 424   0.0000       1.811276        49.2873 
 425   0.0000       1.814909        49.3862 
 426   0.0000       1.819059        49.4991 
 427   0.0000       1.829194        49.7749 
 428   0.0000       1.847660        50.2774 
 429   0.0000       1.859023        50.5866 
 430   0.0000       1.874927        51.0194 
 431   0.0000       1.901824        51.7512 
 432   0.0000       1.914193        52.0878 
 433   0.0000       1.948461        53.0203 
 434   0.0000       1.959359        53.3169 
 435   0.0000       1.983674        53.9785 
 436   0.0000       2.058381        56.0114 
 437   0.0000       2.126944        57.8771 
 438   0.0000       2.224171        60.5228 
 439   0.0000       2.271919        61.8221 
 440   0.0000       2.289443        62.2989 
 441   0.0000       2.325493        63.2799 
 442   0.0000       2.380340        64.7723 
 443   0.0000       2.402257        65.3687 
 444   0.0000       2.416780        65.7639 
 445   0.0000       2.436995        66.3140 
 446   0.0000       2.444400        66.5155 
 447   0.0000       2.468294        67.1657 
 448   0.0000       2.502700        68.1019 
 449   0.0000       2.506238        68.1982 
 450   0.0000       2.535365        68.9908 
 451   0.0000       2.570640        69.9507 
 452   0.0000       3.236285        88.0638 
 453   0.0000       3.513841        95.6165 
 454   0.0000       3.583470        97.5112 
 455   0.0000       3.622503        98.5733 
 456   0.0000       3.646342        99.2220 
 457   0.0000       3.733554       101.5952 
 458   0.0000       3.890538       105.8669 
 459   0.0000       3.892210       105.9124 
 460   0.0000       3.896438       106.0275 
 461   0.0000       3.901958       106.1777 
 462   0.0000       3.906153       106.2918 
 463   0.0000       3.909370       106.3794 
 464   0.0000       3.926549       106.8468 
 465   0.0000      23.642241       643.3381 
 466   0.0000      23.742515       646.0667 
 467   0.0000      23.860047       649.2649 
 468   0.0000      24.061009       654.7333 
 469   0.0000      24.372815       663.2180 
 470   0.0000      24.503741       666.7807 
 471   0.0000      24.619965       669.9433 
 472   0.0000      24.873232       676.8351 
 473   0.0000      25.093293       682.8232 
 474   0.0000      25.216544       686.1770 
 475   0.0000      25.270836       687.6544 
 476   0.0000      25.421148       691.7446 
 477   0.0000      25.467879       693.0162 
 478   0.0000      25.549379       695.2340 
 479   0.0000      25.818089       702.5459 
 480   0.0000      25.835133       703.0097 
 481   0.0000      26.120043       710.7625 
 482   0.0000      26.160844       711.8728 
 483   0.0000      26.247788       714.2386 
 484   0.0000      26.324696       716.3314 
 485   0.0000      26.434374       719.3159 
 486   0.0000      26.516018       721.5375 
 487   0.0000      26.595020       723.6873 
 488   0.0000      26.759938       728.1749 
 489   0.0000      27.010333       734.9885 
 490   0.0000      27.161756       739.1090 
 491   0.0000      27.359400       744.4871 
 492   0.0000      27.741731       754.8909 
 493   0.0000      27.875557       758.5325 
 494   0.0000      28.015305       762.3352 
 495   0.0000      28.128317       765.4104 
 496   0.0000      28.174463       766.6661 
 497   0.0000      28.470096       774.7107 
 498   0.0000      28.898198       786.3599 
 499   0.0000      29.472472       801.9867 
 500   0.0000      30.637775       833.6962 
 501   0.0000      43.846875      1193.1341 
 502   0.0000      43.983709      1196.8576 
 503   0.0000      44.011499      1197.6138 
 504   0.0000      44.039491      1198.3755 
 505   0.0000      44.069910      1199.2032 
 506   0.0000      44.117917      1200.5095 
 507   0.0000      44.128853      1200.8071 
 508   0.0000      44.139052      1201.0847 
 509   0.0000      44.148036      1201.3291 
 510   0.0000      44.155183      1201.5236 
 511   0.0000      44.198332      1202.6977 
 512   0.0000      44.229606      1203.5488 
 513   0.0000     205.069655      5580.2290 
 514   0.0000     205.125757      5581.7556 
 515   0.0000     205.134394      5581.9906 
 516   0.0000     205.144118      5582.2553 
 517   0.0000     205.159482      5582.6733 
 518   0.0000     205.181615      5583.2756 
 519   0.0000     205.186672      5583.4132 
 520   0.0000     205.189858      5583.4999 
 521   0.0000     205.193953      5583.6113 
 522   0.0000     205.197980      5583.7209 
 523   0.0000     205.212861      5584.1259 
 524   0.0000     205.223758      5584.4224 

                 SPIN DOWN ORBITALS
  NO   OCC          E(Eh)            E(eV) 
   0   1.0000    -254.764535     -6932.4954 
   1   1.0000     -29.546275      -803.9950 
   2   1.0000     -25.497315      -693.8172 
   3   1.0000     -25.496306      -693.7898 
   4   1.0000     -25.494416      -693.7383 
   5   1.0000      -4.033056      -109.7450 
   6   1.0000      -4.028488      -109.6207 
   7   1.0000      -4.026725      -109.5728 
   8   1.0000      -4.026280      -109.5607 
   9   1.0000      -4.026169      -109.5576 
  10   1.0000      -4.023430      -109.4831 
  11   1.0000      -4.022471      -109.4570 
  12   1.0000      -4.021007      -109.4172 
  13   1.0000      -4.020294      -109.3978 
  14   1.0000      -4.018412      -109.3466 
  15   1.0000      -4.018064      -109.3371 
  16   1.0000      -4.016341      -109.2902 
  17   1.0000      -3.249169       -88.4144 
  18   1.0000      -2.251923       -61.2779 
  19   1.0000      -2.245641       -61.1070 
  20   1.0000      -2.244350       -61.0719 
  21   1.0000      -2.244176       -61.0671 
  22   1.0000      -2.243349       -61.0446 
  23   1.0000      -2.242906       -61.0326 
  24   1.0000      -2.242498       -61.0215 
  25   1.0000      -2.242192       -61.0131 
  26   1.0000      -2.241079       -60.9829 
  27   1.0000      -2.239768       -60.9472 
  28   1.0000      -2.239409       -60.9374 
  29   1.0000      -2.239059       -60.9279 
  30   1.0000      -2.238426       -60.9107 
  31   1.0000      -2.237938       -60.8974 
  32   1.0000      -2.237533       -60.8864 
  33   1.0000      -2.237028       -60.8726 
  34   1.0000      -2.236142       -60.8485 
  35   1.0000      -2.235657       -60.8353 
  36   1.0000      -2.235312       -60.8259 
  37   1.0000      -2.234613       -60.8069 
  38   1.0000      -2.234536       -60.8048 
  39   1.0000      -2.234180       -60.7951 
  40   1.0000      -2.234067       -60.7920 
  41   1.0000      -2.233362       -60.7729 
  42   1.0000      -2.233251       -60.7698 
  43   1.0000      -2.232564       -60.7512 
  44   1.0000      -2.231824       -60.7310 
  45   1.0000      -2.231216       -60.7145 
  46   1.0000      -2.230941       -60.7070 
  47   1.0000      -2.230844       -60.7043 
  48   1.0000      -2.230625       -60.6984 
  49   1.0000      -2.230095       -60.6840 
  50   1.0000      -2.228076       -60.6290 
  51   1.0000      -2.226854       -60.5958 
  52   1.0000      -2.225935       -60.5708 
  53   1.0000      -2.224316       -60.5267 
  54   1.0000      -2.066572       -56.2343 
  55   1.0000      -2.066134       -56.2224 
  56   1.0000      -2.063603       -56.1535 
  57   1.0000      -0.423691       -11.5292 
  58   1.0000      -0.384994       -10.4762 
  59   1.0000      -0.383072       -10.4239 
  60   1.0000      -0.375901       -10.2288 
  61   1.0000      -0.370578       -10.0839 
  62   1.0000      -0.362851        -9.8737 
  63   1.0000      -0.357996        -9.7416 
  64   1.0000      -0.354875        -9.6566 
  65   1.0000      -0.349864        -9.5203 
  66   1.0000      -0.346753        -9.4356 
  67   1.0000      -0.343202        -9.3390 
  68   1.0000      -0.340683        -9.2704 
  69   1.0000      -0.337110        -9.1732 
  70   1.0000      -0.334852        -9.1118 
  71   1.0000      -0.332653        -9.0520 
  72   1.0000      -0.330454        -8.9921 
  73   1.0000      -0.329186        -8.9576 
  74   1.0000      -0.328168        -8.9299 
  75   1.0000      -0.325057        -8.8453 
  76   1.0000      -0.323689        -8.8080 
  77   1.0000      -0.321246        -8.7415 
  78   1.0000      -0.319122        -8.6838 
  79   1.0000      -0.315667        -8.5897 
  80   1.0000      -0.312034        -8.4909 
  81   1.0000      -0.309062        -8.4100 
  82   1.0000      -0.306608        -8.3432 
  83   1.0000      -0.306002        -8.3268 
  84   1.0000      -0.302568        -8.2333 
  85   1.0000      -0.297474        -8.0947 
  86   1.0000      -0.292319        -7.9544 
  87   1.0000      -0.291268        -7.9258 
  88   1.0000      -0.289886        -7.8882 
  89   1.0000      -0.288759        -7.8575 
  90   1.0000      -0.286484        -7.7956 
  91   1.0000      -0.283383        -7.7112 
  92   1.0000      -0.281444        -7.6585 
  93   1.0000      -0.279782        -7.6133 
  94   1.0000      -0.276626        -7.5274 
  95   1.0000      -0.275868        -7.5067 
  96   1.0000      -0.273313        -7.4372 
  97   1.0000      -0.272552        -7.4165 
  98   1.0000      -0.270316        -7.3557 
  99   1.0000      -0.269396        -7.3306 
 100   1.0000      -0.268068        -7.2945 
 101   1.0000      -0.265843        -7.2339 
 102   1.0000      -0.265648        -7.2286 
 103   1.0000      -0.265019        -7.2115 
 104   1.0000      -0.262106        -7.1323 
 105   1.0000      -0.261270        -7.1095 
 106   1.0000      -0.259782        -7.0690 
 107   1.0000      -0.258051        -7.0219 
 108   1.0000      -0.256815        -6.9883 
 109   1.0000      -0.256456        -6.9785 
 110   1.0000      -0.253869        -6.9081 
 111   1.0000      -0.252364        -6.8672 
 112   1.0000      -0.252189        -6.8624 
 113   1.0000      -0.251153        -6.8342 
 114   1.0000      -0.250179        -6.8077 
 115   1.0000      -0.247744        -6.7415 
 116   1.0000      -0.243001        -6.6124 
 117   1.0000      -0.240715        -6.5502 
 118   1.0000      -0.238652        -6.4941 
 119   1.0000      -0.233809        -6.3623 
 120   1.0000      -0.233138        -6.3440 
[...]
 140( 0) :    -0.044603 a.u.    -1.214 eV
 141( 0) :    -0.034096 a.u.    -0.928 eV
 142( 0) :    -0.027991 a.u.    -0.762 eV
 143( 0) :    -0.019121 a.u.    -0.520 eV
 144( 0) :    -0.010514 a.u.    -0.286 eV
 145( 0) :     0.000220 a.u.     0.006 eV
 146( 0) :     0.011945 a.u.     0.325 eV
 147( 0) :     0.027137 a.u.     0.738 eV
 148( 0) :     0.033579 a.u.     0.914 eV
 149( 0) :     0.036549 a.u.     0.995 eV
 150( 0) :     0.043998 a.u.     1.197 eV
 151( 0) :     0.045784 a.u.     1.246 eV
 152( 0) :     0.049642 a.u.     1.351 eV
 153( 0) :     0.052010 a.u.     1.415 eV
 154( 0) :     0.057201 a.u.     1.557 eV
 155( 0) :     0.059063 a.u.     1.607 eV
 156( 0) :     0.062989 a.u.     1.714 eV
 157( 0) :     0.066727 a.u.     1.816 eV
 158( 0) :     0.072322 a.u.     1.968 eV
 159( 0) :     0.074593 a.u.     2.030 eV
 160( 0) :     0.077869 a.u.     2.119 eV
 161( 0) :     0.086610 a.u.     2.357 eV
 162( 0) :     0.092600 a.u.     2.520 eV
 163( 0) :     0.098084 a.u.     2.669 eV
 164( 0) :     0.100799 a.u.     2.743 eV
 165( 0) :     0.117141 a.u.     3.188 eV
 166( 0) :     0.119876 a.u.     3.262 eV
 167( 0) :     0.128340 a.u.     3.492 eV
 168( 0) :     0.137088 a.u.     3.730 eV
 169( 0) :     0.141732 a.u.     3.857 eV
 170( 0) :     0.145797 a.u.     3.967 eV
 171( 0) :     0.149204 a.u.     4.060 eV
 172( 0) :     0.151778 a.u.     4.130 eV
 173( 0) :     0.158037 a.u.     4.300 eV
 174( 0) :     0.169817 a.u.     4.621 eV
 175( 0) :     0.172973 a.u.     4.707 eV
 176( 0) :     0.177664 a.u.     4.834 eV
 177( 0) :     0.181966 a.u.     4.952 eV
 178( 0) :     0.183184 a.u.     4.985 eV
 179( 0) :     0.196700 a.u.     5.352 eV
 180( 0) :     0.199571 a.u.     5.431 eV
 181( 0) :     0.206297 a.u.     5.614 eV
 182( 0) :     0.213090 a.u.     5.798 eV
 183( 0) :     0.216569 a.u.     5.893 eV
 184( 0) :     0.217920 a.u.     5.930 eV
 185( 0) :     0.232014 a.u.     6.313 eV
 186( 0) :     0.233786 a.u.     6.362 eV
 187( 0) :     0.236684 a.u.     6.440 eV
 188( 0) :     0.241468 a.u.     6.571 eV
 189( 0) :     0.246910 a.u.     6.719 eV
 190( 0) :     0.251624 a.u.     6.847 eV
 191( 0) :     0.257283 a.u.     7.001 eV
 192( 0) :     0.260025 a.u.     7.076 eV
 193( 0) :     0.272227 a.u.     7.408 eV
 194( 0) :     0.272496 a.u.     7.415 eV
 195( 0) :     0.278958 a.u.     7.591 eV
 196( 0) :     0.283127 a.u.     7.704 eV
 197( 0) :     0.284608 a.u.     7.745 eV
 198( 0) :     0.289268 a.u.     7.871 eV
 199( 0) :     0.294302 a.u.     8.008 eV
 200( 0) :     0.297026 a.u.     8.082 eV
 201( 0) :     0.302496 a.u.     8.231 eV
 202( 0) :     0.306809 a.u.     8.349 eV
 203( 0) :     0.313407 a.u.     8.528 eV
 204( 0) :     0.320657 a.u.     8.726 eV
 205( 0) :     0.323937 a.u.     8.815 eV
 206( 0) :     0.325584 a.u.     8.860 eV
 207( 0) :     0.329421 a.u.     8.964 eV
 208( 0) :     0.334864 a.u.     9.112 eV
 209( 0) :     0.340412 a.u.     9.263 eV
 210( 0) :     0.346675 a.u.     9.434 eV
 211( 0) :     0.348855 a.u.     9.493 eV
 212( 0) :     0.352724 a.u.     9.598 eV
 213( 0) :     0.361844 a.u.     9.846 eV
 214( 0) :     0.364141 a.u.     9.909 eV
 215( 0) :     0.373637 a.u.    10.167 eV
 216( 0) :     0.375242 a.u.    10.211 eV
 217( 0) :     0.384423 a.u.    10.461 eV
 218( 0) :     0.387192 a.u.    10.536 eV
 219( 0) :     0.389316 a.u.    10.594 eV
 220( 0) :     0.402417 a.u.    10.950 eV
 221( 0) :     0.403768 a.u.    10.987 eV
 222( 0) :     0.410849 a.u.    11.180 eV
 223( 0) :     0.418796 a.u.    11.396 eV
 224( 0) :     0.422462 a.u.    11.496 eV
 225( 0) :     0.429442 a.u.    11.686 eV
 226( 0) :     0.430492 a.u.    11.714 eV
 227( 0) :     0.439360 a.u.    11.956 eV
 228( 0) :     0.439922 a.u.    11.971 eV
 229( 0) :     0.442678 a.u.    12.046 eV
 230( 0) :     0.446574 a.u.    12.152 eV
 231( 0) :     0.449587 a.u.    12.234 eV
 232( 0) :     0.463096 a.u.    12.601 eV
 233( 0) :     0.475832 a.u.    12.948 eV
 234( 0) :     0.480069 a.u.    13.063 eV
 235( 0) :     0.481051 a.u.    13.090 eV
 236( 0) :     0.487452 a.u.    13.264 eV
 237( 0) :     0.489519 a.u.    13.320 eV
 238( 0) :     0.491987 a.u.    13.388 eV
 239( 0) :     0.494572 a.u.    13.458 eV
 240( 0) :     0.496241 a.u.    13.503 eV
 241( 0) :     0.498951 a.u.    13.577 eV
 242( 0) :     0.503084 a.u.    13.690 eV
 243( 0) :     0.511014 a.u.    13.905 eV
 244( 0) :     0.513819 a.u.    13.982 eV
 245( 0) :     0.523076 a.u.    14.234 eV
 246( 0) :     0.528012 a.u.    14.368 eV
 247( 0) :     0.535027 a.u.    14.559 eV
 248( 0) :     0.541894 a.u.    14.746 eV
 249( 0) :     0.551529 a.u.    15.008 eV
 250( 0) :     0.556990 a.u.    15.156 eV
 251( 0) :     0.569745 a.u.    15.504 eV
 252( 0) :     0.585332 a.u.    15.928 eV
 253( 0) :     0.590340 a.u.    16.064 eV
 254( 0) :     0.618474 a.u.    16.830 eV
 255( 0) :     0.638883 a.u.    17.385 eV
 256( 0) :     0.658801 a.u.    17.927 eV
 257( 0) :     0.673463 a.u.    18.326 eV
 258( 0) :     0.677450 a.u.    18.434 eV
 259( 0) :     0.681922 a.u.    18.556 eV
 260( 0) :     0.687068 a.u.    18.696 eV
 261( 0) :     0.699307 a.u.    19.029 eV
 262( 0) :     0.713086 a.u.    19.404 eV
 263( 0) :     0.717252 a.u.    19.517 eV
 264( 0) :     0.728783 a.u.    19.831 eV
 265( 0) :     0.746714 a.u.    20.319 eV
 266( 0) :     0.754982 a.u.    20.544 eV
 267( 0) :     0.766385 a.u.    20.854 eV
 268( 0) :     0.778083 a.u.    21.173 eV
 269( 0) :     0.785329 a.u.    21.370 eV
 270( 0) :     0.798133 a.u.    21.718 eV
 271( 0) :     0.808054 a.u.    21.988 eV
 272( 0) :     0.831848 a.u.    22.636 eV
 273( 0) :     0.839739 a.u.    22.850 eV
 274( 0) :     0.855501 a.u.    23.279 eV
 275( 0) :     0.874472 a.u.    23.796 eV
 276( 0) :     0.877673 a.u.    23.883 eV
 277( 0) :     0.896304 a.u.    24.390 eV
 278( 0) :     0.909822 a.u.    24.758 eV
 279( 0) :     0.912981 a.u.    24.843 eV
 280( 0) :     0.918123 a.u.    24.983 eV
 281( 0) :     0.927753 a.u.    25.245 eV
 282( 0) :     0.940029 a.u.    25.579 eV
 283( 0) :     0.942665 a.u.    25.651 eV
 284( 0) :     0.950446 a.u.    25.863 eV
 285( 0) :     0.981489 a.u.    26.708 eV
 286( 0) :     0.993240 a.u.    27.027 eV
 287( 0) :     1.035665 a.u.    28.182 eV
 288( 0) :     1.078515 a.u.    29.348 eV
 289( 0) :     1.093456 a.u.    29.754 eV
 290( 0) :     1.113628 a.u.    30.303 eV
 291( 0) :     1.169311 a.u.    31.819 eV
 292( 0) :     1.184922 a.u.    32.243 eV
 293( 0) :     1.201579 a.u.    32.697 eV
 294( 0) :     1.217715 a.u.    33.136 eV
 295( 0) :     1.227744 a.u.    33.409 eV
 296( 0) :     1.254082 a.u.    34.125 eV
 297( 0) :     1.259994 a.u.    34.286 eV
 298( 0) :     1.273846 a.u.    34.663 eV
 299( 0) :     1.282797 a.u.    34.907 eV
 300( 0) :     1.293053 a.u.    35.186 eV
 301( 0) :     1.309042 a.u.    35.621 eV
 302( 0) :     1.320975 a.u.    35.946 eV
 303( 0) :     1.328697 a.u.    36.156 eV
 304( 0) :     1.331929 a.u.    36.244 eV
 305( 0) :     1.344878 a.u.    36.596 eV
 306( 0) :     1.349652 a.u.    36.726 eV
 307( 0) :     1.354594 a.u.    36.860 eV
 308( 0) :     1.363661 a.u.    37.107 eV
 309( 0) :     1.367397 a.u.    37.209 eV
 310( 0) :     1.381872 a.u.    37.603 eV
 311( 0) :     1.385594 a.u.    37.704 eV
 312( 0) :     1.390863 a.u.    37.847 eV
 313( 0) :     1.395900 a.u.    37.984 eV
 314( 0) :     1.398404 a.u.    38.053 eV
 315( 0) :     1.402418 a.u.    38.162 eV
 316( 0) :     1.403986 a.u.    38.204 eV
 317( 0) :     1.407384 a.u.    38.297 eV
 318( 0) :     1.411852 a.u.    38.418 eV
 319( 0) :     1.416503 a.u.    38.545 eV
 320( 0) :     1.422538 a.u.    38.709 eV
 321( 0) :     1.429277 a.u.    38.893 eV
 322( 0) :     1.435009 a.u.    39.049 eV
 323( 0) :     1.437753 a.u.    39.123 eV
 324( 0) :     1.440909 a.u.    39.209 eV
 325( 0) :     1.446000 a.u.    39.348 eV
 326( 0) :     1.447837 a.u.    39.398 eV
 327( 0) :     1.451391 a.u.    39.494 eV
 328( 0) :     1.458265 a.u.    39.681 eV
 329( 0) :     1.461128 a.u.    39.759 eV
 330( 0) :     1.461537 a.u.    39.770 eV
 331( 0) :     1.467044 a.u.    39.920 eV
 332( 0) :     1.470926 a.u.    40.026 eV
 333( 0) :     1.474092 a.u.    40.112 eV
 334( 0) :     1.475955 a.u.    40.163 eV
 335( 0) :     1.479003 a.u.    40.246 eV
 336( 0) :     1.480472 a.u.    40.286 eV
 337( 0) :     1.482536 a.u.    40.342 eV
 338( 0) :     1.483593 a.u.    40.371 eV
 339( 0) :     1.485192 a.u.    40.414 eV
 340( 0) :     1.486490 a.u.    40.449 eV
 341( 0) :     1.487343 a.u.    40.473 eV
 342( 0) :     1.490682 a.u.    40.564 eV
 343( 0) :     1.492236 a.u.    40.606 eV
 344( 0) :     1.492788 a.u.    40.621 eV
 345( 0) :     1.495539 a.u.    40.696 eV
 346( 0) :     1.498047 a.u.    40.764 eV
 347( 0) :     1.499759 a.u.    40.811 eV
 348( 0) :     1.500533 a.u.    40.832 eV
 349( 0) :     1.501391 a.u.    40.855 eV
 350( 0) :     1.502278 a.u.    40.879 eV
 351( 0) :     1.504241 a.u.    40.932 eV
 352( 0) :     1.506106 a.u.    40.983 eV
 353( 0) :     1.506332 a.u.    40.989 eV
 354( 0) :     1.508782 a.u.    41.056 eV
 355( 0) :     1.510166 a.u.    41.094 eV
 356( 0) :     1.513459 a.u.    41.183 eV
 357( 0) :     1.515350 a.u.    41.235 eV
 358( 0) :     1.515493 a.u.    41.239 eV
 359( 0) :     1.517177 a.u.    41.284 eV
 360( 0) :     1.519026 a.u.    41.335 eV
 361( 0) :     1.520478 a.u.    41.374 eV
 362( 0) :     1.522917 a.u.    41.441 eV
 363( 0) :     1.524899 a.u.    41.495 eV
 364( 0) :     1.526806 a.u.    41.546 eV
 365( 0) :     1.528593 a.u.    41.595 eV
 366( 0) :     1.529312 a.u.    41.615 eV
 367( 0) :     1.533348 a.u.    41.725 eV
 368( 0) :     1.534577 a.u.    41.758 eV
 369( 0) :     1.537545 a.u.    41.839 eV
 370( 0) :     1.538258 a.u.    41.858 eV
 371( 0) :     1.539646 a.u.    41.896 eV
 372( 0) :     1.541583 a.u.    41.949 eV
 373( 0) :     1.545216 a.u.    42.047 eV
 374( 0) :     1.546802 a.u.    42.091 eV
 375( 0) :     1.548044 a.u.    42.124 eV
 376( 0) :     1.550085 a.u.    42.180 eV
 377( 0) :     1.551032 a.u.    42.206 eV
 378( 0) :     1.551879 a.u.    42.229 eV
 379( 0) :     1.552906 a.u.    42.257 eV
 380( 0) :     1.557262 a.u.    42.375 eV
 381( 0) :     1.559945 a.u.    42.448 eV
 382( 0) :     1.563272 a.u.    42.539 eV
 383( 0) :     1.565289 a.u.    42.594 eV
 384( 0) :     1.567774 a.u.    42.661 eV
 385( 0) :     1.568773 a.u.    42.688 eV
 386( 0) :     1.572330 a.u.    42.785 eV
 387( 0) :     1.577873 a.u.    42.936 eV
 388( 0) :     1.580002 a.u.    42.994 eV
 389( 0) :     1.584407 a.u.    43.114 eV
 390( 0) :     1.585217 a.u.    43.136 eV
 391( 0) :     1.587836 a.u.    43.207 eV
 392( 0) :     1.590574 a.u.    43.282 eV
 393( 0) :     1.595992 a.u.    43.429 eV
 394( 0) :     1.600348 a.u.    43.548 eV
 395( 0) :     1.601697 a.u.    43.584 eV
 396( 0) :     1.603181 a.u.    43.625 eV
 397( 0) :     1.607424 a.u.    43.740 eV
 398( 0) :     1.610494 a.u.    43.824 eV
 399( 0) :     1.612025 a.u.    43.865 eV
 400( 0) :     1.612279 a.u.    43.872 eV
 401( 0) :     1.614687 a.u.    43.938 eV
 402( 0) :     1.623641 a.u.    44.182 eV
 403( 0) :     1.625926 a.u.    44.244 eV
 404( 0) :     1.631498 a.u.    44.395 eV
 405( 0) :     1.638482 a.u.    44.585 eV
 406( 0) :     1.644314 a.u.    44.744 eV
 407( 0) :     1.650954 a.u.    44.925 eV
 408( 0) :     1.661363 a.u.    45.208 eV
 409( 0) :     1.665803 a.u.    45.329 eV
 410( 0) :     1.672717 a.u.    45.517 eV
 411( 0) :     1.674361 a.u.    45.562 eV
 412( 0) :     1.684423 a.u.    45.835 eV
 413( 0) :     1.691909 a.u.    46.039 eV
 414( 0) :     1.697435 a.u.    46.190 eV
 415( 0) :     1.717356 a.u.    46.732 eV
 416( 0) :     1.726483 a.u.    46.980 eV
 417( 0) :     1.733218 a.u.    47.163 eV
 418( 0) :     1.739343 a.u.    47.330 eV
 419( 0) :     1.748857 a.u.    47.589 eV
 420( 0) :     1.767691 a.u.    48.101 eV
 421( 0) :     1.778137 a.u.    48.386 eV
 422( 0) :     1.793319 a.u.    48.799 eV
 423( 0) :     1.797715 a.u.    48.918 eV
 424( 0) :     1.804359 a.u.    49.099 eV
 425( 0) :     1.818878 a.u.    49.494 eV
 426( 0) :     1.823864 a.u.    49.630 eV
 427( 0) :     1.831130 a.u.    49.828 eV
 428( 0) :     1.855341 a.u.    50.486 eV
 429( 0) :     1.874361 a.u.    51.004 eV
 430( 0) :     1.876985 a.u.    51.075 eV
 431( 0) :     1.912898 a.u.    52.053 eV
 432( 0) :     1.918741 a.u.    52.212 eV
 433( 0) :     1.934602 a.u.    52.643 eV
 434( 0) :     1.954386 a.u.    53.182 eV
 435( 0) :     1.988970 a.u.    54.123 eV
 436( 0) :     2.057192 a.u.    55.979 eV
 437( 0) :     2.129699 a.u.    57.952 eV
 438( 0) :     2.235528 a.u.    60.832 eV
 439( 0) :     2.273420 a.u.    61.863 eV
 440( 0) :     2.277386 a.u.    61.971 eV
 441( 0) :     2.326107 a.u.    63.297 eV
 442( 0) :     2.379365 a.u.    64.746 eV
 443( 0) :     2.407408 a.u.    65.509 eV
 444( 0) :     2.446198 a.u.    66.564 eV
 445( 0) :     2.448298 a.u.    66.622 eV
 446( 0) :     2.449344 a.u.    66.650 eV
 447( 0) :     2.479639 a.u.    67.474 eV
 448( 0) :     2.492081 a.u.    67.813 eV
 449( 0) :     2.507234 a.u.    68.225 eV
 450( 0) :     2.534890 a.u.    68.978 eV
 451( 0) :     2.564870 a.u.    69.794 eV
 452( 0) :     3.213045 a.u.    87.431 eV
 453( 0) :     3.516308 a.u.    95.684 eV
 454( 0) :     3.585074 a.u.    97.555 eV
 455( 0) :     3.615757 a.u.    98.390 eV
 456( 0) :     3.651414 a.u.    99.360 eV
 457( 0) :     3.696457 a.u.   100.586 eV
 458( 0) :     3.889775 a.u.   105.846 eV
 459( 0) :     3.892092 a.u.   105.909 eV
 460( 0) :     3.895585 a.u.   106.004 eV
 461( 0) :     3.901754 a.u.   106.172 eV
 462( 0) :     3.905677 a.u.   106.279 eV
 463( 0) :     3.909222 a.u.   106.375 eV
 464( 0) :     3.915060 a.u.   106.534 eV
 465( 0) :    23.647695 a.u.   643.486 eV
 466( 0) :    23.705715 a.u.   645.065 eV
 467( 0) :    23.857008 a.u.   649.182 eV
 468( 0) :    23.998064 a.u.   653.021 eV
 469( 0) :    24.389612 a.u.   663.675 eV
 470( 0) :    24.462833 a.u.   665.668 eV
 471( 0) :    24.533294 a.u.   667.585 eV
 472( 0) :    24.730062 a.u.   672.939 eV
 473( 0) :    24.894047 a.u.   677.401 eV
 474( 0) :    25.116495 a.u.   683.455 eV
 475( 0) :    25.280642 a.u.   687.921 eV
 476( 0) :    25.289754 a.u.   688.169 eV
 477( 0) :    25.476819 a.u.   693.259 eV
 478( 0) :    25.521577 a.u.   694.477 eV
 479( 0) :    25.880691 a.u.   704.249 eV
 480( 0) :    25.966925 a.u.   706.596 eV
 481( 0) :    26.190718 a.u.   712.686 eV
 482( 0) :    26.287817 a.u.   715.328 eV
 483( 0) :    26.348346 a.u.   716.975 eV
 484( 0) :    26.377784 a.u.   717.776 eV
 485( 0) :    26.478273 a.u.   720.510 eV
 486( 0) :    26.592753 a.u.   723.626 eV
 487( 0) :    26.644060 a.u.   725.022 eV
 488( 0) :    26.884428 a.u.   731.562 eV
 489( 0) :    27.034185 a.u.   735.638 eV
 490( 0) :    27.186028 a.u.   739.769 eV
 491( 0) :    27.334621 a.u.   743.813 eV
 492( 0) :    27.742407 a.u.   754.909 eV
 493( 0) :    27.855540 a.u.   757.988 eV
 494( 0) :    27.891545 a.u.   758.968 eV
 495( 0) :    28.061523 a.u.   763.593 eV
 496( 0) :    28.201763 a.u.   767.409 eV
 497( 0) :    28.507953 a.u.   775.741 eV
 498( 0) :    28.720172 a.u.   781.516 eV
 499( 0) :    29.284248 a.u.   796.865 eV
 500( 0) :    30.444970 a.u.   828.450 eV
 501( 0) :    43.851128 a.u.  1193.250 eV
 502( 0) :    43.990868 a.u.  1197.052 eV
 503( 0) :    44.014553 a.u.  1197.697 eV
 504( 0) :    44.036735 a.u.  1198.300 eV
 505( 0) :    44.074448 a.u.  1199.327 eV
 506( 0) :    44.118228 a.u.  1200.518 eV
 507( 0) :    44.131532 a.u.  1200.880 eV
 508( 0) :    44.144663 a.u.  1201.237 eV
 509( 0) :    44.147903 a.u.  1201.326 eV
 510( 0) :    44.162656 a.u.  1201.727 eV
 511( 0) :    44.201080 a.u.  1202.773 eV
 512( 0) :    44.230849 a.u.  1203.583 eV
 513( 0) :   205.071404 a.u.  5580.277 eV
 514( 0) :   205.128001 a.u.  5581.817 eV
 515( 0) :   205.135691 a.u.  5582.026 eV
 516( 0) :   205.143495 a.u.  5582.238 eV
 517( 0) :   205.160444 a.u.  5582.700 eV
 518( 0) :   205.181367 a.u.  5583.269 eV
 519( 0) :   205.187978 a.u.  5583.449 eV
 520( 0) :   205.192317 a.u.  5583.567 eV
 521( 0) :   205.195259 a.u.  5583.647 eV
 522( 0) :   205.197662 a.u.  5583.712 eV
 523( 0) :   205.213919 a.u.  5584.155 eV
 524( 0) :   205.223265 a.u.  5584.409 eV
-------
TIMINGS
-------

Total SCF time: 0 days 0 hours 6 min 55 sec 

Total time                  ....     415.897 sec
Sum of individual times     ....     411.361 sec  ( 98.9%)

Fock matrix formation       ....     399.945 sec  ( 96.2%)
  Split-RI-J                ....     153.006 sec  ( 38.3% of F)
  XC integration            ....     246.560 sec  ( 61.6% of F)
    Basis function eval.    ....      40.417 sec  ( 16.4% of XC)
    Density eval.           ....     108.139 sec  ( 43.9% of XC)
    XC-Functional eval.     ....       4.979 sec  (  2.0% of XC)
    XC-Potential eval.      ....      84.362 sec  ( 34.2% of XC)
Diagonalization             ....       3.548 sec  (  0.9%)
Density matrix formation    ....       0.616 sec  (  0.1%)
Population analysis         ....       2.150 sec  (  0.5%)
Initial guess               ....       0.263 sec  (  0.1%)
Orbital Transformation      ....       1.099 sec  (  0.3%)
Orbital Orthonormalization  ....       0.228 sec  (  0.1%)
DIIS solution               ....       0.000 sec  (  0.0%)
Grid generation             ....       3.736 sec  (  0.9%)

Maximum memory used throughout the entire SCF-calculation: 477.3 MB

-------------------------   --------------------
FINAL SINGLE POINT ENERGY     -2893.402566703475
-------------------------   --------------------

                                *** OPTIMIZATION RUN DONE ***

                            ***************************************
                            *     ORCA property calculations      *
                            ***************************************

                                    ---------------------
                                    Active property flags
                                    ---------------------
   (+) Dipole Moment


------------------------------------------------------------------------------
                       ORCA ELECTRIC PROPERTIES CALCULATION
------------------------------------------------------------------------------

Dipole Moment Calculation                       ... on
Quadrupole Moment Calculation                   ... off
Polarizability Calculation                      ... off
GBWName                                         ... pbe.gbw
Electron density                                ... pbe.scfp
The origin for moment calculation is the CENTER OF MASS  = (12.306935, 14.086923 12.059983)

-------------
DIPOLE MOMENT
-------------
                                X             Y             Z
Electronic contribution:    -12.51248       5.96888       5.35775
Nuclear contribution   :     12.27459      -5.72813      -5.24719
                        -----------------------------------------
Total Dipole Moment    :     -0.23789       0.24076       0.11056
                        -----------------------------------------
Magnitude (a.u.)       :      0.35606
Magnitude (Debye)      :      0.90503



--------------------
Rotational spectrum 
--------------------
 
Rotational constants in cm-1:     0.001747     0.001060     0.001012 
Rotational constants in MHz :    52.374164    31.789072    30.329337 

 Dipole components along the rotational axes: 
x,y,z [a.u.] :    -0.193887     0.296163    -0.038366 
x,y,z [Debye]:    -0.492821     0.752787    -0.097520 

 

Timings for individual modules:

Sum of individual times         ...     9960.266 sec (= 166.004 min)
GTO integral calculation        ...      153.795 sec (=   2.563 min)   1.5 %
SCF iterations                  ...     8089.868 sec (= 134.831 min)  81.2 %
SCF Gradient evaluation         ...     1715.823 sec (=  28.597 min)  17.2 %
Geometry relaxation             ...        0.780 sec (=   0.013 min)   0.0 %
                             ****ORCA TERMINATED NORMALLY****
TOTAL RUN TIME: 0 days 2 hours 46 minutes 1 seconds 971 msec
