
                                 *****************
                                 * O   R   C   A *
                                 *****************

                                            #,                                       
                                            ###                                      
                                            ####                                     
                                            #####                                    
                                            ######                                   
                                           ########,                                 
                                     ,,################,,,,,                         
                               ,,#################################,,                 
                          ,,##########################################,,             
                       ,#########################################, ''#####,          
                    ,#############################################,,   '####,        
                  ,##################################################,,,,####,       
                ,###########''''           ''''###############################       
              ,#####''   ,,,,##########,,,,          '''####'''          '####       
            ,##' ,,,,###########################,,,                        '##       
           ' ,,###''''                  '''############,,,                           
         ,,##''                                '''############,,,,        ,,,,,,###''
      ,#''                                            '''#######################'''  
     '                                                          ''''####''''         
             ,#######,   #######,   ,#######,      ##                                
            ,#'     '#,  ##    ##  ,#'     '#,    #''#        ######   ,####,        
            ##       ##  ##   ,#'  ##            #'  '#       #        #'  '#        
            ##       ##  #######   ##           ,######,      #####,   #    #        
            '#,     ,#'  ##    ##  '#,     ,#' ,#      #,         ##   #,  ,#        
             '#######'   ##     ##  '#######'  #'      '#     #####' # '####'        



                  #######################################################
                  #                        -***-                        #
                  #          Department of theory and spectroscopy      #
                  #    Directorship and core code : Frank Neese         #
                  #        Max Planck Institute fuer Kohlenforschung    #
                  #                Kaiser Wilhelm Platz 1               #
                  #                 D-45470 Muelheim/Ruhr               #
                  #                      Germany                        #
                  #                                                     #
                  #                  All rights reserved                #
                  #                        -***-                        #
                  #######################################################


                         Program Version 5.0.3 -  RELEASE  -


 With contributions from (in alphabetic order):
   Daniel Aravena         : Magnetic Suceptibility
   Michael Atanasov       : Ab Initio Ligand Field Theory (pilot matlab implementation)
   Alexander A. Auer      : GIAO ZORA, VPT2 properties, NMR spectrum
   Ute Becker             : Parallelization
   Giovanni Bistoni       : ED, misc. LED, open-shell LED, HFLD
   Martin Brehm           : Molecular dynamics
   Dmytro Bykov           : SCF Hessian
   Vijay G. Chilkuri      : MRCI spin determinant printing, contributions to CSF-ICE
   Dipayan Datta          : RHF DLPNO-CCSD density
   Achintya Kumar Dutta   : EOM-CC, STEOM-CC
   Dmitry Ganyushin       : Spin-Orbit,Spin-Spin,Magnetic field MRCI
   Miquel Garcia          : C-PCM and meta-GGA Hessian, CC/C-PCM, Gaussian charge scheme
   Yang Guo               : DLPNO-NEVPT2, F12-NEVPT2, CIM, IAO-localization
   Andreas Hansen         : Spin unrestricted coupled pair/coupled cluster methods
   Benjamin Helmich-Paris : MC-RPA, TRAH-SCF, COSX integrals
   Lee Huntington         : MR-EOM, pCC
   Robert Izsak           : Overlap fitted RIJCOSX, COSX-SCS-MP3, EOM
   Marcus Kettner         : VPT2
   Christian Kollmar      : KDIIS, OOCD, Brueckner-CCSD(T), CCSD density, CASPT2, CASPT2-K
   Simone Kossmann        : Meta GGA functionals, TD-DFT gradient, OOMP2, MP2 Hessian
   Martin Krupicka        : Initial AUTO-CI
   Lucas Lang             : DCDCAS
   Marvin Lechner         : AUTO-CI (C++ implementation), FIC-MRCC
   Dagmar Lenk            : GEPOL surface, SMD
   Dimitrios Liakos       : Extrapolation schemes; Compound Job, initial MDCI parallelization
   Dimitrios Manganas     : Further ROCIS development; embedding schemes
   Dimitrios Pantazis     : SARC Basis sets
   Anastasios Papadopoulos: AUTO-CI, single reference methods and gradients
   Taras Petrenko         : DFT Hessian,TD-DFT gradient, ASA, ECA, R-Raman, ABS, FL, XAS/XES, NRVS
   Peter Pinski           : DLPNO-MP2, DLPNO-MP2 Gradient
   Christoph Reimann      : Effective Core Potentials
   Marius Retegan         : Local ZFS, SOC
   Christoph Riplinger    : Optimizer, TS searches, QM/MM, DLPNO-CCSD(T), (RO)-DLPNO pert. Triples
   Tobias Risthaus        : Range-separated hybrids, TD-DFT gradient, RPA, STAB
   Michael Roemelt        : Original ROCIS implementation
   Masaaki Saitow         : Open-shell DLPNO-CCSD energy and density
   Barbara Sandhoefer     : DKH picture change effects
   Avijit Sen             : IP-ROCIS
   Kantharuban Sivalingam : CASSCF convergence, NEVPT2, FIC-MRCI
   Bernardo de Souza      : ESD, SOC TD-DFT
   Georgi Stoychev        : AutoAux, RI-MP2 NMR, DLPNO-MP2 response
   Willem Van den Heuvel  : Paramagnetic NMR
   Boris Wezisla          : Elementary symmetry handling
   Frank Wennmohs         : Technical directorship


 We gratefully acknowledge several colleagues who have allowed us to
 interface, adapt or use parts of their codes:
   Stefan Grimme, W. Hujo, H. Kruse, P. Pracht,  : VdW corrections, initial TS optimization,
                  C. Bannwarth, S. Ehlert          DFT functionals, gCP, sTDA/sTD-DF
   Ed Valeev, F. Pavosevic, A. Kumar             : LibInt (2-el integral package), F12 methods
   Garnet Chan, S. Sharma, J. Yang, R. Olivares  : DMRG
   Ulf Ekstrom                                   : XCFun DFT Library
   Mihaly Kallay                                 : mrcc  (arbitrary order and MRCC methods)
   Jiri Pittner, Ondrej Demel                    : Mk-CCSD
   Frank Weinhold                                : gennbo (NPA and NBO analysis)
   Christopher J. Cramer and Donald G. Truhlar   : smd solvation model
   Lars Goerigk                                  : TD-DFT with DH, B97 family of functionals
   V. Asgeirsson, H. Jonsson                     : NEB implementation
   FAccTs GmbH                                   : IRC, NEB, NEB-TS, DLPNO-Multilevel, CI-OPT
                                                   MM, QMMM, 2- and 3-layer-ONIOM, Crystal-QMMM,
                                                   LR-CPCM, SF, NACMEs, symmetry and pop. for TD-DFT,
                                                   nearIR, NL-DFT gradient (VV10), updates on ESD,
                                                   ML-optimized integration grids
   S Lehtola, MJT Oliveira, MAL Marques          : LibXC Library
   Liviu Ungur et al                             : ANISO software


 Your calculation uses the libint2 library for the computation of 2-el integrals
 For citations please refer to: http://libint.valeyev.net

 Your ORCA version has been built with support for libXC version: 5.1.0
 For citations please refer to: https://tddft.org/programs/libxc/

 This ORCA versions uses:
   CBLAS   interface :  Fast vector & matrix operations
   LAPACKE interface :  Fast linear algebra routines
   SCALAPACK package :  Parallel linear algebra routines
   Shared memory     :  Shared parallel matrices
   BLAS/LAPACK       :  OpenBLAS 0.3.15  USE64BITINT DYNAMIC_ARCH NO_AFFINITY Haswell SINGLE_THREADED
        Core in use  :  Haswell
   Copyright (c) 2011-2014, The OpenBLAS Project




***************************************
The coordinates will be read from file: pbe.xyz
***************************************


================================================================================

cite the ECPs for Au [Def2-ECP] as follows:
Ce-Yb(ecp-28): M. Dolg, H. Stoll, H.Preuss, J. Chem. Phys., 1989, 90, 1730-1734.
Y-Cd(ecp-28), Hf-Hg(ecp-46): D. Andrae,U. Haeussermann, M. Dolg, H. Stoll, H. Preuss, Theor. Chim. Acta, 1990, 77, 123-141.
In-Sb(ecp-28), Tl-Bi(ecp-46): B. Metz, H. Stoll, M. Dolg, J. Chem. Phys., 2000, 113, 2563-2569.
Te-Xe(ecp-28), Po-Rn(ecp-46): K. A. Peterson, D. Figgen, E. Goll, H. Stoll, M. Dolg, J. Chem. Phys., 2003, 119, 11113-11123.
Rb(ecp-28), Cs(ecp-46): T. Leininger, A. Nicklass, W. Kuechle, H. Stoll, M. Dolg, A. Bergner, Chem. Phys. Lett., 1996, 255, 274-280.
Sr(ecp-28), Ba(ecp-46): M. Kaupp, P. V. Schleyer, H. Stoll and H. Preuss, J. Chem. Phys., 1991, 94, 1360-1366.
La(ecp-46): M. Dolg, H. Stoll, A. Savin, H. Preuss, Theor. Chim. Acta, 1989, 75, 173-194.
Lu(ecp-28): X. Cao, M. Dolg, J. Chem. Phys., 2001, 115, 7348-7355.

ECP parameters for Au [Def2-ECP] have been obtained from:
TURBOMOLE (7.0.2)

----- Orbital basis set information -----
Your calculation utilizes the basis: def2-TZVP
   F. Weigend and R. Ahlrichs, Phys. Chem. Chem. Phys. 7, 3297 (2005).

----- AuxJ basis set information -----
Your calculation utilizes the auxiliary basis: def2/J
   F. Weigend, Phys. Chem. Chem. Phys. 8, 1057 (2006).

----- AuxC basis set information -----
Your calculation utilizes the auxiliary basis: def2-TZVP/C
  H-La, Hf-Rn : A. Hellweg, C. Hattig, S. Hofener and W. Klopper, Theor. Chem. Acc. 117, 587 (2007).
        Ce-Lu : J. Chmela and M. E. Harding, Mol. Phys. (2018).

================================================================================
                                        WARNINGS
                       Please study these warnings very carefully!
================================================================================


INFO   : the flag for use of the SHARK integral package has been found!

================================================================================
                                       INPUT FILE
================================================================================
NAME = casscf.inp
|  1> !CASSCF def2-TZVP def2-TZVP/C
|  2> !MOREAD RIJCOSX
|  3> %maxcore 6000
|  4> %moinp "pbe.qro"
|  5> %pal nprocs 2 end 
|  6> 
|  7> %casscf
|  8>  mult 5,3
|  9>  bweight 1,1
| 10>  nroots 5,45
| 11>  nel 6
| 12>  norb 5
| 13> end
| 14> 
| 15> 
| 16> *xyzfile 0 5 pbe.xyz
| 17> 
| 18> 
| 19>                          ****END OF INPUT****
================================================================================

                       ****************************
                       * Single Point Calculation *
                       ****************************

---------------------------------
CARTESIAN COORDINATES (ANGSTROEM)
---------------------------------
  Au    10.120799    7.446568    6.506265
  Au     6.778053   10.759364    6.631331
  Au     7.129701    7.645777   10.188649
  Au     7.645507   10.161784    9.205528
  Au     9.604390    8.209208    9.133390
  Au     7.705922    8.395290    5.469389
  Au     5.147029    9.273708    8.416062
  Au     6.441336    5.000269    9.687123
  Au     4.476156    6.937079    9.758649
  Au     3.716748    7.073618    7.121207
  Au     5.607667    6.287966    5.174204
  Au     9.453115   10.097226    7.019235
  Au     5.004680    8.964132    5.565240
  Au     8.301009    5.698873    5.437212
  Au     6.485148    4.334054    7.019616
  Au     8.718579    5.733999    8.278584
  Fe     6.355750    6.949060    7.658776

----------------------------
CARTESIAN COORDINATES (A.U.)
----------------------------
  NO LB      ZA    FRAG     MASS         X           Y           Z
   0 Au   19.0000*   0   196.966   19.125539   14.071973   12.295058
   1 Au   19.0000*   0   196.966   12.808664   20.332251   12.531400
   2 Au   19.0000*   0   196.966   13.473183   14.448424   19.253755
   3 Au   19.0000*   0   196.966   14.447914   19.202988   17.395927
   4 Au   19.0000*   0   196.966   18.149666   15.513154   17.259605
   5 Au   19.0000*   0   196.966   14.562082   15.864800   10.335647
   6 Au   19.0000*   0   196.966    9.726476   17.524769   15.904052
   7 Au   19.0000*   0   196.966   12.172362    9.449138   18.306009
   8 Au   19.0000*   0   196.966    8.458710   13.109179   18.441174
   9 Au   19.0000*   0   196.966    7.023635   13.367200   13.457130
  10 Au   19.0000*   0   196.966   10.596956   11.882534    9.777828
  11 Au   19.0000*   0   196.966   17.863798   19.080992   13.264431
  12 Au   19.0000*   0   196.966    9.457475   16.939755   10.516779
  13 Au   19.0000*   0   196.966   15.686633   10.769309   10.274843
  14 Au   19.0000*   0   196.966   12.255154    8.190175   13.265153
  15 Au   19.0000*   0   196.966   16.475727   10.835688   15.644256
  16 Fe   26.0000    0    55.850   12.010628   13.131820   14.472988
* core charge reduced due to ECP

--------------------------------
INTERNAL COORDINATES (ANGSTROEM)
--------------------------------
 Au     0   0   0     0.000000000000     0.00000000     0.00000000
 Au     1   0   0     4.707888505199     0.00000000     0.00000000
 Au     2   1   0     4.740525982706    60.33644393     0.00000000
 Au     3   2   1     2.750067641399    31.21262915    99.95424804
 Au     3   2   1     2.748655746834    69.14875968    32.95536851
 Au     2   1   3     2.792828967943    32.58541173   251.48713131
 Au     4   3   2     2.766644958951    68.83565885    38.33434411
 Au     3   2   1     2.779224133079   118.12611490   290.26581485
 Au     8   3   2     2.760123674038    60.24586736   289.87548002
 Au     9   8   3     2.747989662169   101.93213684   110.46300516
 Au    10   9   8     2.825534866733   117.55483177   334.83683296
 Au     1   2   3     2.781174463886    32.22010399   259.21598448
 Au     2   1   3     2.739390068833    89.32188383   275.58184630
 Au     1   2   3     2.740245882013    89.29097202    84.51802137
 Au     8   3   2     2.749791084964   113.68641938    20.38871698
 Au     5   3   2     2.764418792421    69.30953360   256.33596732
 Fe    11  10   9     2.677642800399    58.59598024   340.76628143

---------------------------
INTERNAL COORDINATES (A.U.)
---------------------------
 Au     0   0   0     0.000000000000     0.00000000     0.00000000
 Au     1   0   0     8.896619943862     0.00000000     0.00000000
 Au     2   1   0     8.958295838053    60.33644393     0.00000000
 Au     3   2   1     5.196874692003    31.21262915    99.95424804
 Au     3   2   1     5.194206597945    69.14875968    32.95536851
 Au     2   1   3     5.277681888294    32.58541173   251.48713131
 Au     4   3   2     5.228201282211    68.83565885    38.33434411
 Au     3   2   1     5.251972476303   118.12611490   290.26581485
 Au     8   3   2     5.215877839685    60.24586736   289.87548002
 Au     9   8   3     5.192947880347   101.93213684   110.46300516
 Au    10   9   8     5.339487079972   117.55483177   334.83683296
 Au     1   2   3     5.255658067400    32.22010399   259.21598448
 Au     2   1   3     5.176697004079    89.32188383   275.58184630
 Au     1   2   3     5.178314256610    89.29097202    84.51802137
 Au     8   3   2     5.196352076080   113.68641938    20.38871698
 Au     5   3   2     5.223994437141    69.30953360   256.33596732
 Fe    11  10   9     5.060011577220    58.59598024   340.76628143

---------------------
BASIS SET INFORMATION
---------------------
There are 2 groups of distinct atoms

 Group   1 Type Au  : 8s7p6d1f contracted to 6s4p3d1f pattern {311111/4111/411/1}
 Group   2 Type Fe  : 17s11p7d1f contracted to 6s4p4d1f pattern {842111/6311/4111/1}

Atom   0Au   basis set group =>   1
Atom   1Au   basis set group =>   1
Atom   2Au   basis set group =>   1
Atom   3Au   basis set group =>   1
Atom   4Au   basis set group =>   1
Atom   5Au   basis set group =>   1
Atom   6Au   basis set group =>   1
Atom   7Au   basis set group =>   1
Atom   8Au   basis set group =>   1
Atom   9Au   basis set group =>   1
Atom  10Au   basis set group =>   1
Atom  11Au   basis set group =>   1
Atom  12Au   basis set group =>   1
Atom  13Au   basis set group =>   1
Atom  14Au   basis set group =>   1
Atom  15Au   basis set group =>   1
Atom  16Fe   basis set group =>   2
---------------------------------
AUXILIARY/J BASIS SET INFORMATION
---------------------------------
There are 2 groups of distinct atoms

 Group   1 Type Au  : 11s5p5d3f3g contracted to 8s5p5d2f3g pattern {41111111/11111/11111/21/111}
 Group   2 Type Fe  : 19s5p5d3f3g contracted to 8s5p5d2f3g pattern {121111111/11111/11111/21/111}

Atom   0Au   basis set group =>   1
Atom   1Au   basis set group =>   1
Atom   2Au   basis set group =>   1
Atom   3Au   basis set group =>   1
Atom   4Au   basis set group =>   1
Atom   5Au   basis set group =>   1
Atom   6Au   basis set group =>   1
Atom   7Au   basis set group =>   1
Atom   8Au   basis set group =>   1
Atom   9Au   basis set group =>   1
Atom  10Au   basis set group =>   1
Atom  11Au   basis set group =>   1
Atom  12Au   basis set group =>   1
Atom  13Au   basis set group =>   1
Atom  14Au   basis set group =>   1
Atom  15Au   basis set group =>   1
Atom  16Fe   basis set group =>   2
---------------------------------
AUXILIARY/C BASIS SET INFORMATION
---------------------------------
There are 2 groups of distinct atoms

 Group   1 Type Au  : 8s8p7d5f3g2h contracted to 8s8p7d5f3g2h pattern {11111111/11111111/1111111/11111/111/11}
 Group   2 Type Fe  : 11s9p8d6f5g2h contracted to 9s8p8d6f5g2h pattern {311111111/21111111/11111111/111111/11111/11}

Atom   0Au   basis set group =>   1
Atom   1Au   basis set group =>   1
Atom   2Au   basis set group =>   1
Atom   3Au   basis set group =>   1
Atom   4Au   basis set group =>   1
Atom   5Au   basis set group =>   1
Atom   6Au   basis set group =>   1
Atom   7Au   basis set group =>   1
Atom   8Au   basis set group =>   1
Atom   9Au   basis set group =>   1
Atom  10Au   basis set group =>   1
Atom  11Au   basis set group =>   1
Atom  12Au   basis set group =>   1
Atom  13Au   basis set group =>   1
Atom  14Au   basis set group =>   1
Atom  15Au   basis set group =>   1
Atom  16Fe   basis set group =>   2
-------------------------
ECP PARAMETER INFORMATION
-------------------------

 Group 1, Type Au ECP Def2-ECP (replacing 60 core electrons, lmax=3)

Atom   0Au   ECP group =>   1
Atom   1Au   ECP group =>   1
Atom   2Au   ECP group =>   1
Atom   3Au   ECP group =>   1
Atom   4Au   ECP group =>   1
Atom   5Au   ECP group =>   1
Atom   6Au   ECP group =>   1
Atom   7Au   ECP group =>   1
Atom   8Au   ECP group =>   1
Atom   9Au   ECP group =>   1
Atom  10Au   ECP group =>   1
Atom  11Au   ECP group =>   1
Atom  12Au   ECP group =>   1
Atom  13Au   ECP group =>   1
Atom  14Au   ECP group =>   1
Atom  15Au   ECP group =>   1



           ************************************************************
           *        Program running with 2 parallel MPI-processes     *
           *              working on a common directory               *
           ************************************************************
------------------------------------------------------------------------------
                           ORCA GTO INTEGRAL CALCULATION
                           -- RI-GTO INTEGRALS CHOSEN --
------------------------------------------------------------------------------
------------------------------------------------------------------------------
                   ___                                                        
                  /   \      - P O W E R E D   B Y -                         
                 /     \                                                     
                 |  |  |   _    _      __       _____    __    __             
                 |  |  |  | |  | |    /  \     |  _  \  |  |  /  |          
                  \  \/   | |  | |   /    \    | | | |  |  | /  /          
                 / \  \   | |__| |  /  /\  \   | |_| |  |  |/  /          
                |  |  |   |  __  | /  /__\  \  |    /   |      \           
                |  |  |   | |  | | |   __   |  |    \   |  |\   \          
                \     /   | |  | | |  |  |  |  | |\  \  |  | \   \       
                 \___/    |_|  |_| |__|  |__|  |_| \__\ |__|  \__/        
                                                                              
                      - O R C A' S   B I G   F R I E N D -                    
                                      &                                       
                       - I N T E G R A L  F E E D E R -                       
                                                                              
 v1 FN, 2020, v2 2021                                                         
------------------------------------------------------------------------------


Reading SHARK input file casscf.SHARKINP.tmp ... ok
----------------------
SHARK INTEGRAL PACKAGE
----------------------

Number of atoms                             ...     17
Number of basis functions                   ...    685
Number of shells                            ...    239
Maximum angular momentum                    ...      3
Integral batch strategy                     ... SHARK/LIBINT Hybrid
RI-J (if used) integral strategy            ... SPLIT-RIJ (Revised 2003 algorithm where possible)
Printlevel                                  ...      1
Contraction scheme used                     ... SEGMENTED contraction
Coulomb Range Separation                    ... NOT USED
Exchange Range Separation                   ... NOT USED
Finite Nucleus Model                        ... NOT USED
Auxiliary Coulomb fitting basis             ... AVAILABLE
   # of basis functions in Aux-J            ...   1513
   # of shells in Aux-J                     ...    391
   Maximum angular momentum in Aux-J        ...      4
Auxiliary J/K fitting basis                 ... NOT available
Auxiliary Correlation fitting basis         ... AVAILABLE
   # of basis functions in Aux-C            ...   2598
   # of shells in Aux-C                     ...    566
   Maximum angular momentum in Aux-C        ...      5
Auxiliary 'external' fitting basis          ... NOT available
Integral threshold                          ...     1.000000e-10
Primitive cut-off                           ...     1.000000e-11
Primitive pair pre-selection threshold      ...     1.000000e-11

Calculating pre-screening integrals         ... done (  0.3 sec) Dimension = 239
Organizing shell pair data                  ... done (  0.4 sec)
Shell pair information
Total number of shell pairs                 ...     28680
Shell pairs after pre-screening             ...     22280
Total number of primitive shell pairs       ...     75765
Primitive shell pairs kept                  ...     42078
          la=0 lb=0:   3527 shell pairs
          la=1 lb=0:   5065 shell pairs
          la=1 lb=1:   1902 shell pairs
          la=2 lb=0:   4434 shell pairs
          la=2 lb=1:   3126 shell pairs
          la=2 lb=2:   1297 shell pairs
          la=3 lb=0:   1137 shell pairs
          la=3 lb=1:    892 shell pairs
          la=3 lb=2:    784 shell pairs
          la=3 lb=3:    116 shell pairs

Calculating one electron integrals          ... done (  0.1 sec)
Calculating ECP integrals                   ... done ( 11.6 sec)
Calculating RI/J V-Matrix + Cholesky decomp.... done (  0.1 sec)
Calculating RI/C V-Matrix + Cholesky decomp.... done (  0.4 sec)
Calculating Nuclear repulsion               ... done (  0.0 sec) ENN=   7083.227179592426 Eh

SHARK setup successfully completed in  13.4 seconds

Maximum memory used throughout the entire GTOINT-calculation: 112.5 MB


           ************************************************************
           *        Program running with 2 parallel MPI-processes     *
           *              working on a common directory               *
           ************************************************************
-------------------------------------------------------------------------------
                                 ORCA SCF
-------------------------------------------------------------------------------

------------
SCF SETTINGS
------------
Hamiltonian:
 Ab initio Hamiltonian  Method          .... Hartree-Fock(GTOs)
 RI-approximation to the Coulomb term is turned on
   Number of AuxJ basis functions       .... 1513
   RIJ-COSX (HFX calculated with COS-X)).... on


General Settings:
 Integral files         IntName         .... casscf
 Hartree-Fock type      HFTyp           .... CASSCF
 Total Charge           Charge          ....    0
 Multiplicity           Mult            ....    5
 Number of Electrons    NEL             ....  330
 Basis Dimension        Dim             ....  685
 Nuclear Repulsion      ENuc            ....   7083.2271795924 Eh


Diagonalization of the overlap matrix:
Smallest eigenvalue                        ... 3.642e-04
Time for diagonalization                   ...    0.064 sec
Threshold for overlap eigenvalues          ... 1.000e-08
Number of eigenvalues below threshold      ... 0
Time for construction of square roots      ...    0.035 sec
Total time needed                          ...    0.100 sec

---------------------
INITIAL GUESS: MOREAD
---------------------
Guess MOs are being read from file: pbe.qro
Input Geometry matches current geometry (good)
Input basis set matches current basis set (good)
MOs were renormalized
Gram-Schmidt orthogonalization of all MOs with pivot on actives
                      ------------------
                      INITIAL GUESS DONE (   2.2 sec)
                      ------------------
--------------------
COSX GRID GENERATION
--------------------

GRIDX 1
-------
General Integration Accuracy     IntAcc      ... 3.816
Radial Grid Type                 RadialGrid  ... OptM3 with GC (2021)
Angular Grid (max. ang.)         AngularGrid ... 1 (Lebedev-50)
Angular grid pruning method      GridPruning ... 4 (adaptive)
Weight generation scheme         WeightScheme... Becke
Basis function cutoff            BFCut       ... 1.0000e-10
Integration weight cutoff        WCut        ... 1.0000e-14
Angular grids for H and He will be reduced by one unit
Partially contracted basis set               ... on
Rotationally invariant grid construction     ... off

Total number of grid points                  ...    19484
Total number of batches                      ...      316
Average number of points per batch           ...       61
Average number of grid points per atom       ...     1146
UseSFitting                                  ... on

GRIDX 2
-------
General Integration Accuracy     IntAcc      ... 4.020
Radial Grid Type                 RadialGrid  ... OptM3 with GC (2021)
Angular Grid (max. ang.)         AngularGrid ... 2 (Lebedev-110)
Angular grid pruning method      GridPruning ... 4 (adaptive)
Weight generation scheme         WeightScheme... Becke
Basis function cutoff            BFCut       ... 1.0000e-10
Integration weight cutoff        WCut        ... 1.0000e-14
Angular grids for H and He will be reduced by one unit
Partially contracted basis set               ... on
Rotationally invariant grid construction     ... off

Total number of grid points                  ...    59204
Total number of batches                      ...      934
Average number of points per batch           ...       63
Average number of grid points per atom       ...     3483
UseSFitting                                  ... on

GRIDX 3
-------
General Integration Accuracy     IntAcc      ... 4.338
Radial Grid Type                 RadialGrid  ... OptM3 with GC (2021)
Angular Grid (max. ang.)         AngularGrid ... 3 (Lebedev-194)
Angular grid pruning method      GridPruning ... 4 (adaptive)
Weight generation scheme         WeightScheme... Becke
Basis function cutoff            BFCut       ... 1.0000e-10
Integration weight cutoff        WCut        ... 1.0000e-14
Angular grids for H and He will be reduced by one unit
Partially contracted basis set               ... on
Rotationally invariant grid construction     ... off

Total number of grid points                  ...   107250
Total number of batches                      ...     1685
Average number of points per batch           ...       63
Average number of grid points per atom       ...     6309
UseSFitting                                  ... on

Time for X-Grid setup             =    2.814 sec



 ... the calculation is a CASSCF calculation -I'm leaving here GOOD LUCK!!!



           ************************************************************
           *        Program running with 2 parallel MPI-processes     *
           *              working on a common directory               *
           ************************************************************
-------------------------------------------------------------------------------
                              ORCA-CASSCF
-------------------------------------------------------------------------------

Setting up the integral package       ... done
Setting up the integral package (RI)  ... done
Building the CAS space                ... done (5 configurations for Mult=5)
Building the CAS space                ... done (35 configurations for Mult=3)

SYSTEM-SPECIFIC SETTINGS:
Number of active electrons          ...    6
Number of active orbitals           ...    5
Total number of electrons           ...  330
Total number of orbitals            ...  685
Total number aux. functions         ... 2598

Determined orbital ranges:
   Internal       0 -  161 ( 162 orbitals)
   Active       162 -  166 (   5 orbitals)
   External     167 -  684 ( 518 orbitals)
Number of rotation parameters      ...  87316

CI-STEP:
CI strategy                         ... General CI
Number of multiplicity blocks       ...    2
BLOCK  1 WEIGHT=   0.5000
  Multiplicity                      ...    5
  #(Configurations)                 ...    5
  #(CSFs)                           ...    5
  #(Roots)                          ...    5
    ROOT=0 WEIGHT=    0.100000
    ROOT=1 WEIGHT=    0.100000
    ROOT=2 WEIGHT=    0.100000
    ROOT=3 WEIGHT=    0.100000
    ROOT=4 WEIGHT=    0.100000

BLOCK  2 WEIGHT=   0.5000
  Multiplicity                      ...    3
  #(Configurations)                 ...   35
  #(CSFs)                           ...   45
  #(Roots)                          ...   45
    ROOT=0 WEIGHT=    0.011111
    ROOT=1 WEIGHT=    0.011111
    ROOT=2 WEIGHT=    0.011111
    ROOT=3 WEIGHT=    0.011111
    ROOT=4 WEIGHT=    0.011111
    ROOT=5 WEIGHT=    0.011111
    ROOT=6 WEIGHT=    0.011111
    ROOT=7 WEIGHT=    0.011111
    ROOT=8 WEIGHT=    0.011111
    ROOT=9 WEIGHT=    0.011111
    ROOT=10 WEIGHT=    0.011111
    ROOT=11 WEIGHT=    0.011111
    ROOT=12 WEIGHT=    0.011111
    ROOT=13 WEIGHT=    0.011111
    ROOT=14 WEIGHT=    0.011111
    ROOT=15 WEIGHT=    0.011111
    ROOT=16 WEIGHT=    0.011111
    ROOT=17 WEIGHT=    0.011111
    ROOT=18 WEIGHT=    0.011111
    ROOT=19 WEIGHT=    0.011111
    ROOT=20 WEIGHT=    0.011111
    ROOT=21 WEIGHT=    0.011111
    ROOT=22 WEIGHT=    0.011111
    ROOT=23 WEIGHT=    0.011111
    ROOT=24 WEIGHT=    0.011111
    ROOT=25 WEIGHT=    0.011111
    ROOT=26 WEIGHT=    0.011111
    ROOT=27 WEIGHT=    0.011111
    ROOT=28 WEIGHT=    0.011111
    ROOT=29 WEIGHT=    0.011111
    ROOT=30 WEIGHT=    0.011111
    ROOT=31 WEIGHT=    0.011111
    ROOT=32 WEIGHT=    0.011111
    ROOT=33 WEIGHT=    0.011111
    ROOT=34 WEIGHT=    0.011111
    ROOT=35 WEIGHT=    0.011111
    ROOT=36 WEIGHT=    0.011111
    ROOT=37 WEIGHT=    0.011111
    ROOT=38 WEIGHT=    0.011111
    ROOT=39 WEIGHT=    0.011111
    ROOT=40 WEIGHT=    0.011111
    ROOT=41 WEIGHT=    0.011111
    ROOT=42 WEIGHT=    0.011111
    ROOT=43 WEIGHT=    0.011111
    ROOT=44 WEIGHT=    0.011111

  PrintLevel                        ...    1
  N(GuessMat)                       ...       512
  MaxDim(CI)                        ...        10
  MaxIter(CI)                       ...        64
  Energy Tolerance CI               ...  1.00e-08
  Residual Tolerance CI             ...  1.00e-08
  Shift(CI)                         ...  1.00e-04

INTEGRAL-TRANSFORMATION-STEP:
  Algorithm                         ... RI-MO

ORBITAL-IMPROVEMENT-STEP:
  Algorithm                         ... SuperCI(PT)
  Default Parametrization           ... CAYLEY
  Act-Act rotations                 ... depends on algorithm used

  Note: SuperCI(PT) will ignore FreezeIE, FreezeAct and FreezeGrad. In general Default settings are encouraged.
        In conjunction with ShiftUp, ShiftDn or GradScaling the performance of SuperCI(PT) is less optimal.  

  MaxRot                            ... 2.00e-01 
  Max. no of vectors (DIIS)         ... 15
  DThresh (cut-off) metric          ... 1.00e-06
  Switch step at gradient           ...  3.00e-02 
  Switch step at iteration          ...        50   
  Switch step to                    ... SuperCI(PT)    

SCF-SETTINGS:
  Incremental                       ... off
  RIJCOSX approximation             ... on
  UseFinalGrid                      ... on
  RI-JK approximation               ... off
  AO integral handling              ... DIRECT
  Integral Neglect Thresh           ...  1.00e-10
  Primitive cutoff TCut             ...  1.00e-11
  Energy convergence tolerance      ...  1.00e-07
  Orbital gradient convergence      ...  1.00e-03
  Max. number of iterations         ...        75  


FINAL ORBITALS:
  Active   Orbitals                 ... natural 
  Internal Orbitals                 ... canonical 
  External Orbitals                 ... canonical 

------------------
CAS-SCF ITERATIONS
------------------


MACRO-ITERATION   1: 
   --- Inactive Energy E0 = -3406.82232356 Eh
CI-ITERATION   0: 
 -3418.917953478   0.000000000000 (    0.00)
 -3418.915491889   0.000000000000
 -3418.908042589   0.000000000000
 -3418.898084842   0.000000000000
 -3418.894337549   0.000000000000
   CI-PROBLEM SOLVED
   DENSITIES MADE
CI-ITERATION   0: 
 -3418.848403753   0.000000000000 (    0.00)
 -3418.847291803   0.000000000000
 -3418.844543672   0.000000000000
 -3418.844191628   0.000000000000
 -3418.843444553   0.000000000000
 -3418.840955501   0.000000000000
 -3418.840138658   0.000000000000
 -3418.838938963   0.000000000000
 -3418.837420801   0.000000000000
 -3418.836783861   0.000000000000
 -3418.835777707   0.000000000000
 -3418.834851287   0.000000000000
 -3418.833926111   0.000000000000
 -3418.831769241   0.000000000000
 -3418.828725359   0.000000000000
 -3418.828623701   0.000000000000
 -3418.827778896   0.000000000000
 -3418.825638689   0.000000000000
 -3418.825076626   0.000000000000
 -3418.823360472   0.000000000000
 -3418.823073743   0.000000000000
 -3418.821388265   0.000000000000
 -3418.821341112   0.000000000000
 -3418.819386107   0.000000000000
 -3418.818547530   0.000000000000
 -3418.817033205   0.000000000000
 -3418.814534692   0.000000000000
 -3418.814176759   0.000000000000
 -3418.810101123   0.000000000000
 -3418.809730501   0.000000000000
 -3418.795980264   0.000000000000
 -3418.795110945   0.000000000000
 -3418.793087739   0.000000000000
 -3418.791109711   0.000000000000
 -3418.789637597   0.000000000000
 -3418.734183960   0.000000000000
 -3418.726845371   0.000000000000
 -3418.724867344   0.000000000000
 -3418.722885639   0.000000000000
 -3418.720401297   0.000000000000
 -3418.719979612   0.000000000000
 -3418.719310453   0.000000000000
 -3418.715496554   0.000000000000
 -3418.714011579   0.000000000000
 -3418.710495282   0.000000000000
   CI-PROBLEM SOLVED
   DENSITIES MADE

                 <<<<<<<<<<<<<<<<<<INITIAL CI STATE CHECK>>>>>>>>>>>>>>>>>>

BLOCK  1 MULT= 5 NROOTS= 5 
ROOT   0:  E=   -3418.9179534776 Eh
      0.74913 [     0]: 11112
      0.24322 [     2]: 11211
      0.00746 [     4]: 21111
ROOT   1:  E=   -3418.9154918889 Eh  0.067 eV    540.3 cm**-1
      0.91643 [     4]: 21111
      0.07935 [     2]: 11211
      0.00422 [     0]: 11112
ROOT   2:  E=   -3418.9080425886 Eh  0.270 eV   2175.2 cm**-1
      0.73411 [     1]: 11121
      0.26571 [     3]: 12111
ROOT   3:  E=   -3418.8980848422 Eh  0.541 eV   4360.7 cm**-1
      0.67722 [     2]: 11211
      0.24657 [     0]: 11112
      0.07609 [     4]: 21111
ROOT   4:  E=   -3418.8943375490 Eh  0.643 eV   5183.1 cm**-1
      0.73423 [     3]: 12111
      0.26563 [     1]: 11121

BLOCK  2 MULT= 3 NROOTS=45 
ROOT   0:  E=   -3418.8484037529 Eh
      0.44894 [    28]: 21111
      0.14606 [    31]: 21210
      0.13571 [    25]: 21012
      0.13477 [    13]: 11211
      0.05423 [    10]: 11112
      0.02625 [    23]: 20121
      0.01391 [    19]: 12120
      0.00983 [    33]: 22101
      0.00827 [    20]: 12201
      0.00808 [     6]: 10122
      0.00755 [    16]: 12021
      0.00529 [     1]: 01212
ROOT   1:  E=   -3418.8472918029 Eh  0.030 eV    244.0 cm**-1
      0.22332 [    22]: 20112
      0.20166 [    24]: 20211
      0.13789 [    27]: 21102
      0.09607 [     7]: 10212
      0.06881 [    30]: 21201
      0.05217 [    11]: 11121
      0.04126 [     0]: 01122
      0.03557 [    32]: 22011
      0.02568 [    12]: 11202
      0.01765 [     3]: 02112
      0.01744 [     9]: 11022
      0.01555 [    34]: 22110
      0.01519 [    26]: 21021
      0.01455 [    21]: 12210
      0.01063 [    15]: 12012
      0.00905 [    18]: 12111
      0.00872 [    29]: 21120
      0.00493 [     5]: 02211
ROOT   2:  E=   -3418.8445436723 Eh  0.105 eV    847.2 cm**-1
      0.16715 [     6]: 10122
      0.16674 [    28]: 21111
      0.13977 [    25]: 21012
      0.12215 [     1]: 01212
      0.11741 [    13]: 11211
      0.11227 [    10]: 11112
      0.05003 [    23]: 20121
      0.04626 [     8]: 10221
      0.03265 [    17]: 12102
      0.02152 [    33]: 22101
      0.01086 [    20]: 12201
      0.00844 [    19]: 12120
      0.00455 [    31]: 21210
ROOT   3:  E=   -3418.8441916275 Eh  0.115 eV    924.5 cm**-1
      0.35035 [    10]: 11112
      0.30088 [    28]: 21111
      0.15409 [    13]: 11211
      0.04856 [     8]: 10221
      0.03866 [    33]: 22101
      0.03026 [    31]: 21210
      0.02352 [     1]: 01212
      0.01729 [    23]: 20121
      0.00960 [    16]: 12021
      0.00679 [    17]: 12102
      0.00646 [    20]: 12201
      0.00615 [    25]: 21012
      0.00287 [     6]: 10122
      0.00262 [     4]: 02121
ROOT   4:  E=   -3418.8434445528 Eh  0.135 eV   1088.4 cm**-1
      0.24721 [    22]: 20112
      0.11686 [    11]: 11121
      0.11519 [    30]: 21201
      0.09300 [     0]: 01122
      0.07101 [    27]: 21102
      0.05877 [    34]: 22110
      0.05768 [    12]: 11202
      0.05347 [     7]: 10212
      0.04770 [     2]: 01221
      0.04210 [    26]: 21021
      0.01831 [    15]: 12012
      0.01749 [    18]: 12111
      0.01707 [     3]: 02112
      0.01683 [     9]: 11022
      0.01440 [    32]: 22011
      0.00529 [     5]: 02211
      0.00420 [    29]: 21120
ROOT   5:  E=   -3418.8409555010 Eh  0.203 eV   1634.7 cm**-1
      0.31402 [    11]: 11121
      0.26871 [     9]: 11022
      0.14343 [     7]: 10212
      0.04980 [    14]: 11220
      0.04258 [    26]: 21021
      0.03431 [    32]: 22011
      0.03383 [    12]: 11202
      0.03353 [    15]: 12012
      0.01266 [    34]: 22110
      0.01119 [     2]: 01221
      0.01088 [     3]: 02112
      0.01085 [     0]: 01122
      0.00881 [    27]: 21102
      0.00797 [    18]: 12111
      0.00575 [    21]: 12210
      0.00529 [     5]: 02211
      0.00289 [    24]: 20211
ROOT   6:  E=   -3418.8401386578 Eh  0.225 eV   1814.0 cm**-1
      0.36172 [     6]: 10122
      0.20395 [    10]: 11112
      0.15958 [    13]: 11211
      0.14013 [    28]: 21111
      0.03735 [     8]: 10221
      0.03115 [    33]: 22101
      0.02284 [    17]: 12102
      0.02116 [    25]: 21012
      0.01068 [    16]: 12021
      0.00608 [     4]: 02121
      0.00425 [    19]: 12120
ROOT   7:  E=   -3418.8389389629 Eh  0.258 eV   2077.3 cm**-1
      0.37337 [    11]: 11121
      0.15878 [    18]: 12111
      0.15694 [    27]: 21102
      0.07382 [    26]: 21021
      0.06795 [    29]: 21120
      0.04741 [    22]: 20112
      0.02247 [     7]: 10212
      0.01946 [     2]: 01221
      0.01825 [     5]: 02211
      0.01668 [     9]: 11022
      0.01608 [    14]: 11220
      0.01132 [    21]: 12210
      0.00391 [    32]: 22011
      0.00311 [    30]: 21201
      0.00287 [     3]: 02112
      0.00273 [    24]: 20211
ROOT   8:  E=   -3418.8374208005 Eh  0.299 eV   2410.5 cm**-1
      0.21744 [    11]: 11121
      0.19955 [    26]: 21021
      0.17078 [    32]: 22011
      0.09409 [    18]: 12111
      0.07930 [     2]: 01221
      0.07480 [    22]: 20112
      0.06088 [     0]: 01122
      0.02699 [     7]: 10212
      0.01679 [     5]: 02211
      0.01342 [    29]: 21120
      0.01172 [    24]: 20211
      0.01057 [    34]: 22110
      0.00846 [    27]: 21102
      0.00698 [    15]: 12012
      0.00465 [    12]: 11202
ROOT   9:  E=   -3418.8367838608 Eh  0.316 eV   2550.3 cm**-1
      0.22044 [    28]: 21111
      0.17163 [    13]: 11211
      0.16856 [    33]: 22101
      0.16619 [    10]: 11112
      0.14091 [     6]: 10122
      0.05570 [    25]: 21012
      0.02744 [     4]: 02121
      0.02510 [    31]: 21210
      0.01853 [    17]: 12102
      0.00267 [    23]: 20121
ROOT  10:  E=   -3418.8357777067 Eh  0.344 eV   2771.1 cm**-1
      0.18829 [     7]: 10212
      0.14686 [    30]: 21201
      0.12623 [    34]: 22110
      0.10872 [    29]: 21120
      0.09352 [    18]: 12111
      0.05894 [    27]: 21102
      0.04402 [     2]: 01221
      0.04276 [    11]: 11121
      0.04024 [     0]: 01122
      0.03956 [     9]: 11022
      0.02678 [     3]: 02112
      0.01534 [    24]: 20211
      0.01479 [    26]: 21021
      0.01180 [    22]: 20112
      0.01029 [    12]: 11202
      0.00993 [    21]: 12210
      0.00977 [    15]: 12012
      0.00732 [    32]: 22011
      0.00273 [    14]: 11220
ROOT  11:  E=   -3418.8348512868 Eh  0.369 eV   2974.4 cm**-1
      0.14904 [    27]: 21102
      0.14475 [     7]: 10212
      0.12731 [    14]: 11220
      0.10983 [    12]: 11202
      0.10682 [    32]: 22011
      0.09984 [    11]: 11121
      0.05331 [     9]: 11022
      0.03671 [    18]: 12111
      0.03420 [    15]: 12012
      0.03351 [    29]: 21120
      0.02157 [    21]: 12210
      0.02095 [     5]: 02211
      0.01815 [     3]: 02112
      0.01628 [    34]: 22110
      0.01052 [     2]: 01221
      0.01001 [     0]: 01122
      0.00353 [    24]: 20211
      0.00258 [    22]: 20112
ROOT  12:  E=   -3418.8339261113 Eh  0.394 eV   3177.5 cm**-1
      0.32028 [    10]: 11112
      0.23325 [    13]: 11211
      0.14909 [     1]: 01212
      0.13489 [    28]: 21111
      0.05796 [    25]: 21012
      0.03094 [     8]: 10221
      0.02382 [     4]: 02121
      0.01855 [    16]: 12021
      0.01766 [    33]: 22101
      0.00417 [     6]: 10122
      0.00376 [    19]: 12120
ROOT  13:  E=   -3418.8317692408 Eh  0.453 eV   3650.9 cm**-1
      0.22932 [    34]: 22110
      0.17751 [    30]: 21201
      0.13905 [    12]: 11202
      0.09487 [    11]: 11121
      0.06496 [     3]: 02112
      0.06179 [    22]: 20112
      0.05547 [    18]: 12111
      0.05002 [     2]: 01221
      0.04178 [     7]: 10212
      0.01754 [    14]: 11220
      0.01686 [     9]: 11022
      0.01630 [    21]: 12210
      0.01173 [    27]: 21102
      0.01006 [    29]: 21120
      0.00762 [    24]: 20211
      0.00308 [    15]: 12012
ROOT  14:  E=   -3418.8287253586 Eh  0.535 eV   4318.9 cm**-1
      0.39112 [    10]: 11112
      0.14143 [    13]: 11211
      0.11975 [    28]: 21111
      0.11596 [     8]: 10221
      0.06425 [    23]: 20121
      0.03935 [     1]: 01212
      0.03605 [    33]: 22101
      0.02769 [    31]: 21210
      0.01619 [     4]: 02121
      0.01066 [    19]: 12120
      0.00995 [    20]: 12201
      0.00650 [    16]: 12021
      0.00377 [    17]: 12102
      0.00286 [    25]: 21012
      0.00254 [     6]: 10122
ROOT  15:  E=   -3418.8286237012 Eh  0.538 eV   4341.2 cm**-1
      0.14667 [    34]: 22110
      0.13805 [    18]: 12111
      0.13321 [    21]: 12210
      0.12471 [    11]: 11121
      0.09312 [    32]: 22011
      0.06070 [    30]: 21201
      0.05216 [     9]: 11022
      0.05012 [    26]: 21021
      0.04344 [     2]: 01221
      0.03785 [    29]: 21120
      0.03602 [    12]: 11202
      0.02391 [    24]: 20211
      0.01527 [     7]: 10212
      0.01207 [    14]: 11220
      0.00699 [    27]: 21102
      0.00664 [    15]: 12012
      0.00500 [    22]: 20112
      0.00455 [    10]: 11112
ROOT  16:  E=   -3418.8277788957 Eh  0.561 eV   4526.6 cm**-1
      0.28218 [    13]: 11211
      0.13468 [    10]: 11112
      0.12703 [    28]: 21111
      0.10128 [    31]: 21210
      0.09934 [    33]: 22101
      0.05015 [    25]: 21012
      0.05011 [    19]: 12120
      0.04921 [     6]: 10122
      0.03313 [    17]: 12102
      0.02725 [    20]: 12201
      0.01729 [     8]: 10221
      0.01167 [    23]: 20121
      0.01055 [     4]: 02121
      0.00578 [    16]: 12021
ROOT  17:  E=   -3418.8256386886 Eh  0.619 eV   4996.4 cm**-1
      0.24174 [    13]: 11211
      0.22272 [    33]: 22101
      0.17012 [    25]: 21012
      0.11305 [    23]: 20121
      0.04853 [    28]: 21111
      0.04674 [     4]: 02121
      0.04478 [    16]: 12021
      0.02876 [    31]: 21210
      0.02360 [     1]: 01212
      0.02351 [    19]: 12120
      0.01681 [     8]: 10221
      0.00976 [     6]: 10122
      0.00509 [    10]: 11112
      0.00282 [    17]: 12102
ROOT  18:  E=   -3418.8250766261 Eh  0.635 eV   5119.7 cm**-1
      0.21957 [    18]: 12111
      0.12996 [     0]: 01122
      0.11637 [    15]: 12012
      0.11418 [    14]: 11220
      0.08417 [    11]: 11121
      0.07053 [     2]: 01221
      0.06701 [    34]: 22110
      0.06478 [    32]: 22011
      0.04175 [    21]: 12210
      0.03426 [    30]: 21201
      0.01294 [     9]: 11022
      0.01071 [     7]: 10212
      0.00636 [    12]: 11202
      0.00608 [     3]: 02112
      0.00554 [    24]: 20211
      0.00486 [    29]: 21120
      0.00439 [     5]: 02211
ROOT  19:  E=   -3418.8233604722 Eh  0.681 eV   5496.4 cm**-1
      0.43652 [    10]: 11112
      0.16429 [    28]: 21111
      0.16048 [    13]: 11211
      0.08732 [    19]: 12120
      0.04422 [     6]: 10122
      0.03396 [    16]: 12021
      0.02827 [    25]: 21012
      0.02601 [    31]: 21210
      0.00641 [     8]: 10221
      0.00401 [     4]: 02121
      0.00267 [    20]: 12201
ROOT  20:  E=   -3418.8230737428 Eh  0.689 eV   5559.3 cm**-1
      0.30022 [     0]: 01122
      0.25779 [    11]: 11121
      0.15939 [    24]: 20211
      0.07848 [    18]: 12111
      0.04851 [    15]: 12012
      0.02881 [     9]: 11022
      0.02528 [     7]: 10212
      0.02472 [    21]: 12210
      0.02186 [     5]: 02211
      0.01981 [    27]: 21102
      0.01165 [    22]: 20112
      0.00877 [    14]: 11220
      0.00758 [    32]: 22011
      0.00421 [    29]: 21120
ROOT  21:  E=   -3418.8213882651 Eh  0.735 eV   5929.2 cm**-1
      0.29777 [    18]: 12111
      0.18469 [     9]: 11022
      0.11483 [    12]: 11202
      0.08435 [    11]: 11121
      0.05422 [    22]: 20112
      0.04621 [    32]: 22011
      0.04551 [    34]: 22110
      0.02820 [    21]: 12210
      0.02261 [    26]: 21021
      0.02220 [     7]: 10212
      0.02176 [     2]: 01221
      0.01686 [    30]: 21201
      0.01671 [    24]: 20211
      0.01616 [     0]: 01122
      0.01494 [    14]: 11220
      0.01037 [    27]: 21102
ROOT  22:  E=   -3418.8213411117 Eh  0.736 eV   5939.6 cm**-1
      0.23061 [    13]: 11211
      0.20524 [    28]: 21111
      0.15060 [    10]: 11112
      0.06416 [    20]: 12201
      0.05541 [     8]: 10221
      0.05240 [    33]: 22101
      0.04981 [     6]: 10122
      0.04579 [     1]: 01212
      0.03669 [    23]: 20121
      0.03652 [    19]: 12120
      0.03429 [    31]: 21210
      0.03345 [    17]: 12102
      0.00383 [    16]: 12021
ROOT  23:  E=   -3418.8193861074 Eh  0.790 eV   6368.6 cm**-1
      0.28940 [    16]: 12021
      0.20436 [     4]: 02121
      0.18781 [    19]: 12120
      0.07180 [    20]: 12201
      0.06825 [    28]: 21111
      0.05570 [     1]: 01212
      0.04534 [    23]: 20121
      0.04136 [    25]: 21012
      0.01651 [    17]: 12102
      0.00932 [    13]: 11211
      0.00370 [     6]: 10122
ROOT  24:  E=   -3418.8185475298 Eh  0.812 eV   6552.7 cm**-1
      0.27086 [    18]: 12111
      0.23444 [    11]: 11121
      0.11399 [     2]: 01221
      0.08313 [    32]: 22011
      0.06965 [     0]: 01122
      0.04131 [    14]: 11220
      0.03262 [    15]: 12012
      0.02988 [    34]: 22110
      0.02261 [    30]: 21201
      0.02191 [     9]: 11022
      0.01773 [     5]: 02211
      0.01350 [    12]: 11202
      0.01156 [    27]: 21102
      0.00806 [     3]: 02112
      0.00756 [    21]: 12210
      0.00471 [    24]: 20211
      0.00448 [    22]: 20112
      0.00407 [    29]: 21120
      0.00378 [    26]: 21021
      0.00299 [     7]: 10212
ROOT  25:  E=   -3418.8170332053 Eh  0.854 eV   6885.0 cm**-1
      0.35759 [    18]: 12111
      0.09803 [    11]: 11121
      0.09360 [     5]: 02211
      0.08990 [    27]: 21102
      0.08120 [    32]: 22011
      0.05919 [    14]: 11220
      0.05847 [    29]: 21120
      0.05045 [     0]: 01122
      0.02945 [     9]: 11022
      0.02731 [    21]: 12210
      0.01150 [    26]: 21021
      0.01033 [    15]: 12012
      0.00809 [    12]: 11202
      0.00790 [     7]: 10212
      0.00593 [     2]: 01221
      0.00568 [    34]: 22110
      0.00298 [     3]: 02112
ROOT  26:  E=   -3418.8145346919 Eh  0.922 eV   7433.4 cm**-1
      0.19887 [     4]: 02121
      0.17507 [     1]: 01212
      0.17235 [    28]: 21111
      0.16881 [    13]: 11211
      0.09440 [    33]: 22101
      0.05783 [    16]: 12021
      0.04241 [    31]: 21210
      0.03310 [    19]: 12120
      0.01648 [    25]: 21012
      0.01376 [     8]: 10221
      0.01070 [    17]: 12102
      0.00480 [    23]: 20121
      0.00434 [    20]: 12201
      0.00399 [    10]: 11112
      0.00279 [     6]: 10122
ROOT  27:  E=   -3418.8141767593 Eh  0.931 eV   7512.0 cm**-1
      0.27201 [    13]: 11211
      0.26640 [    20]: 12201
      0.15037 [    19]: 12120
      0.11069 [    28]: 21111
      0.05887 [     8]: 10221
      0.05353 [    31]: 21210
      0.02837 [    33]: 22101
      0.02262 [     1]: 01212
      0.01393 [    10]: 11112
      0.00691 [    17]: 12102
      0.00668 [     4]: 02121
      0.00475 [    16]: 12021
      0.00311 [     6]: 10122
ROOT  28:  E=   -3418.8101011226 Eh  1.042 eV   8406.5 cm**-1
      0.26347 [     5]: 02211
      0.19613 [     2]: 01221
      0.16223 [    18]: 12111
      0.10025 [    11]: 11121
      0.08809 [    21]: 12210
      0.04609 [    34]: 22110
      0.03548 [    29]: 21120
      0.02791 [    22]: 20112
      0.02580 [    32]: 22011
      0.01923 [    15]: 12012
      0.01324 [    24]: 20211
      0.01082 [     3]: 02112
      0.00392 [    26]: 21021
      0.00264 [    14]: 11220
ROOT  29:  E=   -3418.8097305010 Eh  1.052 eV   8487.8 cm**-1
      0.37095 [    21]: 12210
      0.30489 [    18]: 12111
      0.06370 [    34]: 22110
      0.04050 [     3]: 02112
      0.03552 [     5]: 02211
      0.03401 [    12]: 11202
      0.03142 [    26]: 21021
      0.02907 [    11]: 11121
      0.02772 [    29]: 21120
      0.01861 [    30]: 21201
      0.01234 [    15]: 12012
      0.00799 [    14]: 11220
      0.00710 [    32]: 22011
      0.00581 [     9]: 11022
      0.00481 [     7]: 10212
ROOT  30:  E=   -3418.7959802642 Eh  1.427 eV  11505.6 cm**-1
      0.37227 [    10]: 11112
      0.18478 [     8]: 10221
      0.15100 [    28]: 21111
      0.07175 [    13]: 11211
      0.04670 [    16]: 12021
      0.04033 [     6]: 10122
      0.02913 [    23]: 20121
      0.02729 [    25]: 21012
      0.02338 [    17]: 12102
      0.01951 [     1]: 01212
      0.01407 [    20]: 12201
      0.00943 [     4]: 02121
      0.00595 [    19]: 12120
      0.00277 [    31]: 21210
ROOT  31:  E=   -3418.7951109447 Eh  1.450 eV  11696.4 cm**-1
      0.18747 [    17]: 12102
      0.17341 [    19]: 12120
      0.12314 [    16]: 12021
      0.08594 [    10]: 11112
      0.08268 [    31]: 21210
      0.07428 [    23]: 20121
      0.06096 [    13]: 11211
      0.04555 [    28]: 21111
      0.04034 [     8]: 10221
      0.03418 [    20]: 12201
      0.03370 [     1]: 01212
      0.03229 [    25]: 21012
      0.02207 [     4]: 02121
ROOT  32:  E=   -3418.7930877395 Eh  1.505 eV  12140.5 cm**-1
      0.17461 [    11]: 11121
      0.13206 [    24]: 20211
      0.10003 [    18]: 12111
      0.09264 [    15]: 12012
      0.08305 [     5]: 02211
      0.07852 [     3]: 02112
      0.07194 [    26]: 21021
      0.05221 [     2]: 01221
      0.04783 [    22]: 20112
      0.04334 [     0]: 01122
      0.03929 [     7]: 10212
      0.02202 [    29]: 21120
      0.01846 [    12]: 11202
      0.01659 [    14]: 11220
      0.01615 [    34]: 22110
      0.00730 [     9]: 11022
ROOT  33:  E=   -3418.7911097110 Eh  1.559 eV  12574.6 cm**-1
      0.20093 [    20]: 12201
      0.17962 [    28]: 21111
      0.14207 [     4]: 02121
      0.10611 [    13]: 11211
      0.07418 [    16]: 12021
      0.07210 [    23]: 20121
      0.06832 [     1]: 01212
      0.05123 [    10]: 11112
      0.03198 [    33]: 22101
      0.02073 [     8]: 10221
      0.01610 [    17]: 12102
      0.01586 [    25]: 21012
      0.01089 [    31]: 21210
      0.00829 [    19]: 12120
ROOT  34:  E=   -3418.7896375970 Eh  1.599 eV  12897.7 cm**-1
      0.35495 [    18]: 12111
      0.22303 [    11]: 11121
      0.08727 [    12]: 11202
      0.08228 [    30]: 21201
      0.06474 [    14]: 11220
      0.04265 [    26]: 21021
      0.02787 [     5]: 02211
      0.02587 [    29]: 21120
      0.02515 [    27]: 21102
      0.02049 [    32]: 22011
      0.01486 [     3]: 02112
      0.00702 [    34]: 22110
      0.00653 [    24]: 20211
      0.00444 [    15]: 12012
      0.00402 [    22]: 20112
      0.00350 [     2]: 01221
      0.00281 [     7]: 10212
ROOT  35:  E=   -3418.7341839598 Eh  3.108 eV  25068.3 cm**-1
      0.20013 [    29]: 21120
      0.17863 [     3]: 02112
      0.11894 [    27]: 21102
      0.10336 [     2]: 01221
      0.10089 [     5]: 02211
      0.07555 [     0]: 01122
      0.05017 [    18]: 12111
      0.03474 [    11]: 11121
      0.02872 [    26]: 21021
      0.02672 [    22]: 20112
      0.02112 [    12]: 11202
      0.01550 [     7]: 10212
      0.01500 [    15]: 12012
      0.01166 [     9]: 11022
      0.00497 [    34]: 22110
      0.00489 [    14]: 11220
      0.00336 [    32]: 22011
      0.00272 [    21]: 12210
ROOT  36:  E=   -3418.7268453710 Eh  3.308 eV  26679.0 cm**-1
      0.32863 [    31]: 21210
      0.19153 [     1]: 01212
      0.18458 [    25]: 21012
      0.05893 [    13]: 11211
      0.05755 [    17]: 12102
      0.05334 [    28]: 21111
      0.03257 [    23]: 20121
      0.02436 [    10]: 11112
      0.01934 [     6]: 10122
      0.01604 [     8]: 10221
      0.01223 [    33]: 22101
      0.01079 [    20]: 12201
      0.00547 [    19]: 12120
      0.00327 [    16]: 12021
ROOT  37:  E=   -3418.7248673442 Eh  3.362 eV  27113.1 cm**-1
      0.31815 [     3]: 02112
      0.13457 [    26]: 21021
      0.06677 [     5]: 02211
      0.06183 [    32]: 22011
      0.05650 [     9]: 11022
      0.05327 [    34]: 22110
      0.04639 [    12]: 11202
      0.04490 [    18]: 12111
      0.03977 [    29]: 21120
      0.03368 [    22]: 20112
      0.03255 [    14]: 11220
      0.03002 [    11]: 11121
      0.02775 [    24]: 20211
      0.02289 [     0]: 01122
      0.01264 [    27]: 21102
      0.00870 [    30]: 21201
      0.00361 [    15]: 12012
      0.00256 [     7]: 10212
ROOT  38:  E=   -3418.7228856393 Eh  3.416 eV  27548.0 cm**-1
      0.34410 [    14]: 11220
      0.25520 [    29]: 21120
      0.11929 [    21]: 12210
      0.07269 [    15]: 12012
      0.05622 [    12]: 11202
      0.03600 [     9]: 11022
      0.02454 [    11]: 11121
      0.01832 [     5]: 02211
      0.01811 [    18]: 12111
      0.01546 [    32]: 22011
      0.01423 [     7]: 10212
      0.01380 [     0]: 01122
      0.00378 [     2]: 01221
      0.00353 [    27]: 21102
ROOT  39:  E=   -3418.7204012967 Eh  3.483 eV  28093.3 cm**-1
      0.27346 [    23]: 20121
      0.19102 [    17]: 12102
      0.13162 [    13]: 11211
      0.09487 [     4]: 02121
      0.05742 [    28]: 21111
      0.04724 [     8]: 10221
      0.04640 [    10]: 11112
      0.03596 [    33]: 22101
      0.03565 [    19]: 12120
      0.03009 [    31]: 21210
      0.02749 [     6]: 10122
      0.01019 [     1]: 01212
      0.00846 [    16]: 12021
      0.00761 [    20]: 12201
ROOT  40:  E=   -3418.7199796115 Eh  3.495 eV  28185.8 cm**-1
      0.21844 [    24]: 20211
      0.16881 [     5]: 02211
      0.10757 [    11]: 11121
      0.08694 [    22]: 20112
      0.06861 [    30]: 21201
      0.06334 [     2]: 01221
      0.05881 [    26]: 21021
      0.04936 [    27]: 21102
      0.04083 [    18]: 12111
      0.03061 [    15]: 12012
      0.02744 [     7]: 10212
      0.01985 [    32]: 22011
      0.01727 [    34]: 22110
      0.01451 [    12]: 11202
      0.01006 [     9]: 11022
      0.00698 [     3]: 02112
      0.00683 [    29]: 21120
ROOT  41:  E=   -3418.7193104534 Eh  3.513 eV  28332.7 cm**-1
      0.17549 [     4]: 02121
      0.17230 [    17]: 12102
      0.11424 [    23]: 20121
      0.10802 [    20]: 12201
      0.09354 [    33]: 22101
      0.07464 [    16]: 12021
      0.07114 [    13]: 11211
      0.06056 [    19]: 12120
      0.03373 [    10]: 11112
      0.03120 [     8]: 10221
      0.02636 [    28]: 21111
      0.01204 [     1]: 01212
      0.01143 [     6]: 10122
      0.01072 [    31]: 21210
      0.00290 [    25]: 21012
ROOT  42:  E=   -3418.7154965537 Eh  3.617 eV  29169.8 cm**-1
      0.18826 [    15]: 12012
      0.15499 [    12]: 11202
      0.13110 [    30]: 21201
      0.08691 [     7]: 10212
      0.06569 [     9]: 11022
      0.06092 [    11]: 11121
      0.06081 [    24]: 20211
      0.05411 [    18]: 12111
      0.05410 [    21]: 12210
      0.04620 [    14]: 11220
      0.03361 [     2]: 01221
      0.02618 [    26]: 21021
      0.01791 [    27]: 21102
      0.00867 [    32]: 22011
      0.00689 [    34]: 22110
ROOT  43:  E=   -3418.7140115791 Eh  3.657 eV  29495.7 cm**-1
      0.22859 [    15]: 12012
      0.17115 [     3]: 02112
      0.12096 [    26]: 21021
      0.08450 [    32]: 22011
      0.08004 [    24]: 20211
      0.04505 [     9]: 11022
      0.03682 [    30]: 21201
      0.03111 [    18]: 12111
      0.02672 [    29]: 21120
      0.02522 [    22]: 20112
      0.02519 [    27]: 21102
      0.02187 [     2]: 01221
      0.02055 [     5]: 02211
      0.01766 [    11]: 11121
      0.01676 [    21]: 12210
      0.01493 [    34]: 22110
      0.01415 [     0]: 01122
      0.01310 [    14]: 11220
      0.00384 [     7]: 10212
ROOT  44:  E=   -3418.7104952816 Eh  3.753 eV  30267.4 cm**-1
      0.20669 [     8]: 10221
      0.17541 [    16]: 12021
      0.15848 [    17]: 12102
      0.15106 [    20]: 12201
      0.09847 [    19]: 12120
      0.05566 [    28]: 21111
      0.04750 [     6]: 10122
      0.03493 [    10]: 11112
      0.02614 [    23]: 20121
      0.01919 [    13]: 11211
      0.01196 [    31]: 21210
      0.00718 [    25]: 21012
      0.00668 [     4]: 02121

                 <<<<<<<<<<<<<<<<<<INITIAL CI STATE CHECK>>>>>>>>>>>>>>>>>>

   E(CAS)= -3418.854061675 Eh DE=    0.000000e+00
   --- Energy gap subspaces: Ext-Act = 0.173   Act-Int = 0.058
   N(occ)=  1.20000 1.20000 1.20000 1.20000 1.20000
   ||g|| =     2.769554e+00 Max(G)=   -4.687453e-01 Rot=592,1
   --- Orbital Update [SuperCI(PT)]
   --- Canonicalize Internal Space
   --- Canonicalize External Space
   --- SX_PT (Skipped TA=0 IT=0): ||X|| =      0.575039859 Max(X)(166,158) =     -0.115430976 
   --- SFit(Active Orbitals)

MACRO-ITERATION   2: 
   --- Inactive Energy E0 = -3404.32576228 Eh
CI-ITERATION   0: 
 -3419.390273341   0.000000000000 (    0.00)
 -3419.386053848   0.000000000000
 -3419.385045404   0.000000000000
 -3419.379733906   0.000000000000
 -3419.377298362   0.000000000000
   CI-PROBLEM SOLVED
   DENSITIES MADE
CI-ITERATION   0: 
 -3419.307271300   0.000000000000 (    0.00)
 -3419.305986402   0.000000000000
 -3419.305687274   0.000000000000
 -3419.304194810   0.000000000000
 -3419.303174499   0.000000000000
 -3419.303034328   0.000000000000
 -3419.302115480   0.000000000000
 -3419.298488802   0.000000000000
 -3419.297920694   0.000000000000
 -3419.297631053   0.000000000000
 -3419.297153252   0.000000000000
 -3419.292536566   0.000000000000
 -3419.291893517   0.000000000000
 -3419.291657541   0.000000000000
 -3419.290696064   0.000000000000
 -3419.288643318   0.000000000000
 -3419.286214221   0.000000000000
 -3419.285955460   0.000000000000
 -3419.284163269   0.000000000000
 -3419.282931969   0.000000000000
 -3419.282495582   0.000000000000
 -3419.279439485   0.000000000000
 -3419.279256881   0.000000000000
 -3419.277998332   0.000000000000
 -3419.277173996   0.000000000000
 -3419.274433044   0.000000000000
 -3419.273971087   0.000000000000
 -3419.273222708   0.000000000000
 -3419.271316058   0.000000000000
 -3419.271086003   0.000000000000
 -3419.249957603   0.000000000000
 -3419.245912254   0.000000000000
 -3419.243907315   0.000000000000
 -3419.242878761   0.000000000000
 -3419.242165390   0.000000000000
 -3419.166803495   0.000000000000
 -3419.163929448   0.000000000000
 -3419.157512789   0.000000000000
 -3419.156931559   0.000000000000
 -3419.154483044   0.000000000000
 -3419.151382811   0.000000000000
 -3419.150089123   0.000000000000
 -3419.145250198   0.000000000000
 -3419.143809652   0.000000000000
 -3419.139629249   0.000000000000
   CI-PROBLEM SOLVED
   DENSITIES MADE
   E(CAS)= -3419.318866994 Eh DE=   -4.648053e-01
   --- Energy gap subspaces: Ext-Act = 0.328   Act-Int = -0.119
   N(occ)=  1.20000 1.20000 1.20000 1.20000 1.20000
   ||g|| =     1.034552e+00 Max(G)=   -9.208474e-02 Rot=592,21
   --- Orbital Update [SuperCI(PT)]
   --- Canonicalize Internal Space
   --- Canonicalize External Space
   --- SX_PT (Skipped TA=0 IT=0): ||X|| =      0.221567614 Max(X)(171,162) =      0.046099172 
   --- SFit(Active Orbitals)

MACRO-ITERATION   3: 
   --- Inactive Energy E0 = -3404.48339409 Eh
CI-ITERATION   0: 
 -3419.443983269   0.000000000000 (    0.00)
 -3419.440629250   0.000000000000
 -3419.438745201   0.000000000000
 -3419.437506497   0.000000000000
 -3419.433506787   0.000000000000
   CI-PROBLEM SOLVED
   DENSITIES MADE
CI-ITERATION   0: 
 -3419.350887064   0.000000000000 (    0.00)
 -3419.350770985   0.000000000000
 -3419.349712722   0.000000000000
 -3419.349448332   0.000000000000
 -3419.347841652   0.000000000000
 -3419.347821006   0.000000000000
 -3419.347452629   0.000000000000
 -3419.345273897   0.000000000000
 -3419.344385851   0.000000000000
 -3419.343904501   0.000000000000
 -3419.343758163   0.000000000000
 -3419.338957181   0.000000000000
 -3419.337566886   0.000000000000
 -3419.337436502   0.000000000000
 -3419.334135819   0.000000000000
 -3419.334110567   0.000000000000
 -3419.333459977   0.000000000000
 -3419.333006133   0.000000000000
 -3419.331630780   0.000000000000
 -3419.331404503   0.000000000000
 -3419.328664040   0.000000000000
 -3419.325016128   0.000000000000
 -3419.323566821   0.000000000000
 -3419.323479569   0.000000000000
 -3419.322224152   0.000000000000
 -3419.322003463   0.000000000000
 -3419.321536816   0.000000000000
 -3419.320075155   0.000000000000
 -3419.318510779   0.000000000000
 -3419.318388116   0.000000000000
 -3419.288854596   0.000000000000
 -3419.288795485   0.000000000000
 -3419.287897732   0.000000000000
 -3419.286455964   0.000000000000
 -3419.286153271   0.000000000000
 -3419.194656537   0.000000000000
 -3419.193147198   0.000000000000
 -3419.190724643   0.000000000000
 -3419.188641296   0.000000000000
 -3419.187423881   0.000000000000
 -3419.186006542   0.000000000000
 -3419.185085726   0.000000000000
 -3419.184593221   0.000000000000
 -3419.184143862   0.000000000000
 -3419.177993061   0.000000000000
   CI-PROBLEM SOLVED
   DENSITIES MADE
   E(CAS)= -3419.367959358 Eh DE=   -4.909236e-02
   --- Energy gap subspaces: Ext-Act = 0.158   Act-Int = 0.073
   N(occ)=  1.20000 1.20000 1.20000 1.20000 1.20000
   ||g|| =     7.575477e-01 Max(G)=    1.557506e-01 Rot=592,21
   --- Orbital Update [SuperCI(PT)]
   --- Canonicalize Internal Space
   --- Canonicalize External Space
   --- SX_PT (Skipped TA=0 IT=0): ||X|| =      0.219662967 Max(X)(166,160) =      0.088506715 
   --- SFit(Active Orbitals)

MACRO-ITERATION   4: 
   --- Inactive Energy E0 = -3403.65034559 Eh
CI-ITERATION   0: 
 -3419.474753441   0.000000000000 (    0.00)
 -3419.470038953   0.000000000000
 -3419.469130506   0.000000000000
 -3419.465368845   0.000000000000
 -3419.463990848   0.000000000000
   CI-PROBLEM SOLVED
   DENSITIES MADE
CI-ITERATION   0: 
 -3419.379031680   0.000000000000 (    0.00)
 -3419.378407845   0.000000000000
 -3419.377514590   0.000000000000
 -3419.377105557   0.000000000000
 -3419.376687978   0.000000000000
 -3419.376661492   0.000000000000
 -3419.375061093   0.000000000000
 -3419.373624059   0.000000000000
 -3419.372315758   0.000000000000
 -3419.372166748   0.000000000000
 -3419.371623506   0.000000000000
 -3419.365871715   0.000000000000
 -3419.365013683   0.000000000000
 -3419.364548835   0.000000000000
 -3419.363061444   0.000000000000
 -3419.361311591   0.000000000000
 -3419.360487305   0.000000000000
 -3419.360072303   0.000000000000
 -3419.358875965   0.000000000000
 -3419.358644250   0.000000000000
 -3419.356728024   0.000000000000
 -3419.352480511   0.000000000000
 -3419.351216847   0.000000000000
 -3419.351074700   0.000000000000
 -3419.349315168   0.000000000000
 -3419.347888606   0.000000000000
 -3419.347783708   0.000000000000
 -3419.347112221   0.000000000000
 -3419.345403196   0.000000000000
 -3419.345402648   0.000000000000
 -3419.316287900   0.000000000000
 -3419.313939251   0.000000000000
 -3419.313435691   0.000000000000
 -3419.312489144   0.000000000000
 -3419.312381829   0.000000000000
 -3419.219623443   0.000000000000
 -3419.218243511   0.000000000000
 -3419.213997508   0.000000000000
 -3419.213247208   0.000000000000
 -3419.212979993   0.000000000000
 -3419.211322438   0.000000000000
 -3419.210438493   0.000000000000
 -3419.205744629   0.000000000000
 -3419.205501807   0.000000000000
 -3419.198182442   0.000000000000
   CI-PROBLEM SOLVED
   DENSITIES MADE
   E(CAS)= -3419.396109463 Eh DE=   -2.815010e-02
   --- Energy gap subspaces: Ext-Act = 0.252   Act-Int = -0.033
   N(occ)=  1.20000 1.20000 1.20000 1.20000 1.20000
   ||g|| =     2.207388e-01 Max(G)=   -1.599383e-02 Rot=166,160
   --- Orbital Update [SuperCI(PT)]
   --- Canonicalize Internal Space
   --- Canonicalize External Space
   --- SX_PT (Skipped TA=0 IT=0): ||X|| =      0.074961908 Max(X)(166,160) =      0.025367202 
   --- SFit(Active Orbitals)

MACRO-ITERATION   5: 
   --- Inactive Energy E0 = -3403.56873580 Eh
CI-ITERATION   0: 
 -3419.478087683   0.000000000000 (    0.00)
 -3419.473492037   0.000000000000
 -3419.472649423   0.000000000000
 -3419.468952312   0.000000000000
 -3419.466897329   0.000000000000
   CI-PROBLEM SOLVED
   DENSITIES MADE
CI-ITERATION   0: 
 -3419.381515323   0.000000000000 (    0.00)
 -3419.380799159   0.000000000000
 -3419.380080238   0.000000000000
 -3419.379607514   0.000000000000
 -3419.379145410   0.000000000000
 -3419.379081145   0.000000000000
 -3419.377635834   0.000000000000
 -3419.376129840   0.000000000000
 -3419.374865383   0.000000000000
 -3419.374792281   0.000000000000
 -3419.374237495   0.000000000000
 -3419.368153626   0.000000000000
 -3419.367482256   0.000000000000
 -3419.367014067   0.000000000000
 -3419.365328682   0.000000000000
 -3419.363642376   0.000000000000
 -3419.362849949   0.000000000000
 -3419.362473367   0.000000000000
 -3419.361176371   0.000000000000
 -3419.360968796   0.000000000000
 -3419.359310284   0.000000000000
 -3419.354753387   0.000000000000
 -3419.353577398   0.000000000000
 -3419.353353292   0.000000000000
 -3419.351763875   0.000000000000
 -3419.350274696   0.000000000000
 -3419.350177393   0.000000000000
 -3419.349371179   0.000000000000
 -3419.347827569   0.000000000000
 -3419.347817203   0.000000000000
 -3419.318158279   0.000000000000
 -3419.315970937   0.000000000000
 -3419.315436625   0.000000000000
 -3419.314533427   0.000000000000
 -3419.314402271   0.000000000000
 -3419.220307046   0.000000000000
 -3419.219135149   0.000000000000
 -3419.215204517   0.000000000000
 -3419.214244075   0.000000000000
 -3419.214181282   0.000000000000
 -3419.212693677   0.000000000000
 -3419.211923659   0.000000000000
 -3419.206788119   0.000000000000
 -3419.206594836   0.000000000000
 -3419.199291873   0.000000000000
   CI-PROBLEM SOLVED
   DENSITIES MADE
   E(CAS)= -3419.398830891 Eh DE=   -2.721428e-03
   --- Energy gap subspaces: Ext-Act = 0.252   Act-Int = -0.030
   N(occ)=  1.20000 1.20000 1.20000 1.20000 1.20000
   ||g|| =     8.793649e-02 Max(G)=   -9.812978e-03 Rot=166,160
   --- Orbital Update [SuperCI(PT)]
   --- Canonicalize Internal Space
   --- Canonicalize External Space
   --- SX_PT (Skipped TA=0 IT=0): ||X|| =      0.038747199 Max(X)(166,160) =      0.014555746 
   --- SFit(Active Orbitals)

MACRO-ITERATION   6: 
   --- Inactive Energy E0 = -3403.44817139 Eh
CI-ITERATION   0: 
 -3419.479415890   0.000000000000 (    0.00)
 -3419.474982650   0.000000000000
 -3419.474137510   0.000000000000
 -3419.470725812   0.000000000000
 -3419.468305474   0.000000000000
   CI-PROBLEM SOLVED
   DENSITIES MADE
CI-ITERATION   0: 
 -3419.381751066   0.000000000000 (    0.00)
 -3419.381090315   0.000000000000
 -3419.380462827   0.000000000000
 -3419.380014495   0.000000000000
 -3419.379450592   0.000000000000
 -3419.379298543   0.000000000000
 -3419.378102532   0.000000000000
 -3419.376658703   0.000000000000
 -3419.375441121   0.000000000000
 -3419.375400466   0.000000000000
 -3419.374876400   0.000000000000
 -3419.368412224   0.000000000000
 -3419.367783360   0.000000000000
 -3419.367344947   0.000000000000
 -3419.365444103   0.000000000000
 -3419.363936370   0.000000000000
 -3419.363242721   0.000000000000
 -3419.362905816   0.000000000000
 -3419.361531032   0.000000000000
 -3419.361339136   0.000000000000
 -3419.359880001   0.000000000000
 -3419.354900277   0.000000000000
 -3419.353785913   0.000000000000
 -3419.353531210   0.000000000000
 -3419.352081610   0.000000000000
 -3419.350731274   0.000000000000
 -3419.350656280   0.000000000000
 -3419.349702827   0.000000000000
 -3419.348284297   0.000000000000
 -3419.348272350   0.000000000000
 -3419.317864550   0.000000000000
 -3419.315956744   0.000000000000
 -3419.315429540   0.000000000000
 -3419.314527724   0.000000000000
 -3419.314352468   0.000000000000
 -3419.218543569   0.000000000000
 -3419.217605058   0.000000000000
 -3419.214099341   0.000000000000
 -3419.213017901   0.000000000000
 -3419.212994993   0.000000000000
 -3419.211675969   0.000000000000
 -3419.211066654   0.000000000000
 -3419.205868219   0.000000000000
 -3419.205715992   0.000000000000
 -3419.198572588   0.000000000000
   CI-PROBLEM SOLVED
   DENSITIES MADE
   E(CAS)= -3419.399574557 Eh DE=   -7.436658e-04
   --- Energy gap subspaces: Ext-Act = 0.251   Act-Int = -0.031
   N(occ)=  1.20000 1.20000 1.20000 1.20000 1.20000
   ||g|| =     6.479300e-02 Max(G)=    1.509487e-02 Rot=592,21
   --- Orbital Update [SuperCI(PT)]
   --- Canonicalize Internal Space
   --- Canonicalize External Space
   --- SX_PT (Skipped TA=0 IT=0): ||X|| =      0.013973041 Max(X)(166,160) =      0.005566251 
   --- SFit(Active Orbitals)

MACRO-ITERATION   7: 
   --- Inactive Energy E0 = -3403.40900788 Eh
CI-ITERATION   0: 
 -3419.479556828   0.000000000000 (    0.00)
 -3419.475092085   0.000000000000
 -3419.474260057   0.000000000000
 -3419.470938396   0.000000000000
 -3419.468432089   0.000000000000
   CI-PROBLEM SOLVED
   DENSITIES MADE
CI-ITERATION   0: 
 -3419.381884571   0.000000000000 (    0.00)
 -3419.381254969   0.000000000000
 -3419.380642905   0.000000000000
 -3419.380204825   0.000000000000
 -3419.379568890   0.000000000000
 -3419.379375243   0.000000000000
 -3419.378273115   0.000000000000
 -3419.376872765   0.000000000000
 -3419.375647770   0.000000000000
 -3419.375626347   0.000000000000
 -3419.375101755   0.000000000000
 -3419.368590285   0.000000000000
 -3419.367949034   0.000000000000
 -3419.367519450   0.000000000000
 -3419.365570644   0.000000000000
 -3419.364132582   0.000000000000
 -3419.363458099   0.000000000000
 -3419.363130788   0.000000000000
 -3419.361718977   0.000000000000
 -3419.361533918   0.000000000000
 -3419.360114925   0.000000000000
 -3419.355087227   0.000000000000
 -3419.353985104   0.000000000000
 -3419.353707753   0.000000000000
 -3419.352283468   0.000000000000
 -3419.351002996   0.000000000000
 -3419.350926763   0.000000000000
 -3419.349923876   0.000000000000
 -3419.348526756   0.000000000000
 -3419.348515475   0.000000000000
 -3419.318023241   0.000000000000
 -3419.316216546   0.000000000000
 -3419.315676381   0.000000000000
 -3419.314767276   0.000000000000
 -3419.314571592   0.000000000000
 -3419.218638885   0.000000000000
 -3419.217772641   0.000000000000
 -3419.214420819   0.000000000000
 -3419.213292602   0.000000000000
 -3419.213228336   0.000000000000
 -3419.211963290   0.000000000000
 -3419.211384994   0.000000000000
 -3419.206194226   0.000000000000
 -3419.206062210   0.000000000000
 -3419.198992568   0.000000000000
   CI-PROBLEM SOLVED
   DENSITIES MADE
   E(CAS)= -3419.399753911 Eh DE=   -1.793538e-04
   --- Energy gap subspaces: Ext-Act = 0.258   Act-Int = -0.038
   N(occ)=  1.20000 1.20000 1.20000 1.20000 1.20000
   ||g|| =     1.548621e-02 Max(G)=   -1.043075e-03 Rot=592,21
   --- Orbital Update [SuperCI(PT)]
   --- Canonicalize Internal Space
   --- Canonicalize External Space
   --- SX_PT (Skipped TA=0 IT=0): ||X|| =      0.004015955 Max(X)(170,158) =     -0.000930543 
   --- SFit(Active Orbitals)

MACRO-ITERATION   8: 
   --- Inactive Energy E0 = -3403.40993685 Eh
CI-ITERATION   0: 
 -3419.479546125   0.000000000000 (    0.00)
 -3419.475068153   0.000000000000
 -3419.474252493   0.000000000000
 -3419.470951431   0.000000000000
 -3419.468473014   0.000000000000
   CI-PROBLEM SOLVED
   DENSITIES MADE
CI-ITERATION   0: 
 -3419.381872220   0.000000000000 (    0.00)
 -3419.381264666   0.000000000000
 -3419.380650686   0.000000000000
 -3419.380220184   0.000000000000
 -3419.379561622   0.000000000000
 -3419.379355000   0.000000000000
 -3419.378275315   0.000000000000
 -3419.376904812   0.000000000000
 -3419.375673822   0.000000000000
 -3419.375657188   0.000000000000
 -3419.375131027   0.000000000000
 -3419.368614300   0.000000000000
 -3419.367953731   0.000000000000
 -3419.367526753   0.000000000000
 -3419.365565571   0.000000000000
 -3419.364154481   0.000000000000
 -3419.363484953   0.000000000000
 -3419.363167479   0.000000000000
 -3419.361753968   0.000000000000
 -3419.361569014   0.000000000000
 -3419.360139217   0.000000000000
 -3419.355102670   0.000000000000
 -3419.354004198   0.000000000000
 -3419.353721597   0.000000000000
 -3419.352294517   0.000000000000
 -3419.351053831   0.000000000000
 -3419.350976677   0.000000000000
 -3419.349963296   0.000000000000
 -3419.348561418   0.000000000000
 -3419.348551900   0.000000000000
 -3419.318032767   0.000000000000
 -3419.316267094   0.000000000000
 -3419.315724672   0.000000000000
 -3419.314804925   0.000000000000
 -3419.314603278   0.000000000000
 -3419.218631424   0.000000000000
 -3419.217787092   0.000000000000
 -3419.214473679   0.000000000000
 -3419.213340402   0.000000000000
 -3419.213266692   0.000000000000
 -3419.212017862   0.000000000000
 -3419.211430014   0.000000000000
 -3419.206282978   0.000000000000
 -3419.206161831   0.000000000000
 -3419.199103039   0.000000000000
   CI-PROBLEM SOLVED
   DENSITIES MADE
   E(CAS)= -3419.399769720 Eh DE=   -1.580922e-05
   --- Energy gap subspaces: Ext-Act = 0.259   Act-Int = -0.038
   N(occ)=  1.20000 1.20000 1.20000 1.20000 1.20000
   ||g|| =     7.520714e-03 Max(G)=   -1.458449e-03 Rot=592,21
   --- Orbital Update [SuperCI(PT)]
   --- Canonicalize Internal Space
   --- Canonicalize External Space
   --- SX_PT (Skipped TA=0 IT=0): ||X|| =      0.002533024 Max(X)(172,160) =      0.000789107 
   --- SFit(Active Orbitals)

MACRO-ITERATION   9: 
   --- Inactive Energy E0 = -3403.41177268 Eh
CI-ITERATION   0: 
 -3419.479551393   0.000000000000 (    0.00)
 -3419.475073064   0.000000000000
 -3419.474260783   0.000000000000
 -3419.470965681   0.000000000000
 -3419.468504540   0.000000000000
   CI-PROBLEM SOLVED
   DENSITIES MADE
CI-ITERATION   0: 
 -3419.381856124   0.000000000000 (    0.00)
 -3419.381259719   0.000000000000
 -3419.380644742   0.000000000000
 -3419.380217501   0.000000000000
 -3419.379550644   0.000000000000
 -3419.379339807   0.000000000000
 -3419.378267239   0.000000000000
 -3419.376911446   0.000000000000
 -3419.375678307   0.000000000000
 -3419.375662585   0.000000000000
 -3419.375136207   0.000000000000
 -3419.368615225   0.000000000000
 -3419.367946759   0.000000000000
 -3419.367518095   0.000000000000
 -3419.365551631   0.000000000000
 -3419.364153802   0.000000000000
 -3419.363484603   0.000000000000
 -3419.363174225   0.000000000000
 -3419.361762777   0.000000000000
 -3419.361576860   0.000000000000
 -3419.360139979   0.000000000000
 -3419.355095369   0.000000000000
 -3419.353999341   0.000000000000
 -3419.353714275   0.000000000000
 -3419.352284710   0.000000000000
 -3419.351062993   0.000000000000
 -3419.350985450   0.000000000000
 -3419.349969951   0.000000000000
 -3419.348564415   0.000000000000
 -3419.348555403   0.000000000000
 -3419.318015735   0.000000000000
 -3419.316268756   0.000000000000
 -3419.315727512   0.000000000000
 -3419.314802601   0.000000000000
 -3419.314596659   0.000000000000
 -3419.218590941   0.000000000000
 -3419.217752999   0.000000000000
 -3419.214456165   0.000000000000
 -3419.213319685   0.000000000000
 -3419.213246308   0.000000000000
 -3419.211999898   0.000000000000
 -3419.211408756   0.000000000000
 -3419.206281971   0.000000000000
 -3419.206163364   0.000000000000
 -3419.199105767   0.000000000000
   CI-PROBLEM SOLVED
   DENSITIES MADE
   E(CAS)= -3419.399773516 Eh DE=   -3.796019e-06
   --- Energy gap subspaces: Ext-Act = 0.258   Act-Int = -0.037
   N(occ)=  1.20000 1.20000 1.20000 1.20000 1.20000
   ||g|| =     3.625604e-03 Max(G)=   -5.067262e-04 Rot=170,158
   --- Orbital Update [SuperCI(PT)]
   --- Canonicalize Internal Space
   --- Canonicalize External Space
   --- SX_PT (Skipped TA=0 IT=0): ||X|| =      0.001568222 Max(X)(170,158) =     -0.000536347 
   --- SFit(Active Orbitals)

MACRO-ITERATION  10: 
   --- Inactive Energy E0 = -3403.41026039 Eh
CI-ITERATION   0: 
 -3419.479549595   0.000000000000 (    0.00)
 -3419.475067275   0.000000000000
 -3419.474260298   0.000000000000
 -3419.470976904   0.000000000000
 -3419.468530919   0.000000000000
   CI-PROBLEM SOLVED
   DENSITIES MADE
CI-ITERATION   0: 
 -3419.381842184   0.000000000000 (    0.00)
 -3419.381256506   0.000000000000
 -3419.380641129   0.000000000000
 -3419.380216400   0.000000000000
 -3419.379539314   0.000000000000
 -3419.379321465   0.000000000000
 -3419.378257980   0.000000000000
[...]
      dxy     :     1.983158
      f0      :     0.000845  f :     0.004907
      f+1     :     0.000551
      f-1     :     0.000495
      f+2     :     0.000751
      f-2     :     0.000879
      f+3     :     0.000653
      f-3     :     0.000733
 16 Fes       :     6.245483  s :     6.245483
      pz      :     4.207099  p :    12.579954
      px      :     4.186851
      py      :     4.186004
      dz2     :     1.487019  d :     7.248440
      dxz     :     1.475294
      dyz     :     1.476781
      dx2y2   :     1.445848
      dxy     :     1.363498
      f0      :     0.000060  f :     0.000388
      f+1     :     0.000066
      f-1     :     0.000061
      f+2     :     0.000054
      f-2     :     0.000039
      f+3     :     0.000054
      f-3     :     0.000054

SPIN
  0 Aus       :     0.001314  s :     0.001314
      pz      :     0.000949  p :     0.001697
      px      :     0.000249
      py      :     0.000499
      dz2     :     0.000046  d :     0.000402
      dxz     :     0.000065
      dyz     :     0.000108
      dx2y2   :     0.000149
      dxy     :     0.000034
      f0      :     0.000000  f :     0.000002
      f+1     :     0.000000
      f-1     :     0.000000
      f+2     :     0.000000
      f-2     :     0.000000
      f+3     :     0.000001
      f-3     :     0.000000
  1 Aus       :     0.001314  s :     0.001314
      pz      :     0.000992  p :     0.001699
      px      :     0.000483
      py      :     0.000223
      dz2     :     0.000046  d :     0.000401
      dxz     :     0.000108
      dyz     :     0.000066
      dx2y2   :     0.000150
      dxy     :     0.000032
      f0      :     0.000000  f :     0.000002
      f+1     :     0.000000
      f-1     :     0.000000
      f+2     :     0.000000
      f-2     :     0.000000
      f+3     :     0.000000
      f-3     :     0.000001
  2 Aus       :     0.001214  s :     0.001214
      pz      :     0.000651  p :     0.002295
      px      :     0.000826
      py      :     0.000818
      dz2     :     0.003121  d :     0.005761
      dxz     :     0.001120
      dyz     :     0.001041
      dx2y2   :     0.000303
      dxy     :     0.000176
      f0      :     0.000031  f :     0.000082
      f+1     :     0.000022
      f-1     :     0.000020
      f+2     :     0.000004
      f-2     :     0.000005
      f+3     :     0.000000
      f-3     :     0.000000
  3 Aus       :     0.001384  s :     0.001384
      pz      :     0.000464  p :     0.001653
      px      :     0.000672
      py      :     0.000517
      dz2     :     0.000068  d :     0.000504
      dxz     :     0.000047
      dyz     :     0.000136
      dx2y2   :     0.000153
      dxy     :     0.000100
      f0      :     0.000000  f :     0.000002
      f+1     :     0.000000
      f-1     :     0.000000
      f+2     :     0.000000
      f-2     :     0.000000
      f+3     :     0.000001
      f-3     :     0.000000
  4 Aus       :     0.001385  s :     0.001385
      pz      :     0.000511  p :     0.001652
      px      :     0.000496
      py      :     0.000645
      dz2     :     0.000073  d :     0.000512
      dxz     :     0.000130
      dyz     :     0.000050
      dx2y2   :     0.000159
      dxy     :     0.000100
      f0      :     0.000000  f :     0.000002
      f+1     :     0.000000
      f-1     :     0.000000
      f+2     :     0.000000
      f-2     :     0.000000
      f+3     :     0.000000
      f-3     :     0.000000
  5 Aus       :     0.001425  s :     0.001425
      pz      :     0.000475  p :     0.001933
      px      :     0.000721
      py      :     0.000736
      dz2     :     0.001101  d :     0.004018
      dxz     :     0.000950
      dyz     :     0.001079
      dx2y2   :     0.000450
      dxy     :     0.000439
      f0      :     0.000004  f :     0.000035
      f+1     :     0.000007
      f-1     :     0.000008
      f+2     :     0.000004
      f-2     :     0.000009
      f+3     :     0.000001
      f-3     :     0.000001
  6 Aus       :     0.001298  s :     0.001298
      pz      :     0.000612  p :     0.002286
      px      :     0.000431
      py      :     0.001243
      dz2     :     0.000400  d :     0.006245
      dxz     :     0.000366
      dyz     :     0.001461
      dx2y2   :     0.001150
      dxy     :     0.002868
      f0      :     0.000009  f :     0.000088
      f+1     :     0.000003
      f-1     :     0.000009
      f+2     :     0.000007
      f-2     :     0.000016
      f+3     :     0.000031
      f-3     :     0.000013
  7 Aus       :     0.001108  s :     0.001108
      pz      :     0.000755  p :     0.001419
      px      :     0.000298
      py      :     0.000367
      dz2     :     0.000696  d :     0.003942
      dxz     :     0.000511
      dyz     :     0.001947
      dx2y2   :     0.000500
      dxy     :     0.000288
      f0      :     0.000003  f :     0.000059
      f+1     :     0.000002
      f-1     :     0.000023
      f+2     :     0.000022
      f-2     :     0.000004
      f+3     :     0.000001
      f-3     :     0.000004
  8 Aus       :     0.001108  s :     0.001108
      pz      :     0.000727  p :     0.001416
      px      :     0.000387
      py      :     0.000302
      dz2     :     0.000805  d :     0.003892
      dxz     :     0.001913
      dyz     :     0.000489
      dx2y2   :     0.000440
      dxy     :     0.000245
      f0      :     0.000002  f :     0.000058
      f+1     :     0.000026
      f-1     :     0.000002
      f+2     :     0.000020
      f-2     :     0.000003
      f+3     :     0.000003
      f-3     :     0.000001
  9 Aus       :     0.001044  s :     0.001044
      pz      :     0.000463  p :     0.001229
      px      :     0.000596
      py      :     0.000170
      dz2     :     0.000903  d :     0.006000
      dxz     :     0.001136
      dyz     :     0.000151
      dx2y2   :     0.002589
      dxy     :     0.001221
      f0      :     0.000008  f :     0.000103
      f+1     :     0.000021
      f-1     :     0.000001
      f+2     :     0.000015
      f-2     :     0.000003
      f+3     :     0.000040
      f-3     :     0.000014
 10 Aus       :     0.001044  s :     0.001044
      pz      :     0.000892  p :     0.001764
      px      :     0.000435
      py      :     0.000436
      dz2     :     0.002856  d :     0.006190
      dxz     :     0.001639
      dyz     :     0.001515
      dx2y2   :     0.000052
      dxy     :     0.000128
      f0      :     0.000035  f :     0.000111
      f+1     :     0.000033
      f-1     :     0.000030
      f+2     :     0.000005
      f-2     :     0.000006
      f+3     :     0.000000
      f-3     :     0.000000
 11 Aus       :     0.000564  s :     0.000564
      pz      :     0.000770  p :     0.001455
      px      :     0.000348
      py      :     0.000337
      dz2     :     0.000073  d :     0.000385
      dxz     :     0.000085
      dyz     :     0.000084
      dx2y2   :     0.000067
      dxy     :     0.000076
      f0      :     0.000000  f :     0.000002
      f+1     :     0.000000
      f-1     :     0.000000
      f+2     :     0.000001
      f-2     :     0.000000
      f+3     :     0.000000
      f-3     :     0.000000
 12 Aus       :     0.001356  s :     0.001356
      pz      :     0.000808  p :     0.002182
      px      :     0.000587
      py      :     0.000787
      dz2     :     0.000159  d :     0.001341
      dxz     :     0.000221
      dyz     :     0.000419
      dx2y2   :     0.000148
      dxy     :     0.000395
      f0      :     0.000001  f :     0.000010
      f+1     :     0.000002
      f-1     :     0.000001
      f+2     :     0.000000
      f-2     :     0.000005
      f+3     :     0.000001
      f-3     :     0.000001
 13 Aus       :     0.001362  s :     0.001362
      pz      :     0.000754  p :     0.002179
      px      :     0.000803
      py      :     0.000622
      dz2     :     0.000207  d :     0.001334
      dxz     :     0.000421
      dyz     :     0.000216
      dx2y2   :     0.000143
      dxy     :     0.000346
      f0      :     0.000000  f :     0.000010
      f+1     :     0.000002
      f-1     :     0.000002
      f+2     :     0.000000
      f-2     :     0.000004
      f+3     :     0.000001
      f-3     :     0.000001
 14 Aus       :     0.001040  s :     0.001040
      pz      :     0.000471  p :     0.001230
      px      :     0.000177
      py      :     0.000582
      dz2     :     0.000865  d :     0.006018
      dxz     :     0.000181
      dyz     :     0.001271
      dx2y2   :     0.002512
      dxy     :     0.001191
      f0      :     0.000010  f :     0.000103
      f+1     :     0.000001
      f-1     :     0.000019
      f+2     :     0.000018
      f-2     :     0.000004
      f+3     :     0.000014
      f-3     :     0.000039
 15 Aus       :     0.001300  s :     0.001300
      pz      :     0.000622  p :     0.002286
      px      :     0.001250
      py      :     0.000415
      dz2     :     0.000445  d :     0.006228
      dxz     :     0.001332
      dyz     :     0.000281
      dx2y2   :     0.001193
      dxy     :     0.002978
      f0      :     0.000008  f :     0.000087
      f+1     :     0.000010
      f-1     :     0.000004
      f+2     :     0.000006
      f-2     :     0.000014
      f+3     :     0.000014
      f-3     :     0.000033
 16 Fes       :     0.000350  s :     0.000350
      pz      :     0.000270  p :     0.001039
      px      :     0.000387
      py      :     0.000382
      dz2     :     0.574350  d :     2.897042
      dxz     :     0.579290
      dyz     :     0.579112
      dx2y2   :     0.578753
      dxy     :     0.585537
      f0      :     0.000000  f :     0.000002
      f+1     :     0.000000
      f-1     :     0.000000
      f+2     :     0.000000
      f-2     :     0.000000
      f+3     :     0.000001
      f-3     :     0.000001


                      *****************************
                      * MAYER POPULATION ANALYSIS *
                      *****************************

  NA   - Mulliken gross atomic population
  ZA   - Total nuclear charge
  QA   - Mulliken gross atomic charge
  VA   - Mayer's total valence
  BVA  - Mayer's bonded valence
  FA   - Mayer's free valence

  ATOM       NA         ZA         QA         VA         BVA        FA
  0 Au    18.7740    19.0000     0.2260     1.4555     1.4524     0.0031
  1 Au    18.7731    19.0000     0.2269     1.4549     1.4519     0.0031
  2 Au    19.2263    19.0000    -0.2263     1.9109     1.9028     0.0080
  3 Au    18.8018    19.0000     0.1982     1.3740     1.3711     0.0030
  4 Au    18.8040    19.0000     0.1960     1.3750     1.3721     0.0030
  5 Au    19.6320    19.0000    -0.6320     2.2684     2.2621     0.0063
  6 Au    19.2197    19.0000    -0.2197     1.8330     1.8251     0.0079
  7 Au    18.6510    19.0000     0.3490     1.2968     1.2919     0.0049
  8 Au    18.6506    19.0000     0.3494     1.2970     1.2921     0.0049
  9 Au    18.6734    19.0000     0.3266     1.2466     1.2402     0.0064
 10 Au    18.7430    19.0000     0.2570     1.4480     1.4408     0.0072
 11 Au    18.8861    19.0000     0.1139     1.3610     1.3597     0.0013
 12 Au    18.8329    19.0000     0.1671     1.5348     1.5311     0.0037
 13 Au    18.8320    19.0000     0.1680     1.5337     1.5300     0.0037
 14 Au    18.6727    19.0000     0.3273     1.2455     1.2391     0.0064
 15 Au    19.2182    19.0000    -0.2182     1.8333     1.8255     0.0078
 16 Fe    27.6093    26.0000    -1.6093     8.9430     4.3181     4.6250

  Mayer bond orders larger than 0.100000
B(  0-Au,  4-Au) :   0.1664 B(  0-Au,  5-Au) :   0.3138 B(  0-Au, 11-Au) :   0.2445 
B(  0-Au, 13-Au) :   0.2640 B(  0-Au, 15-Au) :   0.2611 B(  1-Au,  3-Au) :   0.1668 
B(  1-Au,  5-Au) :   0.3152 B(  1-Au,  6-Au) :   0.2597 B(  1-Au, 11-Au) :   0.2442 
B(  1-Au, 12-Au) :   0.2645 B(  2-Au,  3-Au) :   0.2583 B(  2-Au,  4-Au) :   0.2581 
B(  2-Au,  6-Au) :   0.1255 B(  2-Au,  7-Au) :   0.2605 B(  2-Au,  8-Au) :   0.2608 
B(  2-Au, 15-Au) :   0.1237 B(  2-Au, 16-Fe) :   0.4535 B(  3-Au,  4-Au) :   0.2313 
B(  3-Au,  6-Au) :   0.2840 B(  3-Au, 11-Au) :   0.2047 B(  4-Au, 11-Au) :   0.2039 
B(  4-Au, 15-Au) :   0.2845 B(  5-Au, 10-Au) :   0.2214 B(  5-Au, 11-Au) :   0.2937 
B(  5-Au, 12-Au) :   0.2914 B(  5-Au, 13-Au) :   0.2919 B(  5-Au, 16-Fe) :   0.3054 
B(  6-Au,  8-Au) :   0.1994 B(  6-Au,  9-Au) :   0.1793 B(  6-Au, 12-Au) :   0.1602 
B(  6-Au, 16-Fe) :   0.4230 B(  7-Au,  8-Au) :   0.1648 B(  7-Au, 14-Au) :   0.1506 
B(  7-Au, 15-Au) :   0.1982 B(  7-Au, 16-Fe) :   0.3226 B(  8-Au,  9-Au) :   0.1515 
B(  8-Au, 16-Fe) :   0.3206 B(  9-Au, 10-Au) :   0.1086 B(  9-Au, 12-Au) :   0.1935 
B(  9-Au, 16-Fe) :   0.3736 B( 10-Au, 12-Au) :   0.2127 B( 10-Au, 13-Au) :   0.2131 
B( 10-Au, 14-Au) :   0.1076 B( 10-Au, 16-Fe) :   0.4216 B( 12-Au, 16-Fe) :   0.2612 
B( 13-Au, 14-Au) :   0.1932 B( 13-Au, 15-Au) :   0.1599 B( 13-Au, 16-Fe) :   0.2599 
B( 14-Au, 15-Au) :   0.1806 B( 14-Au, 16-Fe) :   0.3737 B( 15-Au, 16-Fe) :   0.4233 



-------------------------------------------------------------
 Forming the transition density       ... done in 0.024693 sec
-------------------------------------------------------------



==========================================
CASSCF UV, CD spectra and dipole moments
==========================================
-------------------
ABSORPTION SPECTRUM
-------------------

Center of mass           = ( 13.2459, 14.3891, 14.2492)
Nuclear contribution to the dipole moment =   -25.461224,  -25.916016,    4.613730 au

Calculating the Dipole integrals                  ... done
Transforming integrals                            ... done
Calculating the Linear Momentum integrals         ... done
Transforming integrals                            ... done
Calculating the Angular Momentum integrals        ... done
Transforming integrals                            ... done

------------------------------------------------------------------------------------------
                                ABSORPTION SPECTRUM
------------------------------------------------------------------------------------------
  States           Energy   Wavelength   fosc          T2        TX         TY        TZ  
                   (cm-1)     (nm)                   (D**2)      (D)        (D)       (D) 
------------------------------------------------------------------------------------------
  0( 0)-> 1( 0) 5     985.5   10147.5   0.000001124   0.00242   0.03476  -0.03483  -0.00101
  0( 0)-> 2( 0) 5    1160.8   8614.9   0.000000231   0.00042   0.00984   0.00927  -0.01548
  0( 0)-> 3( 0) 5    1881.5   5315.0   0.000000385   0.00044   0.01463  -0.01486  -0.00054
  0( 0)-> 4( 0) 5    2414.7   4141.3   0.000000478   0.00042   0.00863   0.00790   0.01685
------------------------------------------------------------------------------------------



------------------------------------------------------------------------------
                             CD SPECTRUM
------------------------------------------------------------------------------
      States        Energy   Wavelength   R*T        RX        RY        RZ   
                    (cm-1)      (nm)   (1e40*sgs)   (au)      (au)      (au)  
------------------------------------------------------------------------------
  0( 0)-> 1( 0) 5     985.5   10147.5    -0.16566  -0.06655  -0.01644  -0.84321
  0( 0)-> 2( 0) 5    1160.8   8614.9     0.17214   0.57959  -0.57455  -0.03560
  0( 0)-> 3( 0) 5    1881.5   5315.0    -0.00980   0.02438   0.03533  -0.21259
  0( 0)-> 4( 0) 5    2414.7   4141.3     0.00316   0.02539  -0.02461  -0.00046
------------------------------------------------------------------------------

------------------------------------------------------------------------------
                                 DIPOLE MOMENTS
------------------------------------------------------------------------------
  Root  Block           TX        TY        TZ           |T|
                      (Debye)   (Debye)   (Debye)      (Debye)
------------------------------------------------------------------------------
    0    0           -1.29156  -1.30354   0.00868      1.83505

--------------
CASSCF TIMINGS
--------------

Total time                       ...     2126.0 sec
Sum of individual times          ...     2116.1 sec ( 99.5%)

Calculation of AO operators
   F(Core) operator              ...     1059.4 sec ( 49.8%)
   G(Act) operator               ...      963.0 sec ( 45.3%)
   J(AO) operators               ...        0.0 sec (  0.0%)
Calculation of MO transformed quantities
   J(MO) operators               ...       88.8 sec (  4.2%)
   (pq|rs) integrals             ...        0.0 sec (  0.0%)
   AO->MO one electron integrals ...        0.7 sec (  0.0%)
Configuration interaction steps
   CI-setup phase                ...        0.0 sec (  0.0%)
   CI-solution phase             ...        0.3 sec (  0.0%)
   Generation of densities       ...        0.0 sec (  0.0%)
Orbital improvement steps
   Orbital gradient              ...        0.1 sec (  0.0%)
   O(1) converger                ...        3.7 sec (  0.2%)
Properties                       ...        0.0 sec (  0.0%)
   SOC integral calculation      ...        0.0 sec (  0.0%)
   SSC RMEs (incl. integrals)    ...        0.0 sec (  0.0%)
   SOC RMEs                      ...        0.0 sec (  0.0%)

Maximum memory used throughout the entire CASSCF-calculation: 446.2 MB

-------------------------   --------------------
FINAL SINGLE POINT ENERGY     -3419.399776276729
-------------------------   --------------------


                            ***************************************
                            *     ORCA property calculations      *
                            ***************************************

                                    ---------------------
                                    Active property flags
                                    ---------------------
   (+) Dipole Moment


------------------------------------------------------------------------------
                       ORCA ELECTRIC PROPERTIES CALCULATION
------------------------------------------------------------------------------

Dipole Moment Calculation                       ... on
Quadrupole Moment Calculation                   ... off
Polarizability Calculation                      ... off
GBWName                                         ... casscf.gbw
Electron density                                ... casscf.scfp
The origin for moment calculation is the CENTER OF MASS  = (13.245858, 14.389114 14.249157)

-------------
DIPOLE MOMENT
-------------
                                X             Y             Z
Electronic contribution:     24.95321      25.40340      -4.61519
Nuclear contribution   :    -25.46122     -25.91602       4.61373
                        -----------------------------------------
Total Dipole Moment    :     -0.50802      -0.51261      -0.00146
                        -----------------------------------------
Magnitude (a.u.)       :      0.72170
Magnitude (Debye)      :      1.83442



--------------------
Rotational spectrum 
--------------------
 
Rotational constants in cm-1:     0.000915     0.000814     0.000771 
Rotational constants in MHz :    27.417372    24.395996    23.103738 

 Dipole components along the rotational axes: 
x,y,z [a.u.] :    -0.718715     0.000813    -0.065600 
x,y,z [Debye]:    -1.826827     0.002065    -0.166741 

 

Timings for individual modules:

Sum of individual times         ...     2148.251 sec (=  35.804 min)
GTO integral calculation        ...       13.526 sec (=   0.225 min)   0.6 %
SCF iterations                  ...        5.831 sec (=   0.097 min)   0.3 %
CASSCF iterations               ...     2128.894 sec (=  35.482 min)  99.1 %
                             ****ORCA TERMINATED NORMALLY****
TOTAL RUN TIME: 0 days 0 hours 36 minutes 9 seconds 316 msec
