
                                 *****************
                                 * O   R   C   A *
                                 *****************

                                            #,                                       
                                            ###                                      
                                            ####                                     
                                            #####                                    
                                            ######                                   
                                           ########,                                 
                                     ,,################,,,,,                         
                               ,,#################################,,                 
                          ,,##########################################,,             
                       ,#########################################, ''#####,          
                    ,#############################################,,   '####,        
                  ,##################################################,,,,####,       
                ,###########''''           ''''###############################       
              ,#####''   ,,,,##########,,,,          '''####'''          '####       
            ,##' ,,,,###########################,,,                        '##       
           ' ,,###''''                  '''############,,,                           
         ,,##''                                '''############,,,,        ,,,,,,###''
      ,#''                                            '''#######################'''  
     '                                                          ''''####''''         
             ,#######,   #######,   ,#######,      ##                                
            ,#'     '#,  ##    ##  ,#'     '#,    #''#        ######   ,####,        
            ##       ##  ##   ,#'  ##            #'  '#       #        #'  '#        
            ##       ##  #######   ##           ,######,      #####,   #    #        
            '#,     ,#'  ##    ##  '#,     ,#' ,#      #,         ##   #,  ,#        
             '#######'   ##     ##  '#######'  #'      '#     #####' # '####'        



                  #######################################################
                  #                        -***-                        #
                  #          Department of theory and spectroscopy      #
                  #    Directorship and core code : Frank Neese         #
                  #        Max Planck Institute fuer Kohlenforschung    #
                  #                Kaiser Wilhelm Platz 1               #
                  #                 D-45470 Muelheim/Ruhr               #
                  #                      Germany                        #
                  #                                                     #
                  #                  All rights reserved                #
                  #                        -***-                        #
                  #######################################################


                         Program Version 5.0.3 -  RELEASE  -


 With contributions from (in alphabetic order):
   Daniel Aravena         : Magnetic Suceptibility
   Michael Atanasov       : Ab Initio Ligand Field Theory (pilot matlab implementation)
   Alexander A. Auer      : GIAO ZORA, VPT2 properties, NMR spectrum
   Ute Becker             : Parallelization
   Giovanni Bistoni       : ED, misc. LED, open-shell LED, HFLD
   Martin Brehm           : Molecular dynamics
   Dmytro Bykov           : SCF Hessian
   Vijay G. Chilkuri      : MRCI spin determinant printing, contributions to CSF-ICE
   Dipayan Datta          : RHF DLPNO-CCSD density
   Achintya Kumar Dutta   : EOM-CC, STEOM-CC
   Dmitry Ganyushin       : Spin-Orbit,Spin-Spin,Magnetic field MRCI
   Miquel Garcia          : C-PCM and meta-GGA Hessian, CC/C-PCM, Gaussian charge scheme
   Yang Guo               : DLPNO-NEVPT2, F12-NEVPT2, CIM, IAO-localization
   Andreas Hansen         : Spin unrestricted coupled pair/coupled cluster methods
   Benjamin Helmich-Paris : MC-RPA, TRAH-SCF, COSX integrals
   Lee Huntington         : MR-EOM, pCC
   Robert Izsak           : Overlap fitted RIJCOSX, COSX-SCS-MP3, EOM
   Marcus Kettner         : VPT2
   Christian Kollmar      : KDIIS, OOCD, Brueckner-CCSD(T), CCSD density, CASPT2, CASPT2-K
   Simone Kossmann        : Meta GGA functionals, TD-DFT gradient, OOMP2, MP2 Hessian
   Martin Krupicka        : Initial AUTO-CI
   Lucas Lang             : DCDCAS
   Marvin Lechner         : AUTO-CI (C++ implementation), FIC-MRCC
   Dagmar Lenk            : GEPOL surface, SMD
   Dimitrios Liakos       : Extrapolation schemes; Compound Job, initial MDCI parallelization
   Dimitrios Manganas     : Further ROCIS development; embedding schemes
   Dimitrios Pantazis     : SARC Basis sets
   Anastasios Papadopoulos: AUTO-CI, single reference methods and gradients
   Taras Petrenko         : DFT Hessian,TD-DFT gradient, ASA, ECA, R-Raman, ABS, FL, XAS/XES, NRVS
   Peter Pinski           : DLPNO-MP2, DLPNO-MP2 Gradient
   Christoph Reimann      : Effective Core Potentials
   Marius Retegan         : Local ZFS, SOC
   Christoph Riplinger    : Optimizer, TS searches, QM/MM, DLPNO-CCSD(T), (RO)-DLPNO pert. Triples
   Tobias Risthaus        : Range-separated hybrids, TD-DFT gradient, RPA, STAB
   Michael Roemelt        : Original ROCIS implementation
   Masaaki Saitow         : Open-shell DLPNO-CCSD energy and density
   Barbara Sandhoefer     : DKH picture change effects
   Avijit Sen             : IP-ROCIS
   Kantharuban Sivalingam : CASSCF convergence, NEVPT2, FIC-MRCI
   Bernardo de Souza      : ESD, SOC TD-DFT
   Georgi Stoychev        : AutoAux, RI-MP2 NMR, DLPNO-MP2 response
   Willem Van den Heuvel  : Paramagnetic NMR
   Boris Wezisla          : Elementary symmetry handling
   Frank Wennmohs         : Technical directorship


 We gratefully acknowledge several colleagues who have allowed us to
 interface, adapt or use parts of their codes:
   Stefan Grimme, W. Hujo, H. Kruse, P. Pracht,  : VdW corrections, initial TS optimization,
                  C. Bannwarth, S. Ehlert          DFT functionals, gCP, sTDA/sTD-DF
   Ed Valeev, F. Pavosevic, A. Kumar             : LibInt (2-el integral package), F12 methods
   Garnet Chan, S. Sharma, J. Yang, R. Olivares  : DMRG
   Ulf Ekstrom                                   : XCFun DFT Library
   Mihaly Kallay                                 : mrcc  (arbitrary order and MRCC methods)
   Jiri Pittner, Ondrej Demel                    : Mk-CCSD
   Frank Weinhold                                : gennbo (NPA and NBO analysis)
   Christopher J. Cramer and Donald G. Truhlar   : smd solvation model
   Lars Goerigk                                  : TD-DFT with DH, B97 family of functionals
   V. Asgeirsson, H. Jonsson                     : NEB implementation
   FAccTs GmbH                                   : IRC, NEB, NEB-TS, DLPNO-Multilevel, CI-OPT
                                                   MM, QMMM, 2- and 3-layer-ONIOM, Crystal-QMMM,
                                                   LR-CPCM, SF, NACMEs, symmetry and pop. for TD-DFT,
                                                   nearIR, NL-DFT gradient (VV10), updates on ESD,
                                                   ML-optimized integration grids
   S Lehtola, MJT Oliveira, MAL Marques          : LibXC Library
   Liviu Ungur et al                             : ANISO software


 Your calculation uses the libint2 library for the computation of 2-el integrals
 For citations please refer to: http://libint.valeyev.net

 Your ORCA version has been built with support for libXC version: 5.1.0
 For citations please refer to: https://tddft.org/programs/libxc/

 This ORCA versions uses:
   CBLAS   interface :  Fast vector & matrix operations
   LAPACKE interface :  Fast linear algebra routines
   SCALAPACK package :  Parallel linear algebra routines
   Shared memory     :  Shared parallel matrices
   BLAS/LAPACK       :  OpenBLAS 0.3.15  USE64BITINT DYNAMIC_ARCH NO_AFFINITY Haswell SINGLE_THREADED
        Core in use  :  Haswell
   Copyright (c) 2011-2014, The OpenBLAS Project




***************************************
The coordinates will be read from file: pbe.xyz
***************************************


================================================================================

cite the ECPs for Au [Def2-ECP] as follows:
Ce-Yb(ecp-28): M. Dolg, H. Stoll, H.Preuss, J. Chem. Phys., 1989, 90, 1730-1734.
Y-Cd(ecp-28), Hf-Hg(ecp-46): D. Andrae,U. Haeussermann, M. Dolg, H. Stoll, H. Preuss, Theor. Chim. Acta, 1990, 77, 123-141.
In-Sb(ecp-28), Tl-Bi(ecp-46): B. Metz, H. Stoll, M. Dolg, J. Chem. Phys., 2000, 113, 2563-2569.
Te-Xe(ecp-28), Po-Rn(ecp-46): K. A. Peterson, D. Figgen, E. Goll, H. Stoll, M. Dolg, J. Chem. Phys., 2003, 119, 11113-11123.
Rb(ecp-28), Cs(ecp-46): T. Leininger, A. Nicklass, W. Kuechle, H. Stoll, M. Dolg, A. Bergner, Chem. Phys. Lett., 1996, 255, 274-280.
Sr(ecp-28), Ba(ecp-46): M. Kaupp, P. V. Schleyer, H. Stoll and H. Preuss, J. Chem. Phys., 1991, 94, 1360-1366.
La(ecp-46): M. Dolg, H. Stoll, A. Savin, H. Preuss, Theor. Chim. Acta, 1989, 75, 173-194.
Lu(ecp-28): X. Cao, M. Dolg, J. Chem. Phys., 2001, 115, 7348-7355.

ECP parameters for Au [Def2-ECP] have been obtained from:
TURBOMOLE (7.0.2)

----- Orbital basis set information -----
Your calculation utilizes the basis: def2-TZVP
   F. Weigend and R. Ahlrichs, Phys. Chem. Chem. Phys. 7, 3297 (2005).

----- AuxJ basis set information -----
Your calculation utilizes the auxiliary basis: def2/J
   F. Weigend, Phys. Chem. Chem. Phys. 8, 1057 (2006).

----- AuxC basis set information -----
Your calculation utilizes the auxiliary basis: def2-TZVP/C
  H-La, Hf-Rn : A. Hellweg, C. Hattig, S. Hofener and W. Klopper, Theor. Chem. Acc. 117, 587 (2007).
        Ce-Lu : J. Chmela and M. E. Harding, Mol. Phys. (2018).

================================================================================
                                        WARNINGS
                       Please study these warnings very carefully!
================================================================================


WARNING: your system is open-shell and RHF/RKS was chosen
  ===> : WILL SWITCH to UHF/UKS


WARNING: No MP2 level density has been requested!
         To caclulate MP2 level properties use
         %mp2 Density relaxed end
         or
         %mp2 Density unrelaxed end
         Otherwise for double-hybrid DFT only the energy is correct!

WARNING: The frozen-core approximation is turned on by default for 
         the MP2 part of double-hybrid DFT.

INFO   : the flag for use of the SHARK integral package has been found!



***************************************
The coordinates will be read from file: pbe.xyz
***************************************


================================================================================

cite the ECPs for Au [Def2-ECP] as follows:
Ce-Yb(ecp-28): M. Dolg, H. Stoll, H.Preuss, J. Chem. Phys., 1989, 90, 1730-1734.
Y-Cd(ecp-28), Hf-Hg(ecp-46): D. Andrae,U. Haeussermann, M. Dolg, H. Stoll, H. Preuss, Theor. Chim. Acta, 1990, 77, 123-141.
In-Sb(ecp-28), Tl-Bi(ecp-46): B. Metz, H. Stoll, M. Dolg, J. Chem. Phys., 2000, 113, 2563-2569.
Te-Xe(ecp-28), Po-Rn(ecp-46): K. A. Peterson, D. Figgen, E. Goll, H. Stoll, M. Dolg, J. Chem. Phys., 2003, 119, 11113-11123.
Rb(ecp-28), Cs(ecp-46): T. Leininger, A. Nicklass, W. Kuechle, H. Stoll, M. Dolg, A. Bergner, Chem. Phys. Lett., 1996, 255, 274-280.
Sr(ecp-28), Ba(ecp-46): M. Kaupp, P. V. Schleyer, H. Stoll and H. Preuss, J. Chem. Phys., 1991, 94, 1360-1366.
La(ecp-46): M. Dolg, H. Stoll, A. Savin, H. Preuss, Theor. Chim. Acta, 1989, 75, 173-194.
Lu(ecp-28): X. Cao, M. Dolg, J. Chem. Phys., 2001, 115, 7348-7355.

ECP parameters for Au [Def2-ECP] have been obtained from:
TURBOMOLE (7.0.2)

----- Orbital basis set information -----
Your calculation utilizes the basis: def2-TZVP
   F. Weigend and R. Ahlrichs, Phys. Chem. Chem. Phys. 7, 3297 (2005).

----- AuxJ basis set information -----
Your calculation utilizes the auxiliary basis: def2/J
   F. Weigend, Phys. Chem. Chem. Phys. 8, 1057 (2006).

----- AuxC basis set information -----
Your calculation utilizes the auxiliary basis: def2-TZVP/C
  H-La, Hf-Rn : A. Hellweg, C. Hattig, S. Hofener and W. Klopper, Theor. Chem. Acc. 117, 587 (2007).
        Ce-Lu : J. Chmela and M. E. Harding, Mol. Phys. (2018).

================================================================================
                                        WARNINGS
                       Please study these warnings very carefully!
================================================================================


WARNING: No MP2 level density has been requested!
         To caclulate MP2 level properties use
         %mp2 Density relaxed end
         or
         %mp2 Density unrelaxed end
         Otherwise for double-hybrid DFT only the energy is correct!

WARNING: The frozen-core approximation is turned on by default for 
         the MP2 part of double-hybrid DFT.

INFO   : the flag for use of the SHARK integral package has been found!

================================================================================
                                       INPUT FILE
================================================================================
NAME = b2plyp.inp
|  1> !RI-B2PLYP def2-TZVP def2-TZVP/C
|  2> !RIJCOSX VERYSLOWCONV
|  3> 
|  4> %scf
|  5>   AutoTRAHIter 200
|  6>   maxiter 400
|  7> end
|  8> 
|  9> 
| 10> %pal nprocs 6 end 
| 11> 
| 12> *xyzfile 0 5 pbe.xyz
| 13> 
| 14> $new_job
| 15> 
| 16> !RI-B2PLYP def2-TZVP def2-TZVP/C
| 17> !RIJCOSX VERYSLOWCONV
| 18> 
| 19> %scf
| 20>   AutoTRAHIter 200
| 21>   maxiter 400
| 22> end
| 23> 
| 24> 
| 25> %pal nprocs 6 end 
| 26> 
| 27> *xyzfile 0 3 pbe.xyz
| 28> 
| 29> 
| 30> 
| 31> 
| 32> 
| 33>                          ****END OF INPUT****
================================================================================


                 $$$$$$$$$$$$$$$$$$$$$$$$$$$$$$$$$$$$$$$$$$$$$$ 
                 $ THERE ARE  2 JOBS TO BE PROCESSED THIS RUN $
                 $$$$$$$$$$$$$$$$$$$$$$$$$$$$$$$$$$$$$$$$$$$$$$ 




                 $$$$$$$$$$$$$$$$  JOB NUMBER  1 $$$$$$$$$$$$$$


                       ****************************
                       * Single Point Calculation *
                       ****************************

---------------------------------
CARTESIAN COORDINATES (ANGSTROEM)
---------------------------------
  Au     6.072828   10.225577    6.346267
  Au     5.319850    7.580037    7.271152
  Au     7.491862    5.970346    7.598326
  Au     7.421517    8.985930    8.450828
  Au     9.256769    7.200801    9.500032
  Au    10.036991    9.880585    8.579552
  Au     8.774391   10.454423    6.064896
  Au    11.452148    9.587235    6.120835
  Au    11.763912    7.647248    8.221301
  Au     8.911294    5.790258    5.107977
  Au    11.548039    6.783227    5.515033
  Au     9.672319    8.472304    4.189061
  Au     7.153253    7.925323    5.195241
  Au    10.224452    5.305806    7.595382
  Cr     9.379189    7.860585    6.844275

----------------------------
CARTESIAN COORDINATES (A.U.)
----------------------------
  NO LB      ZA    FRAG     MASS         X           Y           Z
   0 Au   19.0000*   0   196.966   11.475981   19.323540   11.992707
   1 Au   19.0000*   0   196.966   10.053059   14.324193   13.740486
   2 Au   19.0000*   0   196.966   14.157567   11.282319   14.358755
   3 Au   19.0000*   0   196.966   14.024634   16.980948   15.969751
   4 Au   19.0000*   0   196.966   17.492759   13.607542   17.952459
   5 Au   19.0000*   0   196.966   18.967164   18.671600   16.213004
   6 Au   19.0000*   0   196.966   16.581196   19.755997   11.460992
   7 Au   19.0000*   0   196.966   21.641424   18.117249   11.566702
   8 Au   19.0000*   0   196.966   22.230572   14.451204   15.536008
   9 Au   19.0000*   0   196.966   16.839905   10.942002    9.652678
  10 Au   19.0000*   0   196.966   21.822631   12.818441   10.421902
  11 Au   19.0000*   0   196.966   18.278033   16.010334    7.916178
  12 Au   19.0000*   0   196.966   13.517689   14.976691    9.817582
  13 Au   19.0000*   0   196.966   19.321414   10.026520   14.353192
  14 Cr   24.0000    0    52.000   17.724099   14.854353   12.933805
* core charge reduced due to ECP

--------------------------------
INTERNAL COORDINATES (ANGSTROEM)
--------------------------------
 Au     0   0   0     0.000000000000     0.00000000     0.00000000
 Au     1   0   0     2.901942429196     0.00000000     0.00000000
 Au     2   1   0     2.723193387659   111.72871574     0.00000000
 Au     1   2   3     2.790136324128    58.66664307   313.50853543
 Au     4   1   2     2.766887695409   153.29019126    79.13116177
 Au     4   1   2     2.767251276907   110.38405338   151.89829639
 Au     1   2   3     2.725799631050   111.50630893   359.25536856
 Au     7   1   2     2.815231680054   156.17704598     1.13929711
 Au     6   4   1     2.845768096474   108.29893471   240.54073241
 Au     3   2   1     2.872116883129   109.09111015   302.25547188
 Au    10   3   2     2.846771137642   108.17356409   119.91234222
 Au    11  10   3     2.851229185305    62.01811092   257.10060281
 Au    10   3   2     2.767097169431    67.06319932    17.15159394
 Au     3   2   1     2.812236216897   156.14367057     1.26175329
 Cr     5   4   1     2.739224043029    60.43553424    15.91757373

---------------------------
INTERNAL COORDINATES (A.U.)
---------------------------
 Au     0   0   0     0.000000000000     0.00000000     0.00000000
 Au     1   0   0     5.483876447587     0.00000000     0.00000000
 Au     2   1   0     5.146089712381   111.72871574     0.00000000
 Au     1   2   3     5.272593528908    58.66664307   313.50853543
 Au     4   1   2     5.228659987639   153.29019126    79.13116177
 Au     4   1   2     5.229347057098   110.38405338   151.89829639
 Au     1   2   3     5.151014798628   111.50630893   359.25536856
 Au     7   1   2     5.320016878841   156.17704598     1.13929711
 Au     6   4   1     5.377722342986   108.29893471   240.54073241
 Au     3   2   1     5.427514333725   109.09111015   302.25547188
 Au    10   3   2     5.379617816095   108.17356409   119.91234222
 Au    11  10   3     5.388042305269    62.01811092   257.10060281
 Au    10   3   2     5.229055836174    67.06319932    17.15159394
 Au     3   2   1     5.314356273831   156.14367057     1.26175329
 Cr     5   4   1     5.176383260778    60.43553424    15.91757373

---------------------
BASIS SET INFORMATION
---------------------
There are 2 groups of distinct atoms

 Group   1 Type Au  : 8s7p6d1f contracted to 6s4p3d1f pattern {311111/4111/411/1}
 Group   2 Type Cr  : 17s11p7d1f contracted to 6s4p4d1f pattern {842111/6311/4111/1}

Atom   0Au   basis set group =>   1
Atom   1Au   basis set group =>   1
Atom   2Au   basis set group =>   1
Atom   3Au   basis set group =>   1
Atom   4Au   basis set group =>   1
Atom   5Au   basis set group =>   1
Atom   6Au   basis set group =>   1
Atom   7Au   basis set group =>   1
Atom   8Au   basis set group =>   1
Atom   9Au   basis set group =>   1
Atom  10Au   basis set group =>   1
Atom  11Au   basis set group =>   1
Atom  12Au   basis set group =>   1
Atom  13Au   basis set group =>   1
Atom  14Cr   basis set group =>   2
---------------------------------
AUXILIARY/J BASIS SET INFORMATION
---------------------------------
There are 2 groups of distinct atoms

 Group   1 Type Au  : 11s5p5d3f3g contracted to 8s5p5d2f3g pattern {41111111/11111/11111/21/111}
 Group   2 Type Cr  : 19s5p5d3f3g contracted to 8s5p5d2f3g pattern {121111111/11111/11111/21/111}

Atom   0Au   basis set group =>   1
Atom   1Au   basis set group =>   1
Atom   2Au   basis set group =>   1
Atom   3Au   basis set group =>   1
Atom   4Au   basis set group =>   1
Atom   5Au   basis set group =>   1
Atom   6Au   basis set group =>   1
Atom   7Au   basis set group =>   1
Atom   8Au   basis set group =>   1
Atom   9Au   basis set group =>   1
Atom  10Au   basis set group =>   1
Atom  11Au   basis set group =>   1
Atom  12Au   basis set group =>   1
Atom  13Au   basis set group =>   1
Atom  14Cr   basis set group =>   2
---------------------------------
AUXILIARY/C BASIS SET INFORMATION
---------------------------------
There are 2 groups of distinct atoms

 Group   1 Type Au  : 8s8p7d5f3g2h contracted to 8s8p7d5f3g2h pattern {11111111/11111111/1111111/11111/111/11}
 Group   2 Type Cr  : 11s9p8d6f5g2h contracted to 9s8p8d6f5g2h pattern {311111111/21111111/11111111/111111/11111/11}

Atom   0Au   basis set group =>   1
Atom   1Au   basis set group =>   1
Atom   2Au   basis set group =>   1
Atom   3Au   basis set group =>   1
Atom   4Au   basis set group =>   1
Atom   5Au   basis set group =>   1
Atom   6Au   basis set group =>   1
Atom   7Au   basis set group =>   1
Atom   8Au   basis set group =>   1
Atom   9Au   basis set group =>   1
Atom  10Au   basis set group =>   1
Atom  11Au   basis set group =>   1
Atom  12Au   basis set group =>   1
Atom  13Au   basis set group =>   1
Atom  14Cr   basis set group =>   2
-------------------------
ECP PARAMETER INFORMATION
-------------------------

 Group 1, Type Au ECP Def2-ECP (replacing 60 core electrons, lmax=3)

Atom   0Au   ECP group =>   1
Atom   1Au   ECP group =>   1
Atom   2Au   ECP group =>   1
Atom   3Au   ECP group =>   1
Atom   4Au   ECP group =>   1
Atom   5Au   ECP group =>   1
Atom   6Au   ECP group =>   1
Atom   7Au   ECP group =>   1
Atom   8Au   ECP group =>   1
Atom   9Au   ECP group =>   1
Atom  10Au   ECP group =>   1
Atom  11Au   ECP group =>   1
Atom  12Au   ECP group =>   1
Atom  13Au   ECP group =>   1



           ************************************************************
           *        Program running with 6 parallel MPI-processes     *
           *              working on a common directory               *
           ************************************************************
------------------------------------------------------------------------------
                           ORCA GTO INTEGRAL CALCULATION
                           -- RI-GTO INTEGRALS CHOSEN --
------------------------------------------------------------------------------
------------------------------------------------------------------------------
                   ___                                                        
                  /   \      - P O W E R E D   B Y -                         
                 /     \                                                     
                 |  |  |   _    _      __       _____    __    __             
                 |  |  |  | |  | |    /  \     |  _  \  |  |  /  |          
                  \  \/   | |  | |   /    \    | | | |  |  | /  /          
                 / \  \   | |__| |  /  /\  \   | |_| |  |  |/  /          
                |  |  |   |  __  | /  /__\  \  |    /   |      \           
                |  |  |   | |  | | |   __   |  |    \   |  |\   \          
                \     /   | |  | | |  |  |  |  | |\  \  |  | \   \       
                 \___/    |_|  |_| |__|  |__|  |_| \__\ |__|  \__/        
                                                                              
                      - O R C A' S   B I G   F R I E N D -                    
                                      &                                       
                       - I N T E G R A L  F E E D E R -                       
                                                                              
 v1 FN, 2020, v2 2021                                                         
------------------------------------------------------------------------------


Reading SHARK input file b2plyp.SHARKINP.tmp ... ok
----------------------
SHARK INTEGRAL PACKAGE
----------------------

Number of atoms                             ...     15
Number of basis functions                   ...    605
Number of shells                            ...    211
Maximum angular momentum                    ...      3
Integral batch strategy                     ... SHARK/LIBINT Hybrid
RI-J (if used) integral strategy            ... SPLIT-RIJ (Revised 2003 algorithm where possible)
Printlevel                                  ...      1
Contraction scheme used                     ... SEGMENTED contraction
Coulomb Range Separation                    ... NOT USED
Exchange Range Separation                   ... NOT USED
Finite Nucleus Model                        ... NOT USED
Auxiliary Coulomb fitting basis             ... AVAILABLE
   # of basis functions in Aux-J            ...   1335
   # of shells in Aux-J                     ...    345
   Maximum angular momentum in Aux-J        ...      4
Auxiliary J/K fitting basis                 ... NOT available
Auxiliary Correlation fitting basis         ... AVAILABLE
   # of basis functions in Aux-C            ...   2296
   # of shells in Aux-C                     ...    500
   Maximum angular momentum in Aux-C        ...      5
Auxiliary 'external' fitting basis          ... NOT available
Integral threshold                          ...     1.000000e-10
Primitive cut-off                           ...     1.000000e-11
Primitive pair pre-selection threshold      ...     1.000000e-11

Calculating pre-screening integrals         ... done (  0.4 sec) Dimension = 211
Organizing shell pair data                  ... done (  0.7 sec)
Shell pair information
Total number of shell pairs                 ...     22366
Shell pairs after pre-screening             ...     18110
Total number of primitive shell pairs       ...     59609
Primitive shell pairs kept                  ...     35243
          la=0 lb=0:   2835 shell pairs
          la=1 lb=0:   4128 shell pairs
          la=1 lb=1:   1546 shell pairs
          la=2 lb=0:   3608 shell pairs
          la=2 lb=1:   2508 shell pairs
          la=2 lb=2:   1029 shell pairs
          la=3 lb=0:    980 shell pairs
          la=3 lb=1:    734 shell pairs
          la=3 lb=2:    640 shell pairs
          la=3 lb=3:    102 shell pairs

Calculating one electron integrals          ... done (  0.2 sec)
Calculating ECP integrals                   ... done ( 21.4 sec)
Calculating RI/J V-Matrix + Cholesky decomp.... done (  2.3 sec)
Calculating RI/C V-Matrix + Cholesky decomp.... done (  5.1 sec)
Calculating Nuclear repulsion               ... done (  0.0 sec) ENN=   5688.234781916806 Eh

SHARK setup successfully completed in  31.4 seconds

Maximum memory used throughout the entire GTOINT-calculation: 49.7 MB


           ************************************************************
           *        Program running with 6 parallel MPI-processes     *
           *              working on a common directory               *
           ************************************************************
-------------------------------------------------------------------------------
                                 ORCA SCF
-------------------------------------------------------------------------------

------------
SCF SETTINGS
------------
Hamiltonian:
 Density Functional     Method          .... DFT(GTOs)
 Exchange Functional    Exchange        .... B88
   X-Alpha parameter    XAlpha          ....  0.666667
   Becke's b parameter  XBeta           ....  0.004200
 Correlation Functional Correlation     .... LYP
 LDA part of GGA corr.  LDAOpt          .... VWN-3
 Gradients option       PostSCFGGA      .... off
 Hybrid DFT is turned on
   Fraction HF Exchange ScalHFX         ....  0.530000
   Scaling of DF-GGA-X  ScalDFX         ....  0.470000
   Scaling of DF-GGA-C  ScalDFC         ....  0.730000
   Scaling of DF-LDA-C  ScalLDAC        ....  0.730000
   Perturbative correction              ....  0.270000
   Density functional embedding theory  .... OFF
   NL short-range parameter             ....  7.800000
 RI-approximation to the Coulomb term is turned on
   Number of AuxJ basis functions       .... 1335
   RIJ-COSX (HFX calculated with COS-X)).... on


General Settings:
 Integral files         IntName         .... b2plyp
 Hartree-Fock type      HFTyp           .... UHF
 Total Charge           Charge          ....    0
 Multiplicity           Mult            ....    5
 Number of Electrons    NEL             ....  290
 Basis Dimension        Dim             ....  605
 Nuclear Repulsion      ENuc            ....   5688.2347819168 Eh

Convergence Acceleration:
 DIIS                   CNVDIIS         .... on
   Start iteration      DIISMaxIt       ....     0
   Startup error        DIISStart       ....  0.200000
   # of expansion vecs  DIISMaxEq       ....     5
   Bias factor          DIISBfac        ....   1.050
   Max. coefficient     DIISMaxC        ....  10.000
 Trust-Rad. Augm. Hess. CNVTRAH         .... auto
   Auto Start mean grad. ratio tolernc. ....  1.125000
   Auto Start start iteration           ....   200
   Auto Start num. interpolation iter.  ....    10
   Max. Number of Micro iterations      ....    16
   Max. Number of Macro iterations      .... Maxiter - #DIIS iter
   Number of Davidson start vectors     ....     2
   Converg. threshold I  (grad. norm)   ....   5.000e-05
   Converg. threshold II (energy diff.) ....   1.000e-06
   Grad. Scal. Fac. for Micro threshold ....   0.100
   Minimum threshold for Micro iter.    ....   0.010
   NR start threshold (gradient norm)   ....   0.001
   Initial trust radius                 ....   0.400
   Minimum AH scaling param. (alpha)    ....   1.000
   Maximum AH scaling param. (alpha)    .... 1000.000
   Orbital update algorithm             .... Taylor
   White noise on init. David. guess    .... on
   Maximum white noise                  ....   0.010
   Quad. conv. algorithm                .... NR
 SOSCF                  CNVSOSCF        .... off
 Level Shifting         CNVShift        .... on
   Level shift para.    LevelShift      ....    0.2500
   Turn off err/grad.   ShiftErr        ....    0.0000
 Zerner damping         CNVZerner       .... off
 Static damping         CNVDamp         .... on
   Fraction old density DampFac         ....    0.9200
   Max. Damping (<1)    DampMax         ....    0.9800
   Min. Damping (>=0)   DampMin         ....    0.0000
   Turn off err/grad.   DampErr         ....    0.0030
 Fernandez-Rico         CNVRico         .... off

SCF Procedure:
 Maximum # iterations   MaxIter         ....   400
 SCF integral mode      SCFMode         .... Direct
   Integral package                     .... SHARK and LIBINT hybrid scheme
 Reset frequency        DirectResetFreq ....    20
 Integral Threshold     Thresh          ....  1.000e-10 Eh
 Primitive CutOff       TCut            ....  1.000e-11 Eh

Convergence Tolerance:
 Convergence Check Mode ConvCheckMode   .... Total+1el-Energy
 Convergence forced     ConvForced      .... 0
 Energy Change          TolE            ....  1.000e-06 Eh
 1-El. energy change                    ....  1.000e-03 Eh
 DIIS Error             TolErr          ....  1.000e-06


Diagonalization of the overlap matrix:
Smallest eigenvalue                        ... 5.289e-05
Time for diagonalization                   ...    0.128 sec
Threshold for overlap eigenvalues          ... 1.000e-08
Number of eigenvalues below threshold      ... 0
Time for construction of square roots      ...    0.281 sec
Total time needed                          ...    0.580 sec

Time for model grid setup =    1.503 sec

------------------------------
INITIAL GUESS: MODEL POTENTIAL
------------------------------
Loading Hartree-Fock densities                     ... done
  calling /media/Programs/ORCA501/orca b2plyp_atom79.inp > b2plyp_atom79.out in order to generate an atomic fitting density for atom 0 (Au with ECP) on-the-fly... 
    atom 0 (Au), assumed electronic state with S=2: 1s2 2s2 2p6 3s2 3p6 4s2 3d10 4p6 5s2 4d10 5p6 6s1 4f14 5d10           ... done
Calculating cut-offs                               ... done
Initializing the effective Hamiltonian             ... done
Setting up the integral package (SHARK)            ... done
Starting the Coulomb interaction                   ... done (   2.1 sec)
Reading the grid                                   ... done
Mapping shells                                     ... done
Starting the XC term evaluation                    ... done (   1.3 sec)
  promolecular density results
     # of electrons  =   1130.014207063
     EX              =  -5190.792555169
     EC              =    -22.973328379
     EX+EC           =  -5213.765883548
Transforming the Hamiltonian                       ... done (   0.6 sec)
Diagonalizing the Hamiltonian                      ... done (   0.8 sec)
Back transforming the eigenvectors                 ... done (   0.1 sec)
Now organizing SCF variables                       ... done
                      ------------------
                      INITIAL GUESS DONE (   8.1 sec)
                      ------------------
-------------------
DFT GRID GENERATION
-------------------

General Integration Accuracy     IntAcc      ... 4.388
Radial Grid Type                 RadialGrid  ... OptM3 with GC (2021)
Angular Grid (max. ang.)         AngularGrid ... 4 (Lebedev-302)
Angular grid pruning method      GridPruning ... 4 (adaptive)
Weight generation scheme         WeightScheme... Becke
Basis function cutoff            BFCut       ... 1.0000e-10
Integration weight cutoff        WCut        ... 1.0000e-14
Angular grids for H and He will be reduced by one unit
Partially contracted basis set               ... off
Rotationally invariant grid construction     ... off

Total number of grid points                  ...   165515
Total number of batches                      ...     2594
Average number of points per batch           ...       63
Average number of grid points per atom       ...    11034
Time for grid setup =    3.712 sec

--------------------
COSX GRID GENERATION
--------------------

GRIDX 1
-------
General Integration Accuracy     IntAcc      ... 3.816
Radial Grid Type                 RadialGrid  ... OptM3 with GC (2021)
Angular Grid (max. ang.)         AngularGrid ... 1 (Lebedev-50)
Angular grid pruning method      GridPruning ... 4 (adaptive)
Weight generation scheme         WeightScheme... Becke
Basis function cutoff            BFCut       ... 1.0000e-10
Integration weight cutoff        WCut        ... 1.0000e-14
Angular grids for H and He will be reduced by one unit
Partially contracted basis set               ... on
Rotationally invariant grid construction     ... off

Total number of grid points                  ...    17356
Total number of batches                      ...      278
Average number of points per batch           ...       62
Average number of grid points per atom       ...     1157
UseSFitting                                  ... on

GRIDX 2
-------
General Integration Accuracy     IntAcc      ... 4.020
Radial Grid Type                 RadialGrid  ... OptM3 with GC (2021)
Angular Grid (max. ang.)         AngularGrid ... 2 (Lebedev-110)
Angular grid pruning method      GridPruning ... 4 (adaptive)
Weight generation scheme         WeightScheme... Becke
Basis function cutoff            BFCut       ... 1.0000e-10
Integration weight cutoff        WCut        ... 1.0000e-14
Angular grids for H and He will be reduced by one unit
Partially contracted basis set               ... on
Rotationally invariant grid construction     ... off

Total number of grid points                  ...    52535
Total number of batches                      ...      829
Average number of points per batch           ...       63
Average number of grid points per atom       ...     3502
UseSFitting                                  ... on

GRIDX 3
-------
General Integration Accuracy     IntAcc      ... 4.338
Radial Grid Type                 RadialGrid  ... OptM3 with GC (2021)
Angular Grid (max. ang.)         AngularGrid ... 3 (Lebedev-194)
Angular grid pruning method      GridPruning ... 4 (adaptive)
Weight generation scheme         WeightScheme... Becke
Basis function cutoff            BFCut       ... 1.0000e-10
Integration weight cutoff        WCut        ... 1.0000e-14
Angular grids for H and He will be reduced by one unit
Partially contracted basis set               ... on
Rotationally invariant grid construction     ... off

Total number of grid points                  ...    95541
Total number of batches                      ...     1499
Average number of points per batch           ...       63
Average number of grid points per atom       ...     6369
UseSFitting                                  ... on

Time for X-Grid setup             =    6.080 sec

--------------
SCF ITERATIONS
--------------
ITER       Energy         Delta-E        Max-DP      RMS-DP      [F,P]     Damp
               ***  Starting incremental Fock matrix formation  ***
  0  -2937.9945949540   0.000000000000 0.07967176  0.00057381  0.3756668 0.9200
  1  -2938.4877146923  -0.493119738318 0.11801500  0.00055567  0.2596689 0.9200
                               ***Turning on DIIS***
  2  -2938.7822307262  -0.294516033921 0.15651883  0.00052112  0.2317273 0.9200
  3  -2938.9341256489  -0.151894922673 0.11709356  0.00042713  0.2131641 0.9200
  4  -2939.0208677902  -0.086742141305 0.08501176  0.00032090  0.1961368 0.9200
  5  -2939.0959375297  -0.075069739521 0.08881786  0.00030386  0.1804565 0.9200
  6  -2939.1565875311  -0.060650001371 0.10658479  0.00030618  0.1660278 0.9200
  7  -2939.2119176739  -0.055330142798 0.10742009  0.00030184  0.1527931 0.9200
  8  -2939.2809724714  -0.069054797558 0.07599712  0.00027298  0.1406288 0.9200
  9  -2939.3483303054  -0.067357833977 0.08791983  0.00025052  0.1294213 0.9200
 10  -2939.4084369350  -0.060106629575 0.07902781  0.00022582  0.1190777 0.9200
 11  -2939.4620962793  -0.053659344355 0.07813925  0.00021519  0.1095487 0.9200
 12  -2939.5104483488  -0.048352069457 0.08260698  0.00021097  0.1007862 0.9200
 13  -2939.5584828278  -0.048034478973 0.07731276  0.00019959  0.0927378 0.9200
 14  -2939.6048973357  -0.046414507889 0.06876645  0.00017922  0.0853411 0.9200
 15  -2939.6476231940  -0.042725858346 0.05894368  0.00016028  0.0785272 0.9200
 16  -2939.6868902091  -0.039267015047 0.05477561  0.00014922  0.0722507 0.9200
 17  -2939.7231515252  -0.036261316179 0.05573752  0.00014323  0.0664739 0.9200
 18  -2939.7574732922  -0.034321767017 0.05385790  0.00013554  0.0611625 0.9200
 19  -2939.7898879162  -0.032414623986 0.04676974  0.00012279  0.0562795 0.9200
               *** Restarting incremental Fock matrix formation ***
                                   *** Resetting DIIS ***
 20  -2939.8209183197  -0.031030403442 0.03800317  0.00010827  0.0517875 0.9200
 21  -2939.8494406674  -0.028522347770 0.03486652  0.00009835  0.0476643 0.9200
 22  -2939.8759483329  -0.026507665451 0.03363906  0.00009151  0.0438681 0.9200
 23  -2939.9005095208  -0.024561187890 0.03328934  0.00008733  0.0403718 0.9200
 24  -2939.9232764151  -0.022766894284 0.03222639  0.00008324  0.0371529 0.9200
 25  -2939.9444278829  -0.021151467811 0.02969755  0.00007802  0.0341901 0.9200
 26  -2939.9641260426  -0.019698159705 0.02596136  0.00007182  0.0314637 0.9200
 27  -2939.9824399884  -0.018313945814 0.02255913  0.00006625  0.0289534 0.9200
 28  -2939.9994639689  -0.017023980499 0.02035734  0.00006190  0.0266418 0.9200
 29  -2940.0152965463  -0.015832577410 0.01887308  0.00005819  0.0245141 0.9200
 30  -2940.0300351943  -0.014738648034 0.01722891  0.00005456  0.0225564 0.9200
 31  -2940.0437587589  -0.013723564547 0.01510073  0.00005086  0.0207557 0.9200
 32  -2940.0565337408  -0.012774981887 0.01295383  0.00004745  0.0190990 0.9200
 33  -2940.0684242503  -0.011890509530 0.01125756  0.00004455  0.0175745 0.9200
 34  -2940.0794908227  -0.011066572364 0.01000188  0.00004200  0.0161716 0.9200
 35  -2940.0897906412  -0.010299818538 0.00884647  0.00003963  0.0148806 0.9200
 36  -2940.0993762686  -0.009585627417 0.00762250  0.00003739  0.0136927 0.9200
 37  -2940.1082958897  -0.008919621089 0.00644285  0.00003535  0.0126064 0.9200
 38  -2940.1165944320  -0.008298542297 0.00650100  0.00003351  0.0120544 0.9200
 39  -2940.1243134932  -0.007719061163 0.00385692  0.00002997  0.0115285 0.9200
               *** Restarting incremental Fock matrix formation ***
                                   *** Resetting DIIS ***
 40  -2940.1314900448  -0.007176551593 0.00517793  0.00002469  0.0110078 0.9200
 41  -2940.1382650540  -0.006775009274 0.00501136  0.00002198  0.0106441 0.9200
 42  -2940.1445595482  -0.006294494186 0.00422708  0.00002086  0.0102585 0.9200
 43  -2940.1503878373  -0.005828289095 0.00345130  0.00002090  0.0098433 0.9200
 44  -2940.1557775641  -0.005389726733 0.00504243  0.00002136  0.0094332 0.9200
 45  -2940.1607583637  -0.004980799689 0.00560078  0.00002120  0.0090321 0.9200
 46  -2940.1653672098  -0.004608846050 0.00617482  0.00002101  0.0086391 0.9200
 47  -2940.1696339154  -0.004266705640 0.00668166  0.00002077  0.0082342 0.9200
 48  -2940.1735854308  -0.003951515377 0.00705509  0.00002045  0.0078248 0.9200
 49  -2940.1772466348  -0.003661204009 0.00724295  0.00002004  0.0074278 0.9200
 50  -2940.1806401086  -0.003393473731 0.00729947  0.00001957  0.0070494 0.9200
 51  -2940.1837862087  -0.003146100154 0.00733619  0.00001909  0.0066851 0.9200
 52  -2940.1867035408  -0.002917332136 0.00732232  0.00001858  0.0063302 0.9200
 53  -2940.1894092674  -0.002705726537 0.00726199  0.00001803  0.0059853 0.9200
 54  -2940.1919191542  -0.002509886787 0.00713366  0.00001745  0.0056543 0.9200
 55  -2940.1942476173  -0.002328463179 0.00696884  0.00001685  0.0053387 0.9200
 56  -2940.1964078572  -0.002160239805 0.00674693  0.00001622  0.0050372 0.9200
 57  -2940.1984120566  -0.002004199453 0.00650322  0.00001559  0.0047480 0.9200
 58  -2940.2002715055  -0.001859448927 0.00627739  0.00001499  0.0044713 0.9200
 59  -2940.2019965784  -0.001725072827 0.00447738  0.00001381  0.0042076 0.9200
               *** Restarting incremental Fock matrix formation ***
                                   *** Resetting DIIS ***
 60  -2940.2035974537  -0.001600875349 0.00117121  0.00000868  0.0039572 0.9200
 61  -2940.2051076944  -0.001510240681 0.00096186  0.00000715  0.0038203 0.9200
 62  -2940.2065083821  -0.001400687732 0.00088372  0.00000687  0.0036805 0.9200
 63  -2940.2078030652  -0.001294683039 0.00110956  0.00000727  0.0035099 0.9200
 64  -2940.2089980621  -0.001194996932 0.00165944  0.00000789  0.0033193 0.9200
 65  -2940.2100999349  -0.001101872853 0.00173929  0.00000799  0.0031305 0.9200
 66  -2940.2111175545  -0.001017619590 0.02406217  0.00010155  0.0029681 0.0000
 67  -2940.2234581413  -0.012340586741 0.02719204  0.00005375  0.0012006 0.0000
 68  -2940.2235768265  -0.000118685255 0.00600517  0.00001686  0.0018582 0.0000
 69  -2940.2236446825  -0.000067856015 0.00555730  0.00002013  0.0009745 0.0000
               *** Restarting incremental Fock matrix formation ***
                                   *** Resetting DIIS ***
 70  -2940.2226595488   0.000985133706 0.01021497  0.00013257  0.0009084 0.0000
 71  -2940.2228544248  -0.000194875911 0.00409513  0.00004240  0.0009369 0.0000
 72  -2940.2228958243  -0.000041399569 0.00223840  0.00001846  0.0010009 0.0000
 73  -2940.2229250563  -0.000029231968 0.00124513  0.00001032  0.0006593 0.0000
 74  -2940.2229484939  -0.000023437661 0.00160477  0.00000840  0.0006579 0.0000
 75  -2940.2229713025  -0.000022808526 0.00163275  0.00000786  0.0006533 0.0000
 76  -2940.2229936470  -0.000022344489 0.00169321  0.00000750  0.0006996 0.0000
 77  -2940.2230148722  -0.000021225250 0.00130520  0.00000570  0.0007197 0.0000
 78  -2940.2230314998  -0.000016627628 0.00071010  0.00000319  0.0007635 0.0000
 79  -2940.2230410529  -0.000009553011 0.00035573  0.00000113  0.0007678 0.0000
 80  -2940.2230421962  -0.000001143362 0.00034787  0.00000132  0.0007352 0.0000
 81  -2940.2230460545  -0.000003858308 0.00061939  0.00000269  0.0006989 0.0000
 82  -2940.2230535682  -0.000007513676 0.00076448  0.00000333  0.0006994 0.0000
 83  -2940.2230629681  -0.000009399892 0.00102900  0.00000490  0.0007365 0.0000
 84  -2940.2230765443  -0.000013576230 0.00146427  0.00000612  0.0008643 0.0000
 85  -2940.2230945683  -0.000018024024 0.00167843  0.00000685  0.0008288 0.0000
 86  -2940.2231140643  -0.000019495956 0.00126282  0.00000499  0.0008556 0.0000
 87  -2940.2231290430  -0.000014978725 0.00055917  0.00000204  0.0008426 0.0000
 88  -2940.2231277357   0.000001307351 0.00056007  0.00000232  0.0007469 0.0000
 89  -2940.2231345300  -0.000006794359 0.00092615  0.00000224  0.0006913 0.0000
               *** Restarting incremental Fock matrix formation ***
                                   *** Resetting DIIS ***
 90  -2940.2231398903  -0.000005360278 0.01051087  0.00001812  0.0006594 0.0000
 91  -2940.2231578459  -0.000017955565 0.00217742  0.00000596  0.0012884 0.0000
 92  -2940.2231735172  -0.000015671273 0.00358604  0.00000768  0.0009319 0.0000
 93  -2940.2231917506  -0.000018233442 0.00180761  0.00000683  0.0008504 0.0000
 94  -2940.2232110703  -0.000019319743 0.00117371  0.00000450  0.0008646 0.0000
 95  -2940.2232248018  -0.000013731489 0.00047486  0.00000184  0.0008084 0.0000
 96  -2940.2232289544  -0.000004152552 0.00045708  0.00000124  0.0007134 0.0000
 97  -2940.2232278411   0.000001113256 0.00049905  0.00000228  0.0007676 0.0000
 98  -2940.2232344375  -0.000006596393 0.00083103  0.00000357  0.0006951 0.0000
 99  -2940.2232444763  -0.000010038802 0.00141017  0.00000674  0.0007171 0.0000
100  -2940.2232632147  -0.000018738343 0.00184666  0.00000763  0.0009331 0.0000
101  -2940.2232852863  -0.000022071599 0.00226916  0.00000928  0.0008713 0.0000
102  -2940.2233122688  -0.000026982530 0.00187801  0.00000741  0.0009199 0.0000
103  -2940.2233346158  -0.000022347009 0.00201195  0.00000825  0.0008848 0.0000
104  -2940.2233591715  -0.000024555680 0.00161981  0.00000660  0.0009196 0.0000
105  -2940.2233794985  -0.000020327023 0.00070726  0.00000322  0.0008890 0.0000
106  -2940.2233894069  -0.000009908407 0.00122775  0.00000277  0.0008386 0.0000
107  -2940.2233859933   0.000003413614 0.00081635  0.00000385  0.0007059 0.0000
108  -2940.2233973680  -0.000011374680 0.00076130  0.00000295  0.0007130 0.0000
109  -2940.2234060326  -0.000008664580 0.00077968  0.00000342  0.0007062 0.0000
               *** Restarting incremental Fock matrix formation ***
                                   *** Resetting DIIS ***
110  -2940.2234153281  -0.000009295594 0.00987916  0.00001810  0.0007552 0.0000
111  -2940.2234350251  -0.000019696987 0.00185609  0.00000619  0.0012393 0.0000
112  -2940.2234512541  -0.000016228949 0.00366462  0.00000873  0.0009058 0.0000
113  -2940.2234728631  -0.000021609030 0.00432577  0.00001190  0.0008735 0.0000
114  -2940.2235031849  -0.000030321765 0.00217135  0.00000848  0.0009715 0.0000
115  -2940.2235279625  -0.000024777657 0.00496912  0.00001490  0.0008669 0.0000
116  -2940.2235651750  -0.000037212462 0.00363936  0.00000639  0.0010504 0.0000
117  -2940.2235682399  -0.000003064879 0.00365229  0.00000985  0.0006341 0.0000
118  -2940.2235923313  -0.000024091468 0.00682490  0.00001818  0.0007984 0.0000
119  -2940.2236328782  -0.000040546827 0.00223046  0.00000964  0.0010492 0.0000
120  -2940.2236596591  -0.000026780930 0.00909324  0.00002388  0.0008769 0.0000
121  -2940.2237089151  -0.000049255972 0.00817728  0.00001383  0.0011190 0.0000
122  -2940.2237043299   0.000004585138 0.01071657  0.00002306  0.0006238 0.0000
123  -2940.2237459554  -0.000041625512 0.01102704  0.00002397  0.0008826 0.0000
124  -2940.2237858189  -0.000039863476 0.00437150  0.00001478  0.0010495 0.0000
125  -2940.2238180576  -0.000032238679 0.00431857  0.00001721  0.0009104 0.0000
126  -2940.2238515032  -0.000033445588 0.00284615  0.00000744  0.0008727 0.0000
127  -2940.2238664877  -0.000014984515 0.01227301  0.00003039  0.0005953 0.0000
128  -2940.2239003298  -0.000033842055 0.00137833  0.00000878  0.0009984 0.0000
129  -2940.2239208147  -0.000020484903 0.01557967  0.00003232  0.0006484 0.0000
               *** Restarting incremental Fock matrix formation ***
                                   *** Resetting DIIS ***
130  -2940.2239389891  -0.000018174389 0.00383965  0.00001032  0.0007335 0.0000
131  -2940.2239415126  -0.000002523548 0.00140477  0.00000584  0.0008940 0.0000
132  -2940.2239506702  -0.000009157620 0.00056134  0.00000337  0.0003702 0.0000
133  -2940.2239551067  -0.000004436465 0.00135030  0.00000391  0.0002163 0.0000
134  -2940.2239589997  -0.000003892965 0.00097522  0.00000381  0.0002472 0.0000
135  -2940.2239633710  -0.000004371388 0.00045614  0.00000392  0.0002756 0.0000
136  -2940.2239678627  -0.000004491680 0.00047201  0.00000373  0.0002688 0.0000
137  -2940.2239721542  -0.000004291509 0.00066121  0.00000520  0.0002410 0.0000
138  -2940.2239775634  -0.000005409137 0.00055354  0.00000364  0.0002486 0.0000
139  -2940.2239814269  -0.000003863497 0.00093770  0.00000789  0.0001987 0.0000
140  -2940.2239883217  -0.000006894870 0.00062333  0.00000280  0.0003102 0.0000
141  -2940.2239891777  -0.000000855972 0.00391510  0.00000733  0.0001446 0.0000
142  -2940.2239940438  -0.000004866072 0.00182068  0.00000414  0.0001991 0.0000
143  -2940.2239973122  -0.000003268407 0.00053134  0.00000294  0.0001557 0.0000
144  -2940.2240001402  -0.000002828055 0.00057661  0.00000225  0.0001335 0.0000
145  -2940.2240020997  -0.000001959503 0.00044565  0.00000188  0.0001350 0.0000
146  -2940.2240038067  -0.000001706931 0.00027645  0.00000127  0.0001362 0.0000
147  -2940.2240047444  -0.000000937692 0.00022240  0.00000101  0.0001365 0.0000
148  -2940.2240054502  -0.000000705794 0.00022350  0.00000108  0.0001367 0.0000
149  -2940.2240063846  -0.000000934491 0.00256994  0.00000482  0.0001378 0.0000
               *** Restarting incremental Fock matrix formation ***
                                   *** Resetting DIIS ***
150  -2940.2240062845   0.000000100135 0.00793646  0.00001377  0.0001400 0.0000
151  -2940.2240087659  -0.000002481429 0.00153108  0.00000390  0.0001448 0.0000
152  -2940.2240110056  -0.000002239698 0.00055846  0.00000230  0.0001481 0.0000
153  -2940.2240129341  -0.000001928493 0.00024847  0.00000109  0.0001505 0.0000
154  -2940.2240135449  -0.000000610758 0.00025867  0.00000080  0.0001499 0.0000
155  -2940.2240137576  -0.000000212676 0.00058919  0.00000170  0.0001487 0.0000
156  -2940.2240150112  -0.000001253605 0.00048609  0.00000176  0.0001511 0.0000
157  -2940.2240164705  -0.000001459297 0.00092706  0.00000246  0.0001538 0.0000
158  -2940.2240183211  -0.000001850599 0.00093819  0.00000287  0.0001573 0.0000
159  -2940.2240206161  -0.000002295002 0.00047552  0.00000231  0.0001615 0.0000
160  -2940.2240226472  -0.000002031168 0.00029472  0.00000127  0.0001644 0.0000
161  -2940.2240237128  -0.000001065531 0.00041082  0.00000096  0.0001646 0.0000
162  -2940.2240238386  -0.000000125807 0.00056832  0.00000160  0.0001626 0.0000
163  -2940.2240250827  -0.000001244118 0.00058474  0.00000212  0.0001650 0.0000
164  -2940.2240268526  -0.000001769909 0.00042174  0.00000189  0.0001686 0.0000
165  -2940.2240285483  -0.000001695707 0.00028697  0.00000134  0.0001712 0.0000
166  -2940.2240298024  -0.000001254109 0.00034377  0.00000168  0.0001722 0.0000
167  -2940.2240312517  -0.000001449328 0.00082898  0.00000251  0.0001743 0.0000
168  -2940.2240333495  -0.000002097783 0.00038203  0.00000192  0.0001782 0.0000
169  -2940.2240351162  -0.000001766648 0.00127171  0.00000275  0.0001812 0.0000
               *** Restarting incremental Fock matrix formation ***
                                   *** Resetting DIIS ***
170  -2940.2240360352  -0.000000919000 0.00530390  0.00001119  0.0001820 0.0000
171  -2940.2240393665  -0.000003331338 0.00110795  0.00000390  0.0001889 0.0000
172  -2940.2240423467  -0.000002980220 0.00048597  0.00000209  0.0001937 0.0000
173  -2940.2240443247  -0.000001977922 0.00015233  0.00000100  0.0001952 0.0000
174  -2940.2240445836  -0.000000258968 0.00016053  0.00000073  0.0001923 0.0000
175  -2940.2240450130  -0.000000429359 0.00042788  0.00000214  0.0001921 0.0000
176  -2940.2240471086  -0.000002095641 0.00043751  0.00000206  0.0001969 0.0000
177  -2940.2240492778  -0.000002169206 0.00050168  0.00000248  0.0002006 0.0000
178  -2940.2240518131  -0.000002535288 0.00054494  0.00000266  0.0002049 0.0000
179  -2940.2240545687  -0.000002755565 0.00043714  0.00000198  0.0002092 0.0000
180  -2940.2240567441  -0.000002175391 0.00025263  0.00000111  0.0002112 0.0000
181  -2940.2240577146  -0.000000970564 0.00031813  0.00000101  0.0002105 0.0000
182  -2940.2240584724  -0.000000757710 0.00038303  0.00000199  0.0002104 0.0000
183  -2940.2240604176  -0.000001945238 0.00051751  0.00000266  0.0002139 0.0000
184  -2940.2240632057  -0.000002788063 0.00046559  0.00000227  0.0002191 0.0000
185  -2940.2240656856  -0.000002479905 0.00035257  0.00000164  0.0002223 0.0000
186  -2940.2240674459  -0.000001760351 0.00029992  0.00000139  0.0002233 0.0000
187  -2940.2240690651  -0.000001619208 0.00045314  0.00000235  0.0002243 0.0000
188  -2940.2240716801  -0.000002615032 0.00049466  0.00000249  0.0002286 0.0000
189  -2940.2240744836  -0.000002803487 0.00055075  0.00000247  0.0002333 0.0000
               *** Restarting incremental Fock matrix formation ***
                                   *** Resetting DIIS ***
190  -2940.2240768771  -0.000002393499 0.00174226  0.00000668  0.0002367 0.0000
191  -2940.2240815913  -0.000004714203 0.00088976  0.00000383  0.0002454 0.0000
192  -2940.2240859047  -0.000004313361 0.00053525  0.00000227  0.0002506 0.0000
193  -2940.2240885662  -0.000002661485 0.00017144  0.00000111  0.0002516 0.0000
194  -2940.2240889905  -0.000000424340 0.00019355  0.00000088  0.0002483 0.0000
195  -2940.2240899230  -0.000000932516 0.00059263  0.00000290  0.0002482 0.0000
196  -2940.2240932573  -0.000003334272 0.00064036  0.00000289  0.0002546 0.0000
197  -2940.2240968029  -0.000003545564 0.00063415  0.00000281  0.0002601 0.0000
198  -2940.2241003560  -0.000003553086 0.00057825  0.00000254  0.0002645 0.0000
199  -2940.2241035796  -0.000003223674 0.00041666  0.00000181  0.0002675 0.0000

 WARNING: the maximum gradient error descreased on average only by a factor   1.0
          during the last 200 iterations

                      *** Initiating the TRAH-SCF procedure ***


TRAH GRIDX
----------

General Integration Accuracy     IntAcc      ... 3.067
Radial Grid Type                 RadialGrid  ... OptM3 with GC (2021)
Angular Grid (max. ang.)         AngularGrid ... 1 (Lebedev-50)
Angular grid pruning method      GridPruning ... 4 (adaptive)
Weight generation scheme         WeightScheme... Becke
Basis function cutoff            BFCut       ... 1.0000e-10
Integration weight cutoff        WCut        ... 1.0000e-14
Angular grids for H and He will be reduced by one unit
Partially contracted basis set               ... on
Rotationally invariant grid construction     ... off

Total number of grid points                  ...    13022
Total number of batches                      ...      209
Average number of points per batch           ...       62
Average number of grid points per atom       ...      868


TRAH GRID
---------

General Integration Accuracy     IntAcc      ... 3.467
Radial Grid Type                 RadialGrid  ... OptM3 with GC (2021)
Angular Grid (max. ang.)         AngularGrid ... 1 (Lebedev-50)
Angular grid pruning method      GridPruning ... 4 (adaptive)
Weight generation scheme         WeightScheme... Becke
Basis function cutoff            BFCut       ... 1.0000e-10
Integration weight cutoff        WCut        ... 1.0000e-14
Angular grids for H and He will be reduced by one unit
Partially contracted basis set               ... off
Rotationally invariant grid construction     ... off

Total number of grid points                  ...    71402
Total number of batches                      ...     1124
Average number of points per batch           ...       63
Average number of grid points per atom       ...     4760

 --------------------------------------------------------------------------------------------
   Iter.        energy            ||Error||_2        Shift      TRadius  Mac/Mic        Rej.
 --------------------------------------------------------------------------------------------
    0      -2940.224105538098     1.145930e-03                     0.400 (TRAH MAcro)   No
    0     dE    -2.640118e-06     5.279178e-03    -2.6401e-06      0.002 (TRAH MIcro)
    0     dE    -8.313589e-04     8.201412e-02    -2.7071e-03      0.400 (TRAH MIcro)
    0     dE    -1.835238e-03     1.579799e-02    -9.3746e-03      0.393 (TRAH MIcro)
    0     dE    -1.958049e-03     4.546079e-03    -9.7486e-03      0.400 (TRAH MIcro)
    0     dE    -1.989455e-03     3.793525e-03    -9.9339e-03      0.400 (TRAH MIcro)
    0     dE    -2.001037e-03     3.041193e-03    -1.0004e-02      0.400 (TRAH MIcro)
    0     dE    -2.019468e-03     4.136302e-03    -1.0126e-02      0.400 (TRAH MIcro)
    0     dE    -2.036653e-03     3.379507e-03    -1.0259e-02      0.400 (TRAH MIcro)
    0     dE    -2.043350e-03     1.738957e-03    -1.0319e-02      0.400 (TRAH MIcro)
    0     dE    -2.045031e-03     1.197024e-03    -1.0336e-02      0.400 (TRAH MIcro)
    0     dE    -2.046235e-03     1.146977e-03    -1.0349e-02      0.400 (TRAH MIcro)
    0     dE    -2.047594e-03     1.278630e-03    -1.0364e-02      0.400 (TRAH MIcro)
    0     dE    -2.049433e-03     1.560652e-03    -1.0387e-02      0.400 (TRAH MIcro)
    0     dE    -2.052049e-03     1.521426e-03    -1.0422e-02      0.400 (TRAH MIcro)
    1      -2940.225686309534     9.722423e-03                     0.480 (TRAH MAcro)   No
    1     dE    -2.619218e-05     3.230396e-02    -2.6192e-05      0.003 (TRAH MIcro)
    1     dE    -3.054887e-04     4.324521e-02    -3.0362e-04      0.078 (TRAH MIcro)
    1     dE    -6.064209e-04     4.904265e-02    -5.8711e-04      0.181 (TRAH MIcro)
    1     dE    -1.350635e-03     5.175393e-02    -1.1487e-03      0.419 (TRAH MIcro)
    1     dE    -1.758095e-03     5.339559e-02    -2.1114e-03      0.480 (TRAH MIcro)
    1     dE    -1.892677e-03     8.803521e-03    -2.7826e-03      0.478 (TRAH MIcro)
    1     dE    -1.927096e-03     7.720703e-03    -2.8894e-03      0.480 (TRAH MIcro)
    1     dE    -1.945039e-03     4.521959e-03    -2.9736e-03      0.480 (TRAH MIcro)
    1     dE    -1.962681e-03     6.673867e-03    -3.0647e-03      0.480 (TRAH MIcro)
    1     dE    -1.990153e-03     5.538009e-03    -3.2304e-03      0.480 (TRAH MIcro)
    1     dE    -2.018147e-03     5.857199e-03    -3.4290e-03      0.480 (TRAH MIcro)
    1     dE    -2.035604e-03     3.705127e-03    -3.5573e-03      0.480 (TRAH MIcro)
    1     dE    -2.046240e-03     2.807827e-03    -3.6388e-03      0.480 (TRAH MIcro)
    1     dE    -2.052378e-03     2.486847e-03    -3.6849e-03      0.480 (TRAH MIcro)
    2      -2940.226594387770     1.136395e-02                     0.480 (TRAH MAcro)   No
    2     dE    -3.259326e-05     4.592750e-02    -3.2593e-05      0.003 (TRAH MIcro)
    2     dE    -1.935360e-04     2.119795e-02    -1.9335e-04      0.031 (TRAH MIcro)
    2     dE    -2.375233e-04     1.601653e-02    -2.3706e-04      0.044 (TRAH MIcro)
    2     dE    -2.627335e-04     4.737091e-03    -2.6188e-04      0.057 (TRAH MIcro)
    2     dE    -2.837784e-04     1.208015e-02    -2.8232e-04      0.072 (TRAH MIcro)
    2     dE    -2.982359e-04     2.621122e-03    -2.9609e-04      0.085 (TRAH MIcro)
    2     dE    -3.027626e-04     3.536347e-03    -3.0032e-04      0.090 (TRAH MIcro)
    2     dE    -3.068190e-04     1.593473e-03    -3.0404e-04      0.096 (TRAH MIcro)
    2     dE    -3.092661e-04     1.791262e-03    -3.0626e-04      0.099 (TRAH MIcro)
    2     dE    -3.111433e-04     1.254512e-03    -3.0796e-04      0.102 (TRAH MIcro)
    2     dE    -3.131660e-04     1.512484e-03    -3.0978e-04      0.105 (TRAH MIcro)
    2     dE    -3.154892e-04     1.387729e-03    -3.1182e-04      0.108 (TRAH MIcro)
    2     dE    -3.180723e-04     1.527093e-03    -3.1403e-04      0.113 (TRAH MIcro)
    2     dE    -3.205473e-04     1.300072e-03    -3.1609e-04      0.119 (TRAH MIcro)
    3      -2940.226932416809     1.595831e-03                     0.576 (TRAH MAcro)   No
    3     dE    -2.065774e-07     5.410566e-03    -2.0659e-07      0.000 (TRAH MIcro)
    3     dE    -2.195290e-06     2.121643e-03    -2.1953e-06      0.003 (TRAH MIcro)
    3     dE    -4.315978e-06     2.922340e-03    -4.3157e-06      0.008 (TRAH MIcro)
    3     dE    -5.990720e-06     1.159290e-03    -5.9897e-06      0.013 (TRAH MIcro)
    3     dE    -7.830971e-06     2.257734e-03    -7.8279e-06      0.020 (TRAH MIcro)
    3     dE    -9.628538e-06     1.537526e-03    -9.6215e-06      0.027 (TRAH MIcro)
    3     dE    -1.080553e-05     9.263867e-04    -1.0795e-05      0.032 (TRAH MIcro)
    3     dE    -1.306141e-05     1.981044e-03    -1.3040e-05      0.041 (TRAH MIcro)
    3     dE    -1.885243e-05     2.738566e-03    -1.8770e-05      0.066 (TRAH MIcro)
    3     dE    -2.643936e-05     3.178530e-03    -2.6169e-05      0.102 (TRAH MIcro)
    3     dE    -5.152213e-05     6.038265e-03    -4.9197e-05      0.217 (TRAH MIcro)
    3     dE    -1.580953e-04     1.300927e-02    -1.2013e-04      0.576 (TRAH MIcro)
    3     dE    -2.696595e-04     6.578877e-03    -4.6588e-04      0.576 (TRAH MIcro)
    3     dE    -2.944553e-04     4.141247e-03    -5.4258e-04      0.576 (TRAH MIcro)
 ---------------------------------
          TRAH Step control 
 ---------------------------------
  predicted energy change = -0.000294
  actual energy  change   = 0.000750
  energy change ratio     = -2.546556
  old trust radius        = 0.576000
  new trust radius        = 0.403200
  reject step?            =  1
    4      -2940.226932416809     1.136395e-02                     0.403 (TRAH MAcro)  Yes
    5      -2940.226932416809     1.595831e-03                     0.403 (TRAH MAcro)   No
    5     dE    -2.065759e-07     5.410488e-03    -2.0658e-07      0.000 (TRAH MIcro)
    5     dE    -2.195291e-06     2.121776e-03    -2.1953e-06      0.003 (TRAH MIcro)
    5     dE    -4.315993e-06     2.922489e-03    -4.3157e-06      0.008 (TRAH MIcro)
    5     dE    -5.990720e-06     1.158394e-03    -5.9897e-06      0.013 (TRAH MIcro)
    5     dE    -7.830932e-06     2.258303e-03    -7.8278e-06      0.020 (TRAH MIcro)
    5     dE    -9.628382e-06     1.537126e-03    -9.6213e-06      0.027 (TRAH MIcro)
    5     dE    -1.080517e-05     9.259478e-04    -1.0794e-05      0.032 (TRAH MIcro)
    5     dE    -1.306058e-05     1.980329e-03    -1.3039e-05      0.041 (TRAH MIcro)
    5     dE    -1.885018e-05     2.739738e-03    -1.8768e-05      0.066 (TRAH MIcro)
    5     dE    -2.643450e-05     3.177913e-03    -2.6165e-05      0.102 (TRAH MIcro)
    5     dE    -5.150433e-05     6.036709e-03    -4.9181e-05      0.217 (TRAH MIcro)
    5     dE    -1.274845e-04     9.007368e-03    -2.6694e-04      0.403 (TRAH MIcro)
    5     dE    -1.636908e-04     4.143099e-03    -6.5466e-04      0.368 (TRAH MIcro)
    5     dE    -1.880131e-04     2.814063e-03    -6.9554e-04      0.394 (TRAH MIcro)
 ---------------------------------
          TRAH Step control 
 ---------------------------------
  predicted energy change = -0.000188
  actual energy  change   = 0.000054
  energy change ratio     = -0.288722
  old trust radius        = 0.403200
  new trust radius        = 0.282240
  reject step?            =  1
    6      -2940.226932416809     1.136395e-02                     0.282 (TRAH MAcro)  Yes
    7      -2940.226932416805     1.595831e-03                     0.282 (TRAH MAcro)   No
    7     dE    -2.065909e-07     5.410652e-03    -2.0659e-07      0.000 (TRAH MIcro)
    7     dE    -2.195310e-06     2.121735e-03    -2.1953e-06      0.003 (TRAH MIcro)
    7     dE    -4.316031e-06     2.922325e-03    -4.3158e-06      0.008 (TRAH MIcro)
    7     dE    -5.990782e-06     1.157764e-03    -5.9898e-06      0.013 (TRAH MIcro)
    7     dE    -7.831080e-06     2.258504e-03    -7.8280e-06      0.020 (TRAH MIcro)
    7     dE    -9.628696e-06     1.538802e-03    -9.6216e-06      0.027 (TRAH MIcro)
    7     dE    -1.080570e-05     9.262822e-04    -1.0795e-05      0.032 (TRAH MIcro)
    7     dE    -1.306170e-05     1.979636e-03    -1.3040e-05      0.041 (TRAH MIcro)
    7     dE    -1.885345e-05     2.739260e-03    -1.8771e-05      0.066 (TRAH MIcro)
    7     dE    -2.644164e-05     3.179090e-03    -2.6172e-05      0.102 (TRAH MIcro)
    7     dE    -5.153251e-05     6.039343e-03    -4.9206e-05      0.217 (TRAH MIcro)
    7     dE    -9.529070e-05     5.961634e-03    -5.0544e-04      0.272 (TRAH MIcro)
    7     dE    -1.236089e-04     3.141294e-03    -8.1394e-04      0.282 (TRAH MIcro)
    7     dE    -1.281300e-04     1.984002e-03    -8.9497e-04      0.280 (TRAH MIcro)
    8      -2940.226998025984     6.589551e-03                     0.282 (TRAH MAcro)   No
    8     dE    -8.596520e-06     1.659443e-02    -8.5965e-06      0.001 (TRAH MIcro)
    8     dE    -4.714466e-05     6.031668e-03    -4.7136e-05      0.013 (TRAH MIcro)
    8     dE    -5.287727e-05     3.903918e-03    -5.2864e-05      0.016 (TRAH MIcro)
    8     dE    -5.612797e-05     1.549092e-03    -5.6108e-05      0.019 (TRAH MIcro)
    8     dE    -5.828004e-05     2.875508e-03    -5.8253e-05      0.022 (TRAH MIcro)
    8     dE    -6.006777e-05     2.315041e-03    -6.0031e-05      0.025 (TRAH MIcro)
    8     dE    -6.446961e-05     3.334621e-03    -6.4389e-05      0.035 (TRAH MIcro)
    8     dE    -6.976294e-05     5.008281e-03    -6.9588e-05      0.050 (TRAH MIcro)
    8     dE    -7.509555e-05     1.986141e-03    -7.4767e-05      0.066 (TRAH MIcro)
    8     dE    -7.880280e-05     3.455785e-03    -7.8331e-05      0.078 (TRAH MIcro)
    8     dE    -8.309183e-05     3.847423e-03    -8.2413e-05      0.091 (TRAH MIcro)
    8     dE    -8.891910e-05     2.028500e-03    -8.7869e-05      0.109 (TRAH MIcro)
    8     dE    -9.231615e-05     2.811649e-03    -9.0993e-05      0.121 (TRAH MIcro)
    8     dE    -9.519716e-05     1.872665e-03    -9.3598e-05      0.131 (TRAH MIcro)
    9      -2940.227105852764     2.429184e-03                     0.339 (TRAH MAcro)   No
    9     dE    -1.011080e-07     4.267864e-03    -1.0113e-07      0.000 (TRAH MIcro)
    9     dE    -3.263033e-06     1.579801e-03    -3.2630e-06      0.002 (TRAH MIcro)
    9     dE    -6.684106e-06     1.648729e-03    -6.6838e-06      0.007 (TRAH MIcro)
    9     dE    -7.802537e-06     1.046145e-03    -7.8019e-06      0.009 (TRAH MIcro)
    9     dE    -9.351347e-06     1.447296e-03    -9.3496e-06      0.014 (TRAH MIcro)
    9     dE    -1.177471e-05     1.935625e-03    -1.1769e-05      0.022 (TRAH MIcro)
    9     dE    -1.637270e-05     2.207639e-03    -1.6346e-05      0.041 (TRAH MIcro)
    9     dE    -2.323292e-05     2.960179e-03    -2.3120e-05      0.070 (TRAH MIcro)
    9     dE    -3.007510e-05     2.727084e-03    -2.9784e-05      0.099 (TRAH MIcro)
    9     dE    -3.416528e-05     1.638675e-03    -3.3713e-05      0.116 (TRAH MIcro)
    9     dE    -3.759911e-05     2.079351e-03    -3.6977e-05      0.130 (TRAH MIcro)
    9     dE    -4.190348e-05     2.232218e-03    -4.1021e-05      0.147 (TRAH MIcro)
    9     dE    -4.489907e-05     1.563231e-03    -4.3801e-05      0.158 (TRAH MIcro)
    9     dE    -4.940790e-05     2.808412e-03    -4.7925e-05      0.176 (TRAH MIcro)
   10      -2940.227149012929     3.407821e-03                     0.406 (TRAH MAcro)   No
   10     dE    -1.730075e-07     7.263225e-03    -1.7309e-07      0.000 (TRAH MIcro)
   10     dE    -7.921317e-06     2.631573e-03    -7.9212e-06      0.004 (TRAH MIcro)
   10     dE    -1.297594e-05     2.632124e-03    -1.2975e-05      0.009 (TRAH MIcro)
   10     dE    -1.533735e-05     1.414980e-03    -1.5335e-05      0.012 (TRAH MIcro)
   10     dE    -1.744976e-05     1.815502e-03    -1.7445e-05      0.016 (TRAH MIcro)
   10     dE    -2.002178e-05     1.633975e-03    -2.0012e-05      0.022 (TRAH MIcro)
   10     dE    -2.204757e-05     1.378970e-03    -2.2031e-05      0.027 (TRAH MIcro)
   10     dE    -2.502208e-05     1.705638e-03    -2.4991e-05      0.035 (TRAH MIcro)
   10     dE    -2.708310e-05     1.336812e-03    -2.7037e-05      0.041 (TRAH MIcro)
   10     dE    -2.830191e-05     1.069070e-03    -2.8245e-05      0.045 (TRAH MIcro)
   10     dE    -2.959206e-05     1.163871e-03    -2.9522e-05      0.049 (TRAH MIcro)
   10     dE    -3.060884e-05     1.084930e-03    -3.0527e-05      0.052 (TRAH MIcro)
   10     dE    -3.172541e-05     9.699429e-04    -3.1628e-05      0.056 (TRAH MIcro)
   10     dE    -3.263853e-05     1.165849e-03    -3.2524e-05      0.059 (TRAH MIcro)
   11      -2940.227182019803     1.243319e-03                     0.488 (TRAH MAcro)   No
   11     dE    -2.539578e-08     2.856414e-03    -2.5481e-08      0.000 (TRAH MIcro)
   11     dE    -6.920765e-07     6.675853e-04    -6.9208e-07      0.001 (TRAH MIcro)
   11     dE    -1.431435e-06     1.255078e-03    -1.4314e-06      0.003 (TRAH MIcro)
   11     dE    -1.948846e-06     1.028465e-03    -1.9488e-06      0.006 (TRAH MIcro)
   11     dE    -2.659154e-06     1.023094e-03    -2.6589e-06      0.010 (TRAH MIcro)
   11     dE    -3.790720e-06     1.440903e-03    -3.7895e-06      0.018 (TRAH MIcro)
   11     dE    -5.204343e-06     1.344541e-03    -5.2004e-06      0.027 (TRAH MIcro)
   11     dE    -6.821199e-06     1.251986e-03    -6.8108e-06      0.039 (TRAH MIcro)
   11     dE    -8.247415e-06     1.272470e-03    -8.2275e-06      0.049 (TRAH MIcro)
   11     dE    -9.545057e-06     1.091345e-03    -9.5126e-06      0.058 (TRAH MIcro)
   11     dE    -1.064778e-05     9.717529e-04    -1.0601e-05      0.066 (TRAH MIcro)
   11     dE    -1.183521e-05     1.335292e-03    -1.1770e-05      0.075 (TRAH MIcro)
   11     dE    -1.334083e-05     1.242636e-03    -1.3244e-05      0.085 (TRAH MIcro)
   11     dE    -1.539359e-05     1.719712e-03    -1.5240e-05      0.100 (TRAH MIcro)
   12      -2940.227195083948     2.035388e-03                     0.585 (TRAH MAcro)   No
   12     dE    -1.325243e-07     6.662562e-03    -1.3256e-07      0.000 (TRAH MIcro)
   12     dE    -2.785274e-06     1.562844e-03    -2.7853e-06      0.002 (TRAH MIcro)
   12     dE    -4.407181e-06     2.121253e-03    -4.4071e-06      0.005 (TRAH MIcro)
   12     dE    -5.179935e-06     9.671150e-04    -5.1797e-06      0.007 (TRAH MIcro)
   12     dE    -5.793941e-06     1.195103e-03    -5.7935e-06      0.009 (TRAH MIcro)
   12     dE    -6.465874e-06     1.217332e-03    -6.4651e-06      0.011 (TRAH MIcro)
   12     dE    -7.156193e-06     8.755813e-04    -7.1548e-06      0.014 (TRAH MIcro)
   12     dE    -8.032189e-06     9.474362e-04    -8.0296e-06      0.018 (TRAH MIcro)
   12     dE    -8.697585e-06     9.040714e-04    -8.6938e-06      0.021 (TRAH MIcro)
   12     dE    -9.146380e-06     6.248260e-04    -9.1415e-06      0.023 (TRAH MIcro)
   12     dE    -9.555474e-06     7.714662e-04    -9.5495e-06      0.025 (TRAH MIcro)
   12     dE    -9.891577e-06     6.652682e-04    -9.8846e-06      0.027 (TRAH MIcro)
   12     dE    -1.016437e-05     3.839201e-04    -1.0156e-05      0.028 (TRAH MIcro)
   12     dE    -1.037945e-05     6.303225e-04    -1.0370e-05      0.030 (TRAH MIcro)
   13      -2940.227205629934     6.506043e-04                           (NR   MAcro)
   13     dE    -1.832159e-07     3.480518e-04                           (NR   MIcro)
   13     dE    -4.137104e-07     5.513443e-04                           (NR   MIcro)
   13     dE    -6.366884e-07     6.368018e-04                           (NR   MIcro)
   13     dE    -9.075458e-07     5.863580e-04                           (NR   MIcro)
   13     dE    -1.269552e-06     7.444548e-04                           (NR   MIcro)
   13     dE    -1.686311e-06     7.819755e-04                           (NR   MIcro)
   13     dE    -2.173884e-06     6.910159e-04                           (NR   MIcro)
   13     dE    -2.689845e-06     8.273369e-04                           (NR   MIcro)
   13     dE    -3.187999e-06     7.287707e-04                           (NR   MIcro)
   13     dE    -3.593298e-06     5.717602e-04                           (NR   MIcro)
   13     dE    -3.995265e-06     8.497828e-04                           (NR   MIcro)
   13     dE    -4.591756e-06     8.231427e-04                           (NR   MIcro)
   13     dE    -5.393825e-06     1.056373e-03                           (NR   MIcro)
   13     dE    -8.301878e-06     2.275117e-03                           (NR   MIcro)
   13     dE    -1.001089e-05     8.608354e-04                           (NR   MIcro)
   14      -2940.227214334319     1.611740e-03                     0.702 (TRAH MAcro)   No
   14     dE    -1.183909e-07     6.194653e-03    -1.1842e-07      0.000 (TRAH MIcro)
   14     dE    -2.385115e-06     1.753570e-03    -2.3851e-06      0.003 (TRAH MIcro)
   14     dE    -3.468898e-06     1.574567e-03    -3.4688e-06      0.004 (TRAH MIcro)
   14     dE    -3.789255e-06     6.427959e-04    -3.7892e-06      0.005 (TRAH MIcro)
   14     dE    -4.040698e-06     7.491472e-04    -4.0405e-06      0.006 (TRAH MIcro)
   14     dE    -4.205235e-06     5.913518e-04    -4.2050e-06      0.007 (TRAH MIcro)
   14     dE    -4.403798e-06     4.920076e-04    -4.4035e-06      0.008 (TRAH MIcro)
   14     dE    -4.585663e-06     5.955313e-04    -4.5852e-06      0.010 (TRAH MIcro)
   14     dE    -4.735729e-06     4.796437e-04    -4.7351e-06      0.011 (TRAH MIcro)
   14     dE    -4.862096e-06     3.233831e-04    -4.8614e-06      0.012 (TRAH MIcro)
   14     dE    -4.942814e-06     4.123068e-04    -4.9420e-06      0.013 (TRAH MIcro)
   14     dE    -5.013105e-06     2.458393e-04    -5.0121e-06      0.014 (TRAH MIcro)
   14     dE    -5.052179e-06     2.106403e-04    -5.0511e-06      0.014 (TRAH MIcro)
   14     dE    -5.102703e-06     2.949283e-04    -5.1016e-06      0.015 (TRAH MIcro)
   15      -2940.227219477806     2.934745e-04                           (NR   MAcro)
   15     dE    -2.907981e-08     1.417463e-04                           (NR   MIcro)
   15     dE    -5.818524e-08     2.443414e-04                           (NR   MIcro)
   15     dE    -9.739945e-08     3.339533e-04                           (NR   MIcro)
   15     dE    -1.460640e-07     2.477020e-04                           (NR   MIcro)
   15     dE    -2.070387e-07     3.414836e-04                           (NR   MIcro)
   15     dE    -2.872242e-07     4.975874e-04                           (NR   MIcro)
   15     dE    -4.228242e-07     3.660193e-04                           (NR   MIcro)
   15     dE    -5.637837e-07     4.962159e-04                           (NR   MIcro)
   15     dE    -6.752812e-07     4.721643e-04                           (NR   MIcro)
   15     dE    -7.829667e-07     2.955182e-04                           (NR   MIcro)
   15     dE    -9.218944e-07     6.159179e-04                           (NR   MIcro)
   15     dE    -1.181979e-06     6.824330e-04                           (NR   MIcro)
   15     dE    -1.527405e-06     6.488552e-04                           (NR   MIcro)
   15     dE    -1.943808e-06     1.024905e-03                           (NR   MIcro)
   15     dE    -2.389892e-06     8.785081e-04                           (NR   MIcro)
   16      -2940.227222342521     1.097047e-03                     0.843 (TRAH MAcro)   No
   16     dE    -8.929481e-09     1.568193e-03    -1.0052e-08      0.000 (TRAH MIcro)
   16     dE    -4.897290e-07     5.091367e-04    -4.8973e-07      0.001 (TRAH MIcro)
   16     dE    -6.786871e-07     4.496899e-04    -6.7869e-07      0.002 (TRAH MIcro)
   16     dE    -7.643424e-07     3.221718e-04    -7.6434e-07      0.002 (TRAH MIcro)
   16     dE    -8.493818e-07     2.813949e-04    -8.4937e-07      0.003 (TRAH MIcro)
   16     dE    -9.081011e-07     2.722249e-04    -9.0809e-07      0.004 (TRAH MIcro)
   16     dE    -9.667962e-07     2.383578e-04    -9.6678e-07      0.005 (TRAH MIcro)
   16     dE    -1.024436e-06     2.094603e-04    -1.0244e-06      0.005 (TRAH MIcro)
   16     dE    -1.078975e-06     2.218051e-04    -1.0789e-06      0.006 (TRAH MIcro)
   16     dE    -1.125662e-06     2.056685e-04    -1.1256e-06      0.007 (TRAH MIcro)
   16     dE    -1.166153e-06     2.038389e-04    -1.1661e-06      0.007 (TRAH MIcro)
   16     dE    -1.201149e-06     1.699067e-04    -1.2011e-06      0.008 (TRAH MIcro)
   16     dE    -1.223273e-06     1.273692e-04    -1.2232e-06      0.008 (TRAH MIcro)
   16     dE    -1.240902e-06     1.245025e-04    -1.2408e-06      0.008 (TRAH MIcro)
   17      -2940.227223599452     1.252225e-04                           (NR   MAcro)
   17     dE    -9.438545e-09     7.693633e-05                           (NR   MIcro)
   17     dE    -2.436657e-08     1.570667e-04                           (NR   MIcro)
   17     dE    -5.033456e-08     1.864247e-04                           (NR   MIcro)
   17     dE    -8.191551e-08     1.905871e-04                           (NR   MIcro)
   17     dE    -1.166669e-07     2.195290e-04                           (NR   MIcro)
   17     dE    -1.555044e-07     2.218224e-04                           (NR   MIcro)
   17     dE    -2.026346e-07     2.172406e-04                           (NR   MIcro)
   17     dE    -2.523042e-07     2.525158e-04                           (NR   MIcro)
   17     dE    -3.029699e-07     2.503418e-04                           (NR   MIcro)
   17     dE    -3.768675e-07     2.530639e-04                           (NR   MIcro)
   17     dE    -4.431748e-07     3.074103e-04                           (NR   MIcro)
   17     dE    -5.568505e-07     3.399253e-04                           (NR   MIcro)
   17     dE    -6.906440e-07     4.544527e-04                           (NR   MIcro)
   17     dE    -1.078943e-06     7.565322e-04                           (NR   MIcro)
   17     dE    -1.520691e-06     4.323562e-04                           (NR   MIcro)
   18      -2940.227225317602     5.562501e-04                           (NR   MAcro)
   18     dE    -2.897261e-07     5.063355e-04                           (NR   MIcro)
   18     dE    -5.193206e-07     4.103035e-04                           (NR   MIcro)
   18     dE    -6.255925e-07     2.982400e-04                           (NR   MIcro)
   18     dE    -7.366635e-07     2.884838e-04                           (NR   MIcro)
   18     dE    -8.107481e-07     2.629409e-04                           (NR   MIcro)
   18     dE    -8.624263e-07     2.307358e-04                           (NR   MIcro)
   18     dE    -9.167067e-07     1.978780e-04                           (NR   MIcro)
   18     dE    -9.588035e-07     1.890663e-04                           (NR   MIcro)
   18     dE    -9.990902e-07     1.925216e-04                           (NR   MIcro)
   18     dE    -1.046196e-06     2.216500e-04                           (NR   MIcro)
   18     dE    -1.088586e-06     2.237435e-04                           (NR   MIcro)
   18     dE    -1.130992e-06     1.782208e-04                           (NR   MIcro)
   18     dE    -1.165647e-06     1.907583e-04                           (NR   MIcro)
   18     dE    -1.209402e-06     2.007507e-04                           (NR   MIcro)
   18     dE    -1.247393e-06     1.703783e-04                           (NR   MIcro)
   19      -2940.227226662982     1.717401e-04                           (NR   MAcro)
   19     dE    -1.702622e-08     1.027004e-04                           (NR   MIcro)
   19     dE    -4.597988e-08     2.024691e-04                           (NR   MIcro)
[...]
      dxz     :     0.002595
      dyz     :     0.004007
      dx2y2   :    -0.003395
      dxy     :    -0.004827
      f0      :     0.000245  f :     0.000379
      f+1     :     0.000050
      f-1     :     0.000124
      f+2     :    -0.000015
      f-2     :    -0.000006
      f+3     :    -0.000010
      f-3     :    -0.000007
  5 Aus       :    -0.082246  s :    -0.082246
      pz      :    -0.012848  p :    -0.083610
      px      :    -0.048276
      py      :    -0.022485
      dz2     :     0.004390  d :     0.005339
      dxz     :     0.003001
      dyz     :     0.005363
      dx2y2   :    -0.002380
      dxy     :    -0.005035
      f0      :     0.000036  f :     0.000376
      f+1     :     0.000002
      f-1     :     0.000093
      f+2     :     0.000113
      f-2     :     0.000072
      f+3     :     0.000031
      f-3     :     0.000028
  6 Aus       :    -0.027843  s :    -0.027843
      pz      :    -0.053687  p :    -0.055185
      px      :     0.003620
      py      :    -0.005118
      dz2     :    -0.000209  d :    -0.004451
      dxz     :    -0.010627
      dyz     :    -0.000920
      dx2y2   :     0.005971
      dxy     :     0.001334
      f0      :     0.000029  f :     0.000295
      f+1     :     0.000005
      f-1     :     0.000050
      f+2     :     0.000076
      f-2     :    -0.000013
      f+3     :     0.000053
      f-3     :     0.000095
  7 Aus       :    -0.015244  s :    -0.015244
      pz      :    -0.068194  p :    -0.086520
      px      :    -0.000663
      py      :    -0.017663
      dz2     :     0.000561  d :    -0.004914
      dxz     :    -0.005794
      dyz     :    -0.002852
      dx2y2   :     0.002354
      dxy     :     0.000817
      f0      :     0.000027  f :     0.000252
      f+1     :     0.000033
      f-1     :     0.000020
      f+2     :    -0.000035
      f-2     :     0.000064
      f+3     :     0.000062
      f-3     :     0.000081
  8 Aus       :    -0.076763  s :    -0.076763
      pz      :    -0.023691  p :    -0.046467
      px      :     0.001454
      py      :    -0.024229
      dz2     :    -0.002273  d :    -0.004063
      dxz     :     0.002056
      dyz     :    -0.002432
      dx2y2   :    -0.000053
      dxy     :    -0.001360
      f0      :     0.000031  f :     0.000326
      f+1     :     0.000049
      f-1     :    -0.000017
      f+2     :     0.000160
      f-2     :     0.000006
      f+3     :     0.000076
      f-3     :     0.000020
  9 Aus       :    -0.082534  s :    -0.082534
      pz      :    -0.012872  p :    -0.083538
      px      :    -0.048290
      py      :    -0.022376
      dz2     :     0.004394  d :     0.005450
      dxz     :     0.003336
      dyz     :     0.005087
      dx2y2   :    -0.002410
      dxy     :    -0.004956
      f0      :     0.000036  f :     0.000378
      f+1     :    -0.000009
      f-1     :     0.000106
      f+2     :     0.000140
      f-2     :     0.000046
      f+3     :     0.000031
      f-3     :     0.000028
 10 Aus       :    -0.079279  s :    -0.079279
      pz      :    -0.024816  p :    -0.047548
      px      :     0.001624
      py      :    -0.024356
      dz2     :    -0.002197  d :    -0.003034
      dxz     :     0.003011
      dyz     :    -0.003266
      dx2y2   :     0.002637
      dxy     :    -0.003218
      f0      :     0.000036  f :     0.000335
      f+1     :     0.000030
      f-1     :    -0.000002
      f+2     :     0.000049
      f-2     :     0.000115
      f+3     :     0.000020
      f-3     :     0.000087
 11 Aus       :    -0.081839  s :    -0.081839
      pz      :    -0.002920  p :    -0.084757
      px      :    -0.048309
      py      :    -0.033529
      dz2     :     0.006792  d :     0.005214
      dxz     :     0.002529
      dyz     :     0.003936
      dx2y2   :    -0.003063
      dxy     :    -0.004979
      f0      :     0.000242  f :     0.000379
      f+1     :     0.000051
      f-1     :     0.000123
      f+2     :    -0.000010
      f-2     :    -0.000011
      f+3     :    -0.000005
      f-3     :    -0.000012
 12 Aus       :    -0.082411  s :    -0.082411
      pz      :    -0.017157  p :    -0.030802
      px      :     0.008218
      py      :    -0.021862
      dz2     :     0.002857  d :     0.011164
      dxz     :     0.007904
      dyz     :    -0.000081
      dx2y2   :     0.000519
      dxy     :    -0.000035
      f0      :     0.000020  f :     0.000396
      f+1     :     0.000135
      f-1     :    -0.000010
      f+2     :     0.000155
      f-2     :     0.000053
      f+3     :     0.000034
      f-3     :     0.000009
 13 Aus       :    -0.015331  s :    -0.015331
      pz      :    -0.068394  p :    -0.086328
      px      :    -0.008161
      py      :    -0.009773
      dz2     :     0.000316  d :    -0.004916
      dxz     :    -0.006592
      dyz     :    -0.002117
      dx2y2   :     0.002055
      dxy     :     0.001423
      f0      :     0.000028  f :     0.000251
      f+1     :     0.000005
      f-1     :     0.000044
      f+2     :     0.000035
      f-2     :    -0.000000
      f+3     :     0.000071
      f-3     :     0.000069
 14 Crs       :     0.018836  s :     0.018836
      pz      :     0.020206  p :     0.054981
      px      :     0.017558
      py      :     0.017216
      dz2     :     0.622367  d :     3.402455
      dxz     :     0.676007
      dyz     :     0.558530
      dx2y2   :     0.726343
      dxy     :     0.819208
      f0      :     0.000021  f :     0.000103
      f+1     :     0.000008
      f-1     :     0.000030
      f+2     :     0.000019
      f-2     :     0.000015
      f+3     :     0.000005
      f-3     :     0.000006


                      *****************************
                      * MAYER POPULATION ANALYSIS *
                      *****************************

  NA   - Mulliken gross atomic population
  ZA   - Total nuclear charge
  QA   - Mulliken gross atomic charge
  VA   - Mayer's total valence
  BVA  - Mayer's bonded valence
  FA   - Mayer's free valence

  ATOM       NA         ZA         QA         VA         BVA        FA
  0 Au    18.7189    19.0000     0.2811     1.2760     1.2630     0.0130
  1 Au    18.7196    19.0000     0.2804     1.2766     1.2634     0.0132
  2 Au    18.6361    19.0000     0.3639     1.7115     1.7087     0.0028
  3 Au    18.8342    19.0000     0.1658     1.8285     1.8035     0.0250
  4 Au    18.3887    19.0000     0.6113     1.3675     1.3575     0.0101
  5 Au    18.3891    19.0000     0.6109     1.3660     1.3559     0.0101
  6 Au    18.6355    19.0000     0.3645     1.7096     1.7068     0.0028
  7 Au    18.4050    19.0000     0.5950     1.4042     1.4018     0.0024
  8 Au    18.4505    19.0000     0.5495     1.3547     1.3420     0.0127
  9 Au    18.3899    19.0000     0.6101     1.3669     1.3569     0.0101
 10 Au    18.4531    19.0000     0.5469     1.3511     1.3376     0.0134
 11 Au    18.3881    19.0000     0.6119     1.3665     1.3564     0.0101
 12 Au    18.8341    19.0000     0.1659     1.8344     1.8111     0.0234
 13 Au    18.4047    19.0000     0.5953     1.4025     1.4001     0.0024
 14 Cr    30.3524    24.0000    -6.3524    10.7980     6.5507     4.2473

  Mayer bond orders larger than 0.100000
B(  0-Au,  1-Au) :   0.1063 B(  0-Au,  3-Au) :   0.2292 B(  0-Au,  6-Au) :   0.2229 
B(  0-Au, 12-Au) :   0.2255 B(  0-Au, 14-Cr) :   0.4930 B(  1-Au,  2-Au) :   0.2233 
B(  1-Au,  3-Au) :   0.2252 B(  1-Au, 12-Au) :   0.2279 B(  1-Au, 14-Cr) :   0.4944 
B(  2-Au,  4-Au) :   0.1407 B(  2-Au,  9-Au) :   0.1408 B(  2-Au, 13-Au) :   0.1928 
B(  2-Au, 14-Cr) :   0.5586 B(  3-Au,  4-Au) :   0.1706 B(  3-Au,  5-Au) :   0.1697 
B(  3-Au, 10-Au) :   0.1019 B(  3-Au, 14-Cr) :   0.4789 B(  4-Au,  8-Au) :   0.1305 
B(  4-Au, 11-Au) :   0.1012 B(  4-Au, 13-Au) :   0.1374 B(  4-Au, 14-Cr) :   0.4652 
B(  5-Au,  6-Au) :   0.1406 B(  5-Au,  7-Au) :   0.1375 B(  5-Au,  8-Au) :   0.1317 
B(  5-Au,  9-Au) :   0.1009 B(  5-Au, 14-Cr) :   0.4625 B(  6-Au,  7-Au) :   0.1919 
B(  6-Au, 11-Au) :   0.1407 B(  6-Au, 14-Cr) :   0.5572 B(  7-Au,  8-Au) :   0.1395 
B(  7-Au, 10-Au) :   0.1414 B(  7-Au, 11-Au) :   0.1382 B(  7-Au, 14-Cr) :   0.4238 
B(  8-Au, 10-Au) :   0.1513 B(  8-Au, 12-Au) :   0.1014 B(  8-Au, 13-Au) :   0.1413 
B(  8-Au, 14-Cr) :   0.3921 B(  9-Au, 10-Au) :   0.1312 B(  9-Au, 12-Au) :   0.1709 
B(  9-Au, 13-Au) :   0.1368 B(  9-Au, 14-Cr) :   0.4622 B( 10-Au, 11-Au) :   0.1297 
B( 10-Au, 13-Au) :   0.1393 B( 10-Au, 14-Cr) :   0.3883 B( 11-Au, 12-Au) :   0.1706 
B( 11-Au, 14-Cr) :   0.4645 B( 12-Au, 14-Cr) :   0.4867 B( 13-Au, 14-Cr) :   0.4230 


-------
TIMINGS
-------

Total SCF time: 0 days 0 hours 21 min 39 sec 

Total time                  ....    1299.852 sec
Sum of individual times     ....    1275.427 sec  ( 98.1%)

Fock matrix formation       ....    1016.214 sec  ( 78.2%)
  Split-RI-J                ....      92.227 sec  (  9.1% of F)
  Chain of spheres X        ....     754.918 sec  ( 74.3% of F)
  XC integration            ....     107.988 sec  ( 10.6% of F)
    Basis function eval.    ....      12.886 sec  ( 11.9% of XC)
    Density eval.           ....      43.422 sec  ( 40.2% of XC)
    XC-Functional eval.     ....       1.871 sec  (  1.7% of XC)
    XC-Potential eval.      ....      30.941 sec  ( 28.7% of XC)
Diagonalization             ....     104.059 sec  (  8.0%)
Density matrix formation    ....       4.053 sec  (  0.3%)
Population analysis         ....       2.287 sec  (  0.2%)
Initial guess               ....       0.742 sec  (  0.1%)
Orbital Transformation      ....       0.000 sec  (  0.0%)
Orbital Orthonormalization  ....       0.486 sec  (  0.0%)
DIIS solution               ....     136.333 sec  ( 10.5%)
Grid generation             ....      11.740 sec  (  0.9%)

Maximum memory used throughout the entire SCF-calculation: 148.6 MB


           ************************************************************
           *        Program running with 6 parallel MPI-processes     *
           *              working on a common directory               *
           ************************************************************

------------------------------------------------------------------------------
                                ORCA  MP2 
------------------------------------------------------------------------------

Freezing NCore=10 chemical core electrons

   <<< Use J-auxbasis for calculation of Separable RI-J derivative contributions (Dim=1335) >>> 


-------------
RI-MP2 ENERGY
-------------
Dimension of the basis                    ...  605
Memory devoted to MP2                     ...  256 MB   
Data format for buffers                   ... DOUBLE
Compression type for matrix containers    ... UNCOMPRESSED
Overall scaling of the MP2 energy         ...   2.700e-01
Calculating two index integrals           ... done (    0.160 sec)
Cholesky decomposition of V**-1           ... done (   25.389 sec)

-----------------
RI-TRANSFORMATION (AUX index driven)
-----------------

Dimension of the orbital-basis         ... 605
Dimension of the aux-basis             ... 2296
Transformation of internal/external MOs...    5- 145 to  146- 604
Number Format for Storage              ... Double (8 Byte)
Integral mode                          ... Direct

First Phase: integral generation and transformation of MO indices
  Aux angular momentum 0               ... done (    0.422 sec)
  Aux angular momentum 1               ... done (    0.955 sec)
  Aux angular momentum 2               ... done (    1.669 sec)
  Aux angular momentum 3               ... done (    1.772 sec)
  Aux angular momentum 4               ... done (    1.343 sec)
  Aux angular momentum 5               ... done (    1.327 sec)
Closing buffer VIA ( 1.11 GB; CompressionRatio= 1.00)
  Phase 1 completed in     7.912 sec
Second Phase: sorting and transformation of aux index

IA-Transformation
Memory available                       ... 164 MB 
Max. # MO pairs treated in a batch     ... 19    
# of internal orbitals                 ... 141
# batches for internal orbitals        ... 2
Closing buffer IAV ( 1.11 GB; CompressionRatio= 1.00)
(ia|v) transformation done in     6.992 sec

  Phase 2 completed in     7.362 sec
RI-Integral transformation completed in    15.370 sec

-----------------
RI-TRANSFORMATION (AUX index driven)
-----------------

Dimension of the orbital-basis         ... 605
Dimension of the aux-basis             ... 2296
Transformation of internal/external MOs...    5- 143 to  144- 604
Number Format for Storage              ... Double (8 Byte)
Integral mode                          ... Direct

First Phase: integral generation and transformation of MO indices
  Aux angular momentum 0               ... done (    0.458 sec)
  Aux angular momentum 1               ... done (    1.016 sec)
  Aux angular momentum 2               ... done (    1.762 sec)
  Aux angular momentum 3               ... done (    1.830 sec)
  Aux angular momentum 4               ... done (    1.345 sec)
  Aux angular momentum 5               ... done (    1.076 sec)
Closing buffer VIA ( 1.10 GB; CompressionRatio= 1.00)
  Phase 1 completed in     7.860 sec
Second Phase: sorting and transformation of aux index

IA-Transformation
Memory available                       ... 164 MB 
Max. # MO pairs treated in a batch     ... 19    
# of internal orbitals                 ... 139
# batches for internal orbitals        ... 2
Closing buffer IAV ( 1.10 GB; CompressionRatio= 1.00)
(ia|v) transformation done in     6.756 sec

  Phase 2 completed in     7.140 sec
RI-Integral transformation completed in    15.072 sec
Opening buffers                              ... done

Starting loop over batches of integrals:

Operator 0  - window                       ... (  5-145)x(146-604)
Operator 0  - Memory available             ...   256 MB
Operator 0  - Memory needed per MO         ...   8.0 MB
Operator 0  - Number of orbitals per batch ... 22
Operator 0  - Number of batches            ... 2

OPERATOR  0   PASS   0:  MOs     5 ...   26 +   27 ...   48 +   49 ...   70 +   71 ...   92
                            +   93 ...  114 +  115 ...  136
  Reading integrals       ... ok
  Internal MO   7
  Internal MO  10
  Internal MO  13
  Internal MO  16
  Internal MO  19
  Internal MO  22
  Internal MO  25
OPERATOR  0   PASS   1:  MOs   137 ...  138 +  139 ...  140 +  141 ...  142 +  143 ...  143
                            +  144 ...  144 +  145 ...  145
  Reading integrals       ... ok
  Internal MO 145

Operator 1  - window                       ... (  5-143)x(144-604)
Operator 1  - Memory available             ...   256 MB
Operator 1  - Memory needed per MO         ...   8.1 MB
Operator 1  - Number of orbitals per batch ... 22
Operator 1  - Number of batches            ... 2

OPERATOR  1   PASS   0:  MOs     5 ...   26 +   27 ...   48 +   49 ...   70 +   71 ...   92
                            +   93 ...  114 +  115 ...  136
  Reading integrals       ... ok
  Internal MO   7
  Internal MO  10
  Internal MO  13
  Internal MO  16
  Internal MO  19
  Internal MO  22
  Internal MO  25
OPERATOR  1   PASS   1:  MOs   137 ...  138 +  139 ...  139 +  140 ...  140 +  141 ...  141
                            +  142 ...  142 +  143 ...  143
  Reading integrals       ... ok
Time spent in pair loops =   653.448 sec
Deleting buffer (Ka|jb)[aa] ...done
Deleting buffer (Ka|jb)[ba] ...done
Deleting buffer (Ka|jb)[ab] ...done
Deleting buffer (Ka|jb)[bb] ...done

Correlation energy components}
 E2 and T2 for alpha/alpha pairs :     -0.436231235 Eh      0.000000000
 E2 and T2 for beta/beta   pairs :     -0.419556182 Eh      0.000000000
 E2 and T2 for alpha/beta  pairs :     -1.426632870 Eh      0.000000000


-----------------------------------------------
 RI-MP2 CORRELATION ENERGY:     -2.282420287 Eh
-----------------------------------------------


-------
TIMINGS
-------

Total time                :  722.282 sec
Integral trafo            :   30.463 sec (  4.2%)
I/O of integrals          :    0.369 sec (  0.1%)
K(i,j) Operators          :  353.772 sec ( 49.0%)
T(i,j) pair energies      :    8.137 sec (  1.1%)
V-calculation             :    0.160 sec (  0.0%)
V**(-1/2)                 :   25.389 sec (  3.5%)
Gamma(ia|P)               :    0.000 sec (  0.0%)
Gamma-Trafo               :    0.000 sec (  0.0%)
D(virtual)                :    0.000 sec (  0.0%)
D(internal)               :    0.000 sec (  0.0%)
W(virtual)                :    0.000 sec (  0.0%)
W(internal)               :    0.000 sec (  0.0%)
L(virtual)                :    0.000 sec (  0.0%)
L(internal)               :    0.000 sec (  0.0%)
G(D)                      :    0.000 sec (  0.0%)
G(Z)                      :    0.000 sec (  0.0%)
Z-Vector Solution         :    0.000 sec (  0.0%)
3-Index Derivative        :    0.000 sec (  0.0%)
2-Index Derivative        :    0.000 sec (  0.0%)
Separable Gradient (RIJ)  :    0.000 sec (  0.0%)
Separable Gradient (COSX) :    0.000 sec (  0.0%)


---------------------------------------
MP2 TOTAL ENERGY:    -2942.524245063 Eh
---------------------------------------

Maximum memory used throughout the entire MP2-calculation: 300.3 MB

-------------------------   --------------------
FINAL SINGLE POINT ENERGY     -2942.524245062717
-------------------------   --------------------


                            ***************************************
                            *     ORCA property calculations      *
                            ***************************************


  WARNING: The energy has been calculated at the MP2 level but the densities
           used in the property calculations are still SCF densities
           MP2 response densities have not been calculated 
           use %mp2 Density relaxed end
           or  %mp2 Density unrelaxed end

                                    ---------------------
                                    Active property flags
                                    ---------------------
   (+) Dipole Moment


------------------------------------------------------------------------------
                       ORCA ELECTRIC PROPERTIES CALCULATION
------------------------------------------------------------------------------

Dipole Moment Calculation                       ... on
Quadrupole Moment Calculation                   ... off
Polarizability Calculation                      ... off
GBWName                                         ... b2plyp_job2.gbw
Electron density                                ... b2plyp_job2.scfp
The origin for moment calculation is the CENTER OF MASS  = (16.901514, 15.087642 12.925331)

-------------
DIPOLE MOMENT
-------------
                                X             Y             Z
Electronic contribution:    -15.67599       4.44839      -0.16328
Nuclear contribution   :     15.61589      -4.42875       0.16087
                        -----------------------------------------
Total Dipole Moment    :     -0.06010       0.01964      -0.00240
                        -----------------------------------------
Magnitude (a.u.)       :      0.06328
Magnitude (Debye)      :      0.16084



--------------------
Rotational spectrum 
--------------------
 
Rotational constants in cm-1:     0.001273     0.000991     0.000941 
Rotational constants in MHz :    38.154789    29.702152    28.218002 

 Dipole components along the rotational axes: 
x,y,z [a.u.] :    -0.063204     0.002918    -0.000958 
x,y,z [Debye]:    -0.160653     0.007417    -0.002434 

 

Timings for individual modules:

Sum of individual times         ...     2058.375 sec (=  34.306 min)
GTO integral calculation        ...       33.611 sec (=   0.560 min)   1.6 %
SCF iterations                  ...     1300.935 sec (=  21.682 min)  63.2 %
MP2 module                      ...      723.829 sec (=  12.064 min)  35.2 %



                             ****ORCA TERMINATED NORMALLY****
TOTAL RUN TIME: 0 days 7 hours 34 minutes 47 seconds 849 msec
