
                                 *****************
                                 * O   R   C   A *
                                 *****************

                                            #,                                       
                                            ###                                      
                                            ####                                     
                                            #####                                    
                                            ######                                   
                                           ########,                                 
                                     ,,################,,,,,                         
                               ,,#################################,,                 
                          ,,##########################################,,             
                       ,#########################################, ''#####,          
                    ,#############################################,,   '####,        
                  ,##################################################,,,,####,       
                ,###########''''           ''''###############################       
              ,#####''   ,,,,##########,,,,          '''####'''          '####       
            ,##' ,,,,###########################,,,                        '##       
           ' ,,###''''                  '''############,,,                           
         ,,##''                                '''############,,,,        ,,,,,,###''
      ,#''                                            '''#######################'''  
     '                                                          ''''####''''         
             ,#######,   #######,   ,#######,      ##                                
            ,#'     '#,  ##    ##  ,#'     '#,    #''#        ######   ,####,        
            ##       ##  ##   ,#'  ##            #'  '#       #        #'  '#        
            ##       ##  #######   ##           ,######,      #####,   #    #        
            '#,     ,#'  ##    ##  '#,     ,#' ,#      #,         ##   #,  ,#        
             '#######'   ##     ##  '#######'  #'      '#     #####' # '####'        



                  #######################################################
                  #                        -***-                        #
                  #          Department of theory and spectroscopy      #
                  #    Directorship and core code : Frank Neese         #
                  #        Max Planck Institute fuer Kohlenforschung    #
                  #                Kaiser Wilhelm Platz 1               #
                  #                 D-45470 Muelheim/Ruhr               #
                  #                      Germany                        #
                  #                                                     #
                  #                  All rights reserved                #
                  #                        -***-                        #
                  #######################################################


                         Program Version 5.0.3 -  RELEASE  -


 With contributions from (in alphabetic order):
   Daniel Aravena         : Magnetic Suceptibility
   Michael Atanasov       : Ab Initio Ligand Field Theory (pilot matlab implementation)
   Alexander A. Auer      : GIAO ZORA, VPT2 properties, NMR spectrum
   Ute Becker             : Parallelization
   Giovanni Bistoni       : ED, misc. LED, open-shell LED, HFLD
   Martin Brehm           : Molecular dynamics
   Dmytro Bykov           : SCF Hessian
   Vijay G. Chilkuri      : MRCI spin determinant printing, contributions to CSF-ICE
   Dipayan Datta          : RHF DLPNO-CCSD density
   Achintya Kumar Dutta   : EOM-CC, STEOM-CC
   Dmitry Ganyushin       : Spin-Orbit,Spin-Spin,Magnetic field MRCI
   Miquel Garcia          : C-PCM and meta-GGA Hessian, CC/C-PCM, Gaussian charge scheme
   Yang Guo               : DLPNO-NEVPT2, F12-NEVPT2, CIM, IAO-localization
   Andreas Hansen         : Spin unrestricted coupled pair/coupled cluster methods
   Benjamin Helmich-Paris : MC-RPA, TRAH-SCF, COSX integrals
   Lee Huntington         : MR-EOM, pCC
   Robert Izsak           : Overlap fitted RIJCOSX, COSX-SCS-MP3, EOM
   Marcus Kettner         : VPT2
   Christian Kollmar      : KDIIS, OOCD, Brueckner-CCSD(T), CCSD density, CASPT2, CASPT2-K
   Simone Kossmann        : Meta GGA functionals, TD-DFT gradient, OOMP2, MP2 Hessian
   Martin Krupicka        : Initial AUTO-CI
   Lucas Lang             : DCDCAS
   Marvin Lechner         : AUTO-CI (C++ implementation), FIC-MRCC
   Dagmar Lenk            : GEPOL surface, SMD
   Dimitrios Liakos       : Extrapolation schemes; Compound Job, initial MDCI parallelization
   Dimitrios Manganas     : Further ROCIS development; embedding schemes
   Dimitrios Pantazis     : SARC Basis sets
   Anastasios Papadopoulos: AUTO-CI, single reference methods and gradients
   Taras Petrenko         : DFT Hessian,TD-DFT gradient, ASA, ECA, R-Raman, ABS, FL, XAS/XES, NRVS
   Peter Pinski           : DLPNO-MP2, DLPNO-MP2 Gradient
   Christoph Reimann      : Effective Core Potentials
   Marius Retegan         : Local ZFS, SOC
   Christoph Riplinger    : Optimizer, TS searches, QM/MM, DLPNO-CCSD(T), (RO)-DLPNO pert. Triples
   Tobias Risthaus        : Range-separated hybrids, TD-DFT gradient, RPA, STAB
   Michael Roemelt        : Original ROCIS implementation
   Masaaki Saitow         : Open-shell DLPNO-CCSD energy and density
   Barbara Sandhoefer     : DKH picture change effects
   Avijit Sen             : IP-ROCIS
   Kantharuban Sivalingam : CASSCF convergence, NEVPT2, FIC-MRCI
   Bernardo de Souza      : ESD, SOC TD-DFT
   Georgi Stoychev        : AutoAux, RI-MP2 NMR, DLPNO-MP2 response
   Willem Van den Heuvel  : Paramagnetic NMR
   Boris Wezisla          : Elementary symmetry handling
   Frank Wennmohs         : Technical directorship


 We gratefully acknowledge several colleagues who have allowed us to
 interface, adapt or use parts of their codes:
   Stefan Grimme, W. Hujo, H. Kruse, P. Pracht,  : VdW corrections, initial TS optimization,
                  C. Bannwarth, S. Ehlert          DFT functionals, gCP, sTDA/sTD-DF
   Ed Valeev, F. Pavosevic, A. Kumar             : LibInt (2-el integral package), F12 methods
   Garnet Chan, S. Sharma, J. Yang, R. Olivares  : DMRG
   Ulf Ekstrom                                   : XCFun DFT Library
   Mihaly Kallay                                 : mrcc  (arbitrary order and MRCC methods)
   Jiri Pittner, Ondrej Demel                    : Mk-CCSD
   Frank Weinhold                                : gennbo (NPA and NBO analysis)
   Christopher J. Cramer and Donald G. Truhlar   : smd solvation model
   Lars Goerigk                                  : TD-DFT with DH, B97 family of functionals
   V. Asgeirsson, H. Jonsson                     : NEB implementation
   FAccTs GmbH                                   : IRC, NEB, NEB-TS, DLPNO-Multilevel, CI-OPT
                                                   MM, QMMM, 2- and 3-layer-ONIOM, Crystal-QMMM,
                                                   LR-CPCM, SF, NACMEs, symmetry and pop. for TD-DFT,
                                                   nearIR, NL-DFT gradient (VV10), updates on ESD,
                                                   ML-optimized integration grids
   S Lehtola, MJT Oliveira, MAL Marques          : LibXC Library
   Liviu Ungur et al                             : ANISO software


 Your calculation uses the libint2 library for the computation of 2-el integrals
 For citations please refer to: http://libint.valeyev.net

 Your ORCA version has been built with support for libXC version: 5.1.0
 For citations please refer to: https://tddft.org/programs/libxc/

 This ORCA versions uses:
   CBLAS   interface :  Fast vector & matrix operations
   LAPACKE interface :  Fast linear algebra routines
   SCALAPACK package :  Parallel linear algebra routines
   Shared memory     :  Shared parallel matrices
   BLAS/LAPACK       :  OpenBLAS 0.3.15  USE64BITINT DYNAMIC_ARCH NO_AFFINITY Haswell SINGLE_THREADED
        Core in use  :  Haswell
   Copyright (c) 2011-2014, The OpenBLAS Project




***************************************
The coordinates will be read from file: pbe.xyz
***************************************


================================================================================

cite the ECPs for Au [Def2-ECP] as follows:
Ce-Yb(ecp-28): M. Dolg, H. Stoll, H.Preuss, J. Chem. Phys., 1989, 90, 1730-1734.
Y-Cd(ecp-28), Hf-Hg(ecp-46): D. Andrae,U. Haeussermann, M. Dolg, H. Stoll, H. Preuss, Theor. Chim. Acta, 1990, 77, 123-141.
In-Sb(ecp-28), Tl-Bi(ecp-46): B. Metz, H. Stoll, M. Dolg, J. Chem. Phys., 2000, 113, 2563-2569.
Te-Xe(ecp-28), Po-Rn(ecp-46): K. A. Peterson, D. Figgen, E. Goll, H. Stoll, M. Dolg, J. Chem. Phys., 2003, 119, 11113-11123.
Rb(ecp-28), Cs(ecp-46): T. Leininger, A. Nicklass, W. Kuechle, H. Stoll, M. Dolg, A. Bergner, Chem. Phys. Lett., 1996, 255, 274-280.
Sr(ecp-28), Ba(ecp-46): M. Kaupp, P. V. Schleyer, H. Stoll and H. Preuss, J. Chem. Phys., 1991, 94, 1360-1366.
La(ecp-46): M. Dolg, H. Stoll, A. Savin, H. Preuss, Theor. Chim. Acta, 1989, 75, 173-194.
Lu(ecp-28): X. Cao, M. Dolg, J. Chem. Phys., 2001, 115, 7348-7355.

ECP parameters for Au [Def2-ECP] have been obtained from:
TURBOMOLE (7.0.2)

----- Orbital basis set information -----
Your calculation utilizes the basis: def2-TZVP
   F. Weigend and R. Ahlrichs, Phys. Chem. Chem. Phys. 7, 3297 (2005).

----- AuxJ basis set information -----
Your calculation utilizes the auxiliary basis: def2/J
   F. Weigend, Phys. Chem. Chem. Phys. 8, 1057 (2006).

================================================================================
                                        WARNINGS
                       Please study these warnings very carefully!
================================================================================


WARNING: your system is open-shell and RHF/RKS was chosen
  ===> : WILL SWITCH to UHF/UKS


INFO   : the flag for use of the SHARK integral package has been found!



***************************************
The coordinates will be read from file: pbe.xyz
***************************************


================================================================================

cite the ECPs for Au [Def2-ECP] as follows:
Ce-Yb(ecp-28): M. Dolg, H. Stoll, H.Preuss, J. Chem. Phys., 1989, 90, 1730-1734.
Y-Cd(ecp-28), Hf-Hg(ecp-46): D. Andrae,U. Haeussermann, M. Dolg, H. Stoll, H. Preuss, Theor. Chim. Acta, 1990, 77, 123-141.
In-Sb(ecp-28), Tl-Bi(ecp-46): B. Metz, H. Stoll, M. Dolg, J. Chem. Phys., 2000, 113, 2563-2569.
Te-Xe(ecp-28), Po-Rn(ecp-46): K. A. Peterson, D. Figgen, E. Goll, H. Stoll, M. Dolg, J. Chem. Phys., 2003, 119, 11113-11123.
Rb(ecp-28), Cs(ecp-46): T. Leininger, A. Nicklass, W. Kuechle, H. Stoll, M. Dolg, A. Bergner, Chem. Phys. Lett., 1996, 255, 274-280.
Sr(ecp-28), Ba(ecp-46): M. Kaupp, P. V. Schleyer, H. Stoll and H. Preuss, J. Chem. Phys., 1991, 94, 1360-1366.
La(ecp-46): M. Dolg, H. Stoll, A. Savin, H. Preuss, Theor. Chim. Acta, 1989, 75, 173-194.
Lu(ecp-28): X. Cao, M. Dolg, J. Chem. Phys., 2001, 115, 7348-7355.

ECP parameters for Au [Def2-ECP] have been obtained from:
TURBOMOLE (7.0.2)

----- Orbital basis set information -----
Your calculation utilizes the basis: def2-TZVP
   F. Weigend and R. Ahlrichs, Phys. Chem. Chem. Phys. 7, 3297 (2005).

----- AuxJ basis set information -----
Your calculation utilizes the auxiliary basis: def2/J
   F. Weigend, Phys. Chem. Chem. Phys. 8, 1057 (2006).

================================================================================
                                        WARNINGS
                       Please study these warnings very carefully!
================================================================================


INFO   : the flag for use of the SHARK integral package has been found!

================================================================================
                                       INPUT FILE
================================================================================
NAME = pbeSP.inp
|  1> !PBE def2-TZVP VERYSLOWCONV
|  2> 
|  3> %scf
|  4>   AutoTRAHIter 200
|  5>   maxiter 400
|  6> end
|  7> 
|  8> 
|  9> %pal nprocs 6 end 
| 10> 
| 11> *xyzfile 0 5 pbe.xyz
| 12> 
| 13> $new_job
| 14> 
| 15> !PBE def2-TZVP VERYSLOWCONV
| 16> 
| 17> %scf
| 18>   AutoTRAHIter 200
| 19>   maxiter 400
| 20> end
| 21>  
| 22> 
| 23> %pal nprocs 6 end 
| 24> 
| 25> *xyzfile 0 3 pbe.xyz
| 26> 
| 27> 
| 28> 
| 29> 
| 30> 
| 31>                          ****END OF INPUT****
================================================================================


                 $$$$$$$$$$$$$$$$$$$$$$$$$$$$$$$$$$$$$$$$$$$$$$ 
                 $ THERE ARE  2 JOBS TO BE PROCESSED THIS RUN $
                 $$$$$$$$$$$$$$$$$$$$$$$$$$$$$$$$$$$$$$$$$$$$$$ 




                 $$$$$$$$$$$$$$$$  JOB NUMBER  1 $$$$$$$$$$$$$$


                       ****************************
                       * Single Point Calculation *
                       ****************************

---------------------------------
CARTESIAN COORDINATES (ANGSTROEM)
---------------------------------
  Au     6.072828   10.225577    6.346267
  Au     5.319850    7.580037    7.271152
  Au     7.491862    5.970346    7.598326
  Au     7.421517    8.985930    8.450828
  Au     9.256769    7.200801    9.500032
  Au    10.036991    9.880585    8.579552
  Au     8.774391   10.454423    6.064896
  Au    11.452148    9.587235    6.120835
  Au    11.763912    7.647248    8.221301
  Au     8.911294    5.790258    5.107977
  Au    11.548039    6.783227    5.515033
  Au     9.672319    8.472304    4.189061
  Au     7.153253    7.925323    5.195241
  Au    10.224452    5.305806    7.595382
  Cr     9.379189    7.860585    6.844275

----------------------------
CARTESIAN COORDINATES (A.U.)
----------------------------
  NO LB      ZA    FRAG     MASS         X           Y           Z
   0 Au   19.0000*   0   196.966   11.475981   19.323540   11.992707
   1 Au   19.0000*   0   196.966   10.053059   14.324193   13.740486
   2 Au   19.0000*   0   196.966   14.157567   11.282319   14.358755
   3 Au   19.0000*   0   196.966   14.024634   16.980948   15.969751
   4 Au   19.0000*   0   196.966   17.492759   13.607542   17.952459
   5 Au   19.0000*   0   196.966   18.967164   18.671600   16.213004
   6 Au   19.0000*   0   196.966   16.581196   19.755997   11.460992
   7 Au   19.0000*   0   196.966   21.641424   18.117249   11.566702
   8 Au   19.0000*   0   196.966   22.230572   14.451204   15.536008
   9 Au   19.0000*   0   196.966   16.839905   10.942002    9.652678
  10 Au   19.0000*   0   196.966   21.822631   12.818441   10.421902
  11 Au   19.0000*   0   196.966   18.278033   16.010334    7.916178
  12 Au   19.0000*   0   196.966   13.517689   14.976691    9.817582
  13 Au   19.0000*   0   196.966   19.321414   10.026520   14.353192
  14 Cr   24.0000    0    52.000   17.724099   14.854353   12.933805
* core charge reduced due to ECP

--------------------------------
INTERNAL COORDINATES (ANGSTROEM)
--------------------------------
 Au     0   0   0     0.000000000000     0.00000000     0.00000000
 Au     1   0   0     2.901942429196     0.00000000     0.00000000
 Au     2   1   0     2.723193387659   111.72871574     0.00000000
 Au     1   2   3     2.790136324128    58.66664307   313.50853543
 Au     4   1   2     2.766887695409   153.29019126    79.13116177
 Au     4   1   2     2.767251276907   110.38405338   151.89829639
 Au     1   2   3     2.725799631050   111.50630893   359.25536856
 Au     7   1   2     2.815231680054   156.17704598     1.13929711
 Au     6   4   1     2.845768096474   108.29893471   240.54073241
 Au     3   2   1     2.872116883129   109.09111015   302.25547188
 Au    10   3   2     2.846771137642   108.17356409   119.91234222
 Au    11  10   3     2.851229185305    62.01811092   257.10060281
 Au    10   3   2     2.767097169431    67.06319932    17.15159394
 Au     3   2   1     2.812236216897   156.14367057     1.26175329
 Cr     5   4   1     2.739224043029    60.43553424    15.91757373

---------------------------
INTERNAL COORDINATES (A.U.)
---------------------------
 Au     0   0   0     0.000000000000     0.00000000     0.00000000
 Au     1   0   0     5.483876447587     0.00000000     0.00000000
 Au     2   1   0     5.146089712381   111.72871574     0.00000000
 Au     1   2   3     5.272593528908    58.66664307   313.50853543
 Au     4   1   2     5.228659987639   153.29019126    79.13116177
 Au     4   1   2     5.229347057098   110.38405338   151.89829639
 Au     1   2   3     5.151014798628   111.50630893   359.25536856
 Au     7   1   2     5.320016878841   156.17704598     1.13929711
 Au     6   4   1     5.377722342986   108.29893471   240.54073241
 Au     3   2   1     5.427514333725   109.09111015   302.25547188
 Au    10   3   2     5.379617816095   108.17356409   119.91234222
 Au    11  10   3     5.388042305269    62.01811092   257.10060281
 Au    10   3   2     5.229055836174    67.06319932    17.15159394
 Au     3   2   1     5.314356273831   156.14367057     1.26175329
 Cr     5   4   1     5.176383260778    60.43553424    15.91757373

---------------------
BASIS SET INFORMATION
---------------------
There are 2 groups of distinct atoms

 Group   1 Type Au  : 8s7p6d1f contracted to 6s4p3d1f pattern {311111/4111/411/1}
 Group   2 Type Cr  : 17s11p7d1f contracted to 6s4p4d1f pattern {842111/6311/4111/1}

Atom   0Au   basis set group =>   1
Atom   1Au   basis set group =>   1
Atom   2Au   basis set group =>   1
Atom   3Au   basis set group =>   1
Atom   4Au   basis set group =>   1
Atom   5Au   basis set group =>   1
Atom   6Au   basis set group =>   1
Atom   7Au   basis set group =>   1
Atom   8Au   basis set group =>   1
Atom   9Au   basis set group =>   1
Atom  10Au   basis set group =>   1
Atom  11Au   basis set group =>   1
Atom  12Au   basis set group =>   1
Atom  13Au   basis set group =>   1
Atom  14Cr   basis set group =>   2
---------------------------------
AUXILIARY/J BASIS SET INFORMATION
---------------------------------
There are 2 groups of distinct atoms

 Group   1 Type Au  : 11s5p5d3f3g contracted to 8s5p5d2f3g pattern {41111111/11111/11111/21/111}
 Group   2 Type Cr  : 19s5p5d3f3g contracted to 8s5p5d2f3g pattern {121111111/11111/11111/21/111}

Atom   0Au   basis set group =>   1
Atom   1Au   basis set group =>   1
Atom   2Au   basis set group =>   1
Atom   3Au   basis set group =>   1
Atom   4Au   basis set group =>   1
Atom   5Au   basis set group =>   1
Atom   6Au   basis set group =>   1
Atom   7Au   basis set group =>   1
Atom   8Au   basis set group =>   1
Atom   9Au   basis set group =>   1
Atom  10Au   basis set group =>   1
Atom  11Au   basis set group =>   1
Atom  12Au   basis set group =>   1
Atom  13Au   basis set group =>   1
Atom  14Cr   basis set group =>   2
-------------------------
ECP PARAMETER INFORMATION
-------------------------

 Group 1, Type Au ECP Def2-ECP (replacing 60 core electrons, lmax=3)

Atom   0Au   ECP group =>   1
Atom   1Au   ECP group =>   1
Atom   2Au   ECP group =>   1
Atom   3Au   ECP group =>   1
Atom   4Au   ECP group =>   1
Atom   5Au   ECP group =>   1
Atom   6Au   ECP group =>   1
Atom   7Au   ECP group =>   1
Atom   8Au   ECP group =>   1
Atom   9Au   ECP group =>   1
Atom  10Au   ECP group =>   1
Atom  11Au   ECP group =>   1
Atom  12Au   ECP group =>   1
Atom  13Au   ECP group =>   1



           ************************************************************
           *        Program running with 6 parallel MPI-processes     *
           *              working on a common directory               *
           ************************************************************
------------------------------------------------------------------------------
                           ORCA GTO INTEGRAL CALCULATION
                           -- RI-GTO INTEGRALS CHOSEN --
------------------------------------------------------------------------------
------------------------------------------------------------------------------
                   ___                                                        
                  /   \      - P O W E R E D   B Y -                         
                 /     \                                                     
                 |  |  |   _    _      __       _____    __    __             
                 |  |  |  | |  | |    /  \     |  _  \  |  |  /  |          
                  \  \/   | |  | |   /    \    | | | |  |  | /  /          
                 / \  \   | |__| |  /  /\  \   | |_| |  |  |/  /          
                |  |  |   |  __  | /  /__\  \  |    /   |      \           
                |  |  |   | |  | | |   __   |  |    \   |  |\   \          
                \     /   | |  | | |  |  |  |  | |\  \  |  | \   \       
                 \___/    |_|  |_| |__|  |__|  |_| \__\ |__|  \__/        
                                                                              
                      - O R C A' S   B I G   F R I E N D -                    
                                      &                                       
                       - I N T E G R A L  F E E D E R -                       
                                                                              
 v1 FN, 2020, v2 2021                                                         
------------------------------------------------------------------------------


Reading SHARK input file pbeSP.SHARKINP.tmp ... ok
----------------------
SHARK INTEGRAL PACKAGE
----------------------

Number of atoms                             ...     15
Number of basis functions                   ...    605
Number of shells                            ...    211
Maximum angular momentum                    ...      3
Integral batch strategy                     ... SHARK/LIBINT Hybrid
RI-J (if used) integral strategy            ... SPLIT-RIJ (Revised 2003 algorithm where possible)
Printlevel                                  ...      1
Contraction scheme used                     ... SEGMENTED contraction
Coulomb Range Separation                    ... NOT USED
Exchange Range Separation                   ... NOT USED
Finite Nucleus Model                        ... NOT USED
Auxiliary Coulomb fitting basis             ... AVAILABLE
   # of basis functions in Aux-J            ...   1335
   # of shells in Aux-J                     ...    345
   Maximum angular momentum in Aux-J        ...      4
Auxiliary J/K fitting basis                 ... NOT available
Auxiliary Correlation fitting basis         ... NOT available
Auxiliary 'external' fitting basis          ... NOT available
Integral threshold                          ...     1.000000e-10
Primitive cut-off                           ...     1.000000e-11
Primitive pair pre-selection threshold      ...     1.000000e-11

Calculating pre-screening integrals         ... done (  0.3 sec) Dimension = 211
Organizing shell pair data                  ... done (  0.8 sec)
Shell pair information
Total number of shell pairs                 ...     22366
Shell pairs after pre-screening             ...     18110
Total number of primitive shell pairs       ...     59609
Primitive shell pairs kept                  ...     35243
          la=0 lb=0:   2835 shell pairs
          la=1 lb=0:   4128 shell pairs
          la=1 lb=1:   1546 shell pairs
          la=2 lb=0:   3608 shell pairs
          la=2 lb=1:   2508 shell pairs
          la=2 lb=2:   1029 shell pairs
          la=3 lb=0:    980 shell pairs
          la=3 lb=1:    734 shell pairs
          la=3 lb=2:    640 shell pairs
          la=3 lb=3:    102 shell pairs

Calculating one electron integrals          ... done (  0.2 sec)
Calculating ECP integrals                   ... done ( 20.8 sec)
Calculating RI/J V-Matrix + Cholesky decomp.... done (  2.2 sec)
Calculating Nuclear repulsion               ... done (  0.0 sec) ENN=   5688.234781916806 Eh

SHARK setup successfully completed in  25.5 seconds

Maximum memory used throughout the entire GTOINT-calculation: 34.9 MB


           ************************************************************
           *        Program running with 6 parallel MPI-processes     *
           *              working on a common directory               *
           ************************************************************
-------------------------------------------------------------------------------
                                 ORCA SCF
-------------------------------------------------------------------------------

------------
SCF SETTINGS
------------
Hamiltonian:
 Density Functional     Method          .... DFT(GTOs)
 Exchange Functional    Exchange        .... PBE
   PBE kappa parameter   XKappa         ....  0.804000
   PBE mue parameter    XMuePBE         ....  0.219520
 Correlation Functional Correlation     .... PBE
   PBE beta parameter  CBetaPBE         ....  0.066725
 LDA part of GGA corr.  LDAOpt          .... PW91-LDA
 Gradients option       PostSCFGGA      .... off
   Density functional embedding theory  .... OFF
   NL short-range parameter             ....  6.400000
 RI-approximation to the Coulomb term is turned on
   Number of AuxJ basis functions       .... 1335


General Settings:
 Integral files         IntName         .... pbeSP
 Hartree-Fock type      HFTyp           .... UHF
 Total Charge           Charge          ....    0
 Multiplicity           Mult            ....    5
 Number of Electrons    NEL             ....  290
 Basis Dimension        Dim             ....  605
 Nuclear Repulsion      ENuc            ....   5688.2347819168 Eh

Convergence Acceleration:
 DIIS                   CNVDIIS         .... on
   Start iteration      DIISMaxIt       ....     0
   Startup error        DIISStart       ....  0.200000
   # of expansion vecs  DIISMaxEq       ....     5
   Bias factor          DIISBfac        ....   1.050
   Max. coefficient     DIISMaxC        ....  10.000
 Trust-Rad. Augm. Hess. CNVTRAH         .... auto
   Auto Start mean grad. ratio tolernc. ....  1.125000
   Auto Start start iteration           ....   200
   Auto Start num. interpolation iter.  ....    10
   Max. Number of Micro iterations      ....    16
   Max. Number of Macro iterations      .... Maxiter - #DIIS iter
   Number of Davidson start vectors     ....     2
   Converg. threshold I  (grad. norm)   ....   5.000e-05
   Converg. threshold II (energy diff.) ....   1.000e-06
   Grad. Scal. Fac. for Micro threshold ....   0.100
   Minimum threshold for Micro iter.    ....   0.010
   NR start threshold (gradient norm)   ....   0.001
   Initial trust radius                 ....   0.400
   Minimum AH scaling param. (alpha)    ....   1.000
   Maximum AH scaling param. (alpha)    .... 1000.000
   Orbital update algorithm             .... Taylor
   White noise on init. David. guess    .... on
   Maximum white noise                  ....   0.010
   Quad. conv. algorithm                .... NR
 SOSCF                  CNVSOSCF        .... off
 Level Shifting         CNVShift        .... on
   Level shift para.    LevelShift      ....    0.2500
   Turn off err/grad.   ShiftErr        ....    0.0000
 Zerner damping         CNVZerner       .... off
 Static damping         CNVDamp         .... on
   Fraction old density DampFac         ....    0.9200
   Max. Damping (<1)    DampMax         ....    0.9800
   Min. Damping (>=0)   DampMin         ....    0.0000
   Turn off err/grad.   DampErr         ....    0.0030
 Fernandez-Rico         CNVRico         .... off

SCF Procedure:
 Maximum # iterations   MaxIter         ....   400
 SCF integral mode      SCFMode         .... Direct
   Integral package                     .... SHARK and LIBINT hybrid scheme
 Reset frequency        DirectResetFreq ....    20
 Integral Threshold     Thresh          ....  1.000e-10 Eh
 Primitive CutOff       TCut            ....  1.000e-11 Eh

Convergence Tolerance:
 Convergence Check Mode ConvCheckMode   .... Total+1el-Energy
 Convergence forced     ConvForced      .... 0
 Energy Change          TolE            ....  1.000e-06 Eh
 1-El. energy change                    ....  1.000e-03 Eh
 DIIS Error             TolErr          ....  1.000e-06


Diagonalization of the overlap matrix:
Smallest eigenvalue                        ... 5.289e-05
Time for diagonalization                   ...    0.164 sec
Threshold for overlap eigenvalues          ... 1.000e-08
Number of eigenvalues below threshold      ... 0
Time for construction of square roots      ...    0.313 sec
Total time needed                          ...    0.793 sec

Time for model grid setup =    2.798 sec

------------------------------
INITIAL GUESS: MODEL POTENTIAL
------------------------------
Loading Hartree-Fock densities                     ... done
  calling /media/Programs/ORCA501/orca pbeSP_atom79.inp > pbeSP_atom79.out in order to generate an atomic fitting density for atom 0 (Au with ECP) on-the-fly... 
    atom 0 (Au), assumed electronic state with S=2: 1s2 2s2 2p6 3s2 3p6 4s2 3d10 4p6 5s2 4d10 5p6 6s1 4f14 5d10           ... done
Calculating cut-offs                               ... done
Initializing the effective Hamiltonian             ... done
Setting up the integral package (SHARK)            ... done
Starting the Coulomb interaction                   ... done (   1.4 sec)
Reading the grid                                   ... done
Mapping shells                                     ... done
Starting the XC term evaluation                    ... done (   1.0 sec)
  promolecular density results
     # of electrons  =   1130.014207063
     EX              =  -5168.820445556
     EC              =    -68.873859636
     EX+EC           =  -5237.694305191
Transforming the Hamiltonian                       ... done (   0.6 sec)
Diagonalizing the Hamiltonian                      ... done (   0.8 sec)
Back transforming the eigenvectors                 ... done (   0.1 sec)
Now organizing SCF variables                       ... done
                      ------------------
                      INITIAL GUESS DONE (   8.8 sec)
                      ------------------
-------------------
DFT GRID GENERATION
-------------------

General Integration Accuracy     IntAcc      ... 4.388
Radial Grid Type                 RadialGrid  ... OptM3 with GC (2021)
Angular Grid (max. ang.)         AngularGrid ... 4 (Lebedev-302)
Angular grid pruning method      GridPruning ... 4 (adaptive)
Weight generation scheme         WeightScheme... Becke
Basis function cutoff            BFCut       ... 1.0000e-10
Integration weight cutoff        WCut        ... 1.0000e-14
Angular grids for H and He will be reduced by one unit
Partially contracted basis set               ... off
Rotationally invariant grid construction     ... off

Total number of grid points                  ...   165515
Total number of batches                      ...     2594
Average number of points per batch           ...       63
Average number of grid points per atom       ...    11034
Time for grid setup =    5.442 sec

--------------
SCF ITERATIONS
--------------
ITER       Energy         Delta-E        Max-DP      RMS-DP      [F,P]     Damp
               ***  Starting incremental Fock matrix formation  ***
  0  -2943.7008072831   0.000000000000 0.09426781  0.00071458  0.3931957 0.9200
  1  -2944.3761673434  -0.675360060287 0.15022930  0.00069747  0.2623942 0.9200
                               ***Turning on DIIS***
  2  -2944.7487669411  -0.372599597745 0.23663627  0.00065174  0.2404399 0.9200
  3  -2944.9158533432  -0.167086402093 0.14345037  0.00046321  0.2202914 0.9200
  4  -2944.9918792926  -0.076025949375 0.05266620  0.00036954  0.2018629 0.9200
  5  -2945.0399228392  -0.048043546629 0.04829948  0.00029457  0.1849921 0.9200
  6  -2945.0995675074  -0.059644668154 0.10035982  0.00028795  0.1697206 0.9200
  7  -2945.1391508381  -0.039583330731 0.12149927  0.00029714  0.1560353 0.9200
  8  -2945.1775602710  -0.038409432895 0.07936239  0.00028369  0.1436619 0.9200
  9  -2945.2326101486  -0.055049877572 0.07623505  0.00029314  0.1320925 0.9200
 10  -2945.2762426308  -0.043632482192 0.09264154  0.00023880  0.1214001 0.9200
 11  -2945.3155488976  -0.039306266823 0.09814978  0.00022708  0.1115488 0.9200
 12  -2945.3522527969  -0.036703899286 0.12379210  0.00024924  0.1024277 0.9200
 13  -2945.3819967292  -0.029743932349 0.11110457  0.00022904  0.0941864 0.9200
 14  -2945.4143648395  -0.032368110273 0.07488508  0.00019862  0.0866146 0.9200
 15  -2945.4471544282  -0.032789588729 0.09537569  0.00019602  0.0796114 0.9200
 16  -2945.4751205043  -0.027966076094 0.09685346  0.00018833  0.0732256 0.9200
 17  -2945.5014765279  -0.026356023586 0.09451797  0.00018900  0.0672994 0.9200
 18  -2945.5242101794  -0.022733651442 0.10088484  0.00018919  0.0618293 0.9200
 19  -2945.5456659377  -0.021455758389 0.08537549  0.00016839  0.0568607 0.9200
               *** Restarting incremental Fock matrix formation ***
                                   *** Resetting DIIS ***
 20  -2945.5673276486  -0.021661710848 0.07019778  0.00014913  0.0522808 0.9200
 21  -2945.5871884031  -0.019860754481 0.06912994  0.00014009  0.0480072 0.9200
 22  -2945.6052545160  -0.018066112884 0.07098726  0.00013716  0.0440873 0.9200
 23  -2945.6216856921  -0.016431176108 0.07397899  0.00013580  0.0405045 0.9200
 24  -2945.6369022686  -0.015216576509 0.07139134  0.00012883  0.0372457 0.9200
 25  -2945.6511307393  -0.014228470765 0.06410655  0.00011746  0.0342656 0.9200
 26  -2945.6643049156  -0.013174176257 0.05729179  0.00010652  0.0315223 0.9200
 27  -2945.6764456668  -0.012140751157 0.05291833  0.00009996  0.0289883 0.9200
 28  -2945.6875665383  -0.011120871578 0.05227998  0.00009614  0.0266494 0.9200
 29  -2945.6978976188  -0.010331080417 0.04961813  0.00009059  0.0245060 0.9200
 30  -2945.7075081218  -0.009610503010 0.04531607  0.00008304  0.0225394 0.9200
 31  -2945.7163653366  -0.008857214853 0.04053297  0.00007570  0.0207326 0.9200
 32  -2945.7245423340  -0.008176997384 0.03768394  0.00007108  0.0190655 0.9200
 33  -2945.7320620448  -0.007519710839 0.03672728  0.00006778  0.0175301 0.9200
 34  -2945.7390429204  -0.006980875541 0.03475291  0.00006368  0.0161221 0.9200
 35  -2945.7454987745  -0.006455854115 0.03165540  0.00005809  0.0148288 0.9200
 36  -2945.7514562589  -0.005957484425 0.02852986  0.00005337  0.0136384 0.9200
 37  -2945.7569532346  -0.005496975723 0.02706711  0.00005046  0.0125406 0.9200
 38  -2945.7620211407  -0.005067906015 0.02607732  0.00004786  0.0115321 0.9200
 39  -2945.7667133248  -0.004692184128 0.01790955  0.00003944  0.0106068 0.9200
               *** Restarting incremental Fock matrix formation ***
                                   *** Resetting DIIS ***
 40  -2945.7710418220  -0.004328497180 0.01717962  0.00003620  0.0097563 0.9200
 41  -2945.7750414546  -0.003999632657 0.01632139  0.00003347  0.0089604 0.9200
 42  -2945.7787342544  -0.003692799770 0.01639762  0.00003202  0.0082307 0.9200
 43  -2945.7821395579  -0.003405303542 0.01652566  0.00003103  0.0075654 0.9200
 44  -2945.7852789373  -0.003139379329 0.01586925  0.00002955  0.0069580 0.9200
 45  -2945.7881728317  -0.002893894448 0.01455965  0.00002756  0.0064010 0.9200
 46  -2945.7908411957  -0.002668363950 0.01317045  0.00002559  0.0058874 0.9200
 47  -2945.7933023075  -0.002461111812 0.01212775  0.00002403  0.0054141 0.9200
 48  -2945.7955712873  -0.002268979789 0.01130239  0.00002264  0.0049791 0.9200
 49  -2945.7976627920  -0.002091504771 0.01043620  0.00002118  0.0045795 0.9200
 50  -2945.7995907190  -0.001927926959 0.00956186  0.00001979  0.0042122 0.9200
 51  -2945.8013684297  -0.001777710694 0.00886276  0.00001864  0.0038740 0.9200
 52  -2945.8030072549  -0.001638825223 0.00837414  0.00001771  0.0035628 0.9200
 53  -2945.8045176712  -0.001510416262 0.00793363  0.00001681  0.0032768 0.9200
 54  -2945.8059095435  -0.001391872356 0.00744510  0.00001587  0.0030139 0.9200
 55  -2945.8071923394  -0.001282795911 0.08687090  0.00018737  0.0027721 0.0000
 56  -2945.8221220046  -0.014929665181 0.00743723  0.00001668  0.0006478 0.0000
 57  -2945.8220972791   0.000024725476 0.00262920  0.00000835  0.0021906 0.0000
 58  -2945.8221250333  -0.000027754154 0.00085816  0.00000435  0.0011346 0.0000
 59  -2945.8221339263  -0.000008892986 0.03761138  0.00005655  0.0004463 0.0000
               *** Restarting incremental Fock matrix formation ***
                                   *** Resetting DIIS ***
 60  -2945.8221379479  -0.000004021636 0.00573027  0.00000873  0.0002689 0.0000
 61  -2945.8221379103   0.000000037581 0.00099179  0.00000247  0.0004560 0.0000
 62  -2945.8221393711  -0.000001460762 0.00060595  0.00000185  0.0003585 0.0000
 63  -2945.8221402111  -0.000000839984 0.00204762  0.00000313  0.0002824 0.0000
                 **** Energy Check signals convergence ****

               *****************************************************
               *                     SUCCESS                       *
               *           SCF CONVERGED AFTER  64 CYCLES          *
               *****************************************************


----------------
TOTAL SCF ENERGY
----------------

Total Energy       :        -2945.82214096 Eh          -80159.89571 eV

Components:
Nuclear Repulsion  :         5688.23478192 Eh          154784.73752 eV
Electronic Energy  :        -8634.05692287 Eh         -234944.63323 eV
One Electron Energy:       -16142.53197152 Eh         -439260.62652 eV
Two Electron Energy:         7508.47504864 Eh          204315.99330 eV

Virial components:
Potential Energy   :        -4629.58346652 Eh         -125977.37069 eV
Kinetic Energy     :         1683.76132557 Eh           45817.47498 eV
Virial Ratio       :            2.74954852


DFT components:
N(Alpha)           :      146.999942810995 electrons
N(Beta)            :      142.999941440874 electrons
N(Total)           :      289.999884251870 electrons
E(X)               :     -216.172489004479 Eh       
E(C)               :      -12.662752475978 Eh       
E(XC)              :     -228.835241480457 Eh       
DFET-embed. en.    :        0.000000000000 Eh       

---------------
SCF CONVERGENCE
---------------

  Last Energy change         ...   -7.4690e-07  Tolerance :   1.0000e-06
  Last MAX-Density change    ...    5.8860e-03  Tolerance :   1.0000e-05
  Last RMS-Density change    ...    7.9008e-06  Tolerance :   1.0000e-06
  Last DIIS Error            ...    1.8683e-04  Tolerance :   1.0000e-06

             **** THE GBW FILE WAS UPDATED (pbeSP.gbw) ****
             **** DENSITY pbeSP.scfp WAS UPDATED ****
             **** ENERGY FILE WAS UPDATED (pbeSP.en.tmp) ****
----------------------
UHF SPIN CONTAMINATION
----------------------

Warning: in a DFT calculation there is little theoretical justification to 
         calculate <S**2> as in Hartree-Fock theory. We will do it anyways
         but you should keep in mind that the values have only limited relevance

Expectation value of <S**2>     :     6.318115
Ideal value S*(S+1) for S=2.0   :     6.000000
Deviation                       :     0.318115

             **** THE GBW FILE WAS UPDATED (pbeSP.gbw) ****
             **** DENSITY pbeSP.scfp WAS UPDATED ****
----------------
ORBITAL ENERGIES
----------------
                 SPIN UP ORBITALS
  NO   OCC          E(Eh)            E(eV) 
   0   1.0000    -214.493609     -5836.6678 
   1   1.0000     -24.294453      -661.0857 
   2   1.0000     -20.661204      -562.2200 
   3   1.0000     -20.656582      -562.0942 
   4   1.0000     -20.655722      -562.0708 
   5   1.0000      -4.035235      -109.8043 
   6   1.0000      -4.035118      -109.8011 
   7   1.0000      -4.031698      -109.7081 
   8   1.0000      -4.031695      -109.7080 
   9   1.0000      -4.031608      -109.7056 
  10   1.0000      -4.031600      -109.7054 
  11   1.0000      -4.027361      -109.5901 
  12   1.0000      -4.027254      -109.5871 
  13   1.0000      -4.026687      -109.5717 
  14   1.0000      -4.026663      -109.5711 
  15   1.0000      -4.025669      -109.5440 
  16   1.0000      -4.025646      -109.5434 
  17   1.0000      -4.019938      -109.3881 
  18   1.0000      -4.019836      -109.3853 
  19   1.0000      -2.799285       -76.1724 
  20   1.0000      -2.252966       -61.3063 
  21   1.0000      -2.252847       -61.3031 
  22   1.0000      -2.247679       -61.1624 
  23   1.0000      -2.247633       -61.1612 
  24   1.0000      -2.247532       -61.1584 
  25   1.0000      -2.247509       -61.1578 
  26   1.0000      -2.246222       -61.1228 
  27   1.0000      -2.246082       -61.1190 
  28   1.0000      -2.245661       -61.1075 
  29   1.0000      -2.245298       -61.0977 
  30   1.0000      -2.244597       -61.0786 
  31   1.0000      -2.244296       -61.0704 
  32   1.0000      -2.244173       -61.0671 
  33   1.0000      -2.243937       -61.0606 
  34   1.0000      -2.243863       -61.0586 
  35   1.0000      -2.243818       -61.0574 
  36   1.0000      -2.243731       -61.0550 
  37   1.0000      -2.242664       -61.0260 
  38   1.0000      -2.242624       -61.0249 
  39   1.0000      -2.242045       -61.0091 
  40   1.0000      -2.241955       -61.0067 
  41   1.0000      -2.241039       -60.9818 
  42   1.0000      -2.240324       -60.9623 
  43   1.0000      -2.239835       -60.9490 
  44   1.0000      -2.239710       -60.9456 
  45   1.0000      -2.239237       -60.9327 
  46   1.0000      -2.239218       -60.9322 
  47   1.0000      -2.238341       -60.9084 
  48   1.0000      -2.237876       -60.8957 
  49   1.0000      -2.237823       -60.8943 
  50   1.0000      -2.237750       -60.8923 
  51   1.0000      -2.237593       -60.8880 
  52   1.0000      -2.237232       -60.8782 
  53   1.0000      -2.237198       -60.8773 
  54   1.0000      -2.236663       -60.8627 
  55   1.0000      -2.236303       -60.8529 
  56   1.0000      -2.233994       -60.7901 
  57   1.0000      -2.233872       -60.7867 
  58   1.0000      -2.232700       -60.7548 
  59   1.0000      -2.231615       -60.7253 
  60   1.0000      -2.231468       -60.7213 
  61   1.0000      -2.230839       -60.7042 
  62   1.0000      -1.794039       -48.8183 
  63   1.0000      -1.786834       -48.6222 
  64   1.0000      -1.786668       -48.6177 
  65   1.0000      -0.437291       -11.8993 
  66   1.0000      -0.391793       -10.6612 
  67   1.0000      -0.388511       -10.5719 
  68   1.0000      -0.385649       -10.4940 
  69   1.0000      -0.377765       -10.2795 
  70   1.0000      -0.372129       -10.1262 
  71   1.0000      -0.371862       -10.1189 
  72   1.0000      -0.369773       -10.0620 
  73   1.0000      -0.367801       -10.0084 
  74   1.0000      -0.361416        -9.8346 
  75   1.0000      -0.358878        -9.7656 
  76   1.0000      -0.354132        -9.6364 
  77   1.0000      -0.351225        -9.5573 
  78   1.0000      -0.349024        -9.4974 
  79   1.0000      -0.348622        -9.4865 
  80   1.0000      -0.348087        -9.4719 
  81   1.0000      -0.345301        -9.3961 
  82   1.0000      -0.344647        -9.3783 
  83   1.0000      -0.341610        -9.2957 
  84   1.0000      -0.340665        -9.2700 
  85   1.0000      -0.338362        -9.2073 
  86   1.0000      -0.338130        -9.2010 
  87   1.0000      -0.336565        -9.1584 
  88   1.0000      -0.334071        -9.0905 
  89   1.0000      -0.333804        -9.0833 
  90   1.0000      -0.326745        -8.8912 
  91   1.0000      -0.320801        -8.7294 
  92   1.0000      -0.320762        -8.7284 
  93   1.0000      -0.319133        -8.6840 
  94   1.0000      -0.314306        -8.5527 
  95   1.0000      -0.314088        -8.5468 
  96   1.0000      -0.312143        -8.4938 
  97   1.0000      -0.311541        -8.4774 
  98   1.0000      -0.304255        -8.2792 
  99   1.0000      -0.302387        -8.2284 
 100   1.0000      -0.296554        -8.0696 
 101   1.0000      -0.292764        -7.9665 
 102   1.0000      -0.291452        -7.9308 
 103   1.0000      -0.291396        -7.9293 
 104   1.0000      -0.289323        -7.8729 
 105   1.0000      -0.288577        -7.8526 
 106   1.0000      -0.284698        -7.7470 
 107   1.0000      -0.282407        -7.6847 
 108   1.0000      -0.279125        -7.5954 
 109   1.0000      -0.278874        -7.5885 
 110   1.0000      -0.277857        -7.5609 
 111   1.0000      -0.277555        -7.5526 
 112   1.0000      -0.276784        -7.5317 
 113   1.0000      -0.276400        -7.5212 
 114   1.0000      -0.276008        -7.5106 
 115   1.0000      -0.270689        -7.3658 
 116   1.0000      -0.270019        -7.3476 
 117   1.0000      -0.269484        -7.3330 
 118   1.0000      -0.268897        -7.3171 
 119   1.0000      -0.267166        -7.2700 
 120   1.0000      -0.266235        -7.2446 
 121   1.0000      -0.263390        -7.1672 
 122   1.0000      -0.262798        -7.1511 
 123   1.0000      -0.262384        -7.1398 
 124   1.0000      -0.262056        -7.1309 
 125   1.0000      -0.261544        -7.1170 
 126   1.0000      -0.257529        -7.0077 
 127   1.0000      -0.255476        -6.9519 
 128   1.0000      -0.254187        -6.9168 
 129   1.0000      -0.253716        -6.9040 
 130   1.0000      -0.252545        -6.8721 
 131   1.0000      -0.251991        -6.8570 
 132   1.0000      -0.248590        -6.7645 
 133   1.0000      -0.247868        -6.7448 
 134   1.0000      -0.246672        -6.7123 
 135   1.0000      -0.244801        -6.6614 
 136   1.0000      -0.243224        -6.6185 
 137   1.0000      -0.239311        -6.5120 
 138   1.0000      -0.234911        -6.3923 
 139   1.0000      -0.225523        -6.1368 
 140   1.0000      -0.218622        -5.9490 
 141   1.0000      -0.218377        -5.9423 
 142   1.0000      -0.212773        -5.7898 
 143   1.0000      -0.212745        -5.7891 
 144   1.0000      -0.196229        -5.3397 
 145   1.0000      -0.188840        -5.1386 
 146   1.0000      -0.176437        -4.8011 
 147   0.0000      -0.173975        -4.7341 
 148   0.0000      -0.173618        -4.7244 
 149   0.0000      -0.142765        -3.8848 
 150   0.0000      -0.131995        -3.5918 
 151   0.0000      -0.123448        -3.3592 
 152   0.0000      -0.121400        -3.3035 
 153   0.0000      -0.111875        -3.0443 
 154   0.0000      -0.110423        -3.0048 
 155   0.0000      -0.070116        -1.9080 
 156   0.0000      -0.065281        -1.7764 
 157   0.0000      -0.063847        -1.7374 
 158   0.0000      -0.061970        -1.6863 
 159   0.0000      -0.059746        -1.6258 
 160   0.0000      -0.035717        -0.9719 
 161   0.0000      -0.033970        -0.9244 
 162   0.0000      -0.031851        -0.8667 
 163   0.0000      -0.021067        -0.5733 
 164   0.0000      -0.012297        -0.3346 
 165   0.0000      -0.010132        -0.2757 
 166   0.0000      -0.010096        -0.2747 
 167   0.0000       0.030387         0.8269 
 168   0.0000       0.031982         0.8703 
 169   0.0000       0.035837         0.9752 
 170   0.0000       0.038734         1.0540 
 171   0.0000       0.040535         1.1030 
 172   0.0000       0.042077         1.1450 
 173   0.0000       0.042467         1.1556 
 174   0.0000       0.045313         1.2330 
 175   0.0000       0.055659         1.5145 
 176   0.0000       0.057034         1.5520 
 177   0.0000       0.063097         1.7170 
 178   0.0000       0.067458         1.8356 
 179   0.0000       0.070528         1.9192 
 180   0.0000       0.070604         1.9212 
 181   0.0000       0.074500         2.0272 
 182   0.0000       0.079685         2.1683 
 183   0.0000       0.084339         2.2950 
 184   0.0000       0.088784         2.4159 
 185   0.0000       0.093017         2.5311 
 186   0.0000       0.096633         2.6295 
 187   0.0000       0.096721         2.6319 
 188   0.0000       0.113143         3.0788 
 189   0.0000       0.116346         3.1659 
 190   0.0000       0.124226         3.3803 
 191   0.0000       0.127377         3.4661 
 192   0.0000       0.127889         3.4800 
 193   0.0000       0.131518         3.5788 
 194   0.0000       0.134561         3.6616 
 195   0.0000       0.135574         3.6892 
 196   0.0000       0.135870         3.6972 
 197   0.0000       0.149917         4.0795 
 198   0.0000       0.150620         4.0986 
 199   0.0000       0.153133         4.1670 
 200   0.0000       0.154012         4.1909 
 201   0.0000       0.160058         4.3554 
 202   0.0000       0.173015         4.7080 
 203   0.0000       0.174402         4.7457 
 204   0.0000       0.179497         4.8844 
 205   0.0000       0.189474         5.1559 
 206   0.0000       0.189612         5.1596 
 207   0.0000       0.197053         5.3621 
 208   0.0000       0.200506         5.4561 
 209   0.0000       0.202845         5.5197 
 210   0.0000       0.206968         5.6319 
 211   0.0000       0.209191         5.6924 
 212   0.0000       0.210737         5.7344 
 213   0.0000       0.214873         5.8470 
 214   0.0000       0.217750         5.9253 
 215   0.0000       0.230032         6.2595 
 216   0.0000       0.230132         6.2622 
 217   0.0000       0.232010         6.3133 
 218   0.0000       0.239591         6.5196 
 219   0.0000       0.248900         6.7729 
 220   0.0000       0.250419         6.8142 
 221   0.0000       0.252461         6.8698 
 222   0.0000       0.262772         7.1504 
 223   0.0000       0.272762         7.4222 
 224   0.0000       0.277492         7.5509 
 225   0.0000       0.278650         7.5825 
 226   0.0000       0.282281         7.6813 
 227   0.0000       0.286406         7.7935 
 228   0.0000       0.291613         7.9352 
 229   0.0000       0.293923         7.9981 
 230   0.0000       0.298865         8.1325 
 231   0.0000       0.313491         8.5305 
 232   0.0000       0.315633         8.5888 
 233   0.0000       0.322770         8.7830 
 234   0.0000       0.324486         8.8297 
 235   0.0000       0.326896         8.8953 
 236   0.0000       0.330052         8.9812 
 237   0.0000       0.332375         9.0444 
 238   0.0000       0.338117         9.2006 
 239   0.0000       0.344557         9.3759 
 240   0.0000       0.345972         9.4144 
 241   0.0000       0.347771         9.4633 
 242   0.0000       0.356365         9.6972 
 243   0.0000       0.361446         9.8354 
 244   0.0000       0.369485        10.0542 
 245   0.0000       0.371138        10.0992 
 246   0.0000       0.373949        10.1757 
 247   0.0000       0.380994        10.3674 
 248   0.0000       0.383693        10.4408 
 249   0.0000       0.385591        10.4925 
 250   0.0000       0.397974        10.8294 
 251   0.0000       0.409325        11.1383 
 252   0.0000       0.409533        11.1440 
 253   0.0000       0.415246        11.2994 
 254   0.0000       0.416793        11.3415 
 255   0.0000       0.431731        11.7480 
 256   0.0000       0.431956        11.7541 
 257   0.0000       0.434236        11.8162 
 258   0.0000       0.434795        11.8314 
 259   0.0000       0.442712        12.0468 
 260   0.0000       0.443049        12.0560 
 261   0.0000       0.450856        12.2684 
 262   0.0000       0.455555        12.3963 
 263   0.0000       0.456843        12.4313 
 264   0.0000       0.457027        12.4363 
 265   0.0000       0.459529        12.5044 
 266   0.0000       0.469397        12.7729 
 267   0.0000       0.472620        12.8606 
 268   0.0000       0.476981        12.9793 
 269   0.0000       0.491354        13.3704 
 270   0.0000       0.494373        13.4526 
 271   0.0000       0.494529        13.4568 
 272   0.0000       0.495626        13.4867 
 273   0.0000       0.504669        13.7327 
 274   0.0000       0.504931        13.7399 
 275   0.0000       0.507767        13.8171 
 276   0.0000       0.514700        14.0057 
 277   0.0000       0.515711        14.0332 
 278   0.0000       0.520082        14.1521 
 279   0.0000       0.521999        14.2043 
 280   0.0000       0.524509        14.2726 
 281   0.0000       0.526086        14.3155 
 282   0.0000       0.533566        14.5191 
 283   0.0000       0.534045        14.5321 
 284   0.0000       0.543298        14.7839 
 285   0.0000       0.548311        14.9203 
 286   0.0000       0.548523        14.9261 
 287   0.0000       0.549287        14.9469 
 288   0.0000       0.550399        14.9771 
 289   0.0000       0.557595        15.1729 
 290   0.0000       0.562104        15.2956 
 291   0.0000       0.568095        15.4587 
 292   0.0000       0.568660        15.4740 
 293   0.0000       0.576302        15.6820 
 294   0.0000       0.606782        16.5114 
 295   0.0000       0.659604        17.9487 
 296   0.0000       0.661785        18.0081 
 297   0.0000       0.662324        18.0227 
 298   0.0000       0.664707        18.0876 
 299   0.0000       0.677642        18.4396 
 300   0.0000       0.692224        18.8364 
 301   0.0000       0.693346        18.8669 
 302   0.0000       0.714395        19.4397 
 303   0.0000       0.715207        19.4618 
 304   0.0000       0.725733        19.7482 
 305   0.0000       0.726581        19.7713 
 306   0.0000       0.754472        20.5302 
 307   0.0000       0.761889        20.7321 
 308   0.0000       0.769443        20.9376 
 309   0.0000       0.785321        21.3697 
 310   0.0000       0.790942        21.5226 
 311   0.0000       0.793231        21.5849 
 312   0.0000       0.808928        22.0121 
 313   0.0000       0.816357        22.2142 
 314   0.0000       0.842692        22.9308 
 315   0.0000       0.849731        23.1224 
 316   0.0000       0.874027        23.7835 
 317   0.0000       0.875970        23.8363 
 318   0.0000       0.877581        23.8802 
 319   0.0000       0.878520        23.9057 
 320   0.0000       0.881718        23.9928 
 321   0.0000       0.895764        24.3750 
 322   0.0000       0.899621        24.4799 
 323   0.0000       0.905603        24.6427 
 324   0.0000       0.906097        24.6561 
 325   0.0000       0.920316        25.0431 
 326   0.0000       0.933858        25.4116 
 327   0.0000       0.936440        25.4818 
 328   0.0000       0.948117        25.7996 
 329   0.0000       1.002752        27.2863 
 330   0.0000       1.030991        28.0547 
 331   0.0000       1.132971        30.8297 
 332   0.0000       1.143495        31.1161 
 333   0.0000       1.163382        31.6572 
 334   0.0000       1.175974        31.9999 
 335   0.0000       1.179629        32.0993 
 336   0.0000       1.196056        32.5463 
 337   0.0000       1.207508        32.8580 
 338   0.0000       1.217518        33.1304 
 339   0.0000       1.230972        33.4964 
 340   0.0000       1.248216        33.9657 
 341   0.0000       1.260088        34.2887 
 342   0.0000       1.269728        34.5510 
 343   0.0000       1.280846        34.8536 
 344   0.0000       1.297098        35.2958 
 345   0.0000       1.297758        35.3138 
 346   0.0000       1.300060        35.3764 
 347   0.0000       1.303299        35.4646 
 348   0.0000       1.309037        35.6207 
 349   0.0000       1.316661        35.8282 
 350   0.0000       1.324074        36.0299 
 351   0.0000       1.329270        36.1713 
 352   0.0000       1.333569        36.2883 
 353   0.0000       1.343265        36.5521 
 354   0.0000       1.343468        36.5576 
 355   0.0000       1.351177        36.7674 
 356   0.0000       1.370824        37.3020 
 357   0.0000       1.381856        37.6022 
 358   0.0000       1.387375        37.7524 
 359   0.0000       1.391470        37.8638 
 360   0.0000       1.393940        37.9310 
 361   0.0000       1.394302        37.9409 
 362   0.0000       1.400999        38.1231 
 363   0.0000       1.405427        38.2436 
 364   0.0000       1.405931        38.2573 
 365   0.0000       1.406724        38.2789 
 366   0.0000       1.414055        38.4784 
 367   0.0000       1.416249        38.5381 
 368   0.0000       1.421659        38.6853 
 369   0.0000       1.427454        38.8430 
 370   0.0000       1.428909        38.8826 
 371   0.0000       1.430933        38.9377 
 372   0.0000       1.436059        39.0772 
 373   0.0000       1.438013        39.1303 
 374   0.0000       1.441930        39.2369 
 375   0.0000       1.443683        39.2846 
 376   0.0000       1.444054        39.2947 
 377   0.0000       1.444202        39.2987 
 378   0.0000       1.446959        39.3738 
 379   0.0000       1.459517        39.7155 
 380   0.0000       1.462263        39.7902 
 381   0.0000       1.463024        39.8109 
 382   0.0000       1.467092        39.9216 
 383   0.0000       1.468326        39.9552 
 384   0.0000       1.469385        39.9840 
 385   0.0000       1.472633        40.0724 
 386   0.0000       1.473026        40.0831 
 387   0.0000       1.473627        40.0994 
 388   0.0000       1.474804        40.1315 
 389   0.0000       1.477861        40.2147 
 390   0.0000       1.478204        40.2240 
 391   0.0000       1.479556        40.2608 
 392   0.0000       1.482487        40.3405 
 393   0.0000       1.483248        40.3612 
 394   0.0000       1.487378        40.4736 
 395   0.0000       1.488218        40.4965 
 396   0.0000       1.488807        40.5125 
 397   0.0000       1.492035        40.6003 
 398   0.0000       1.493263        40.6338 
 399   0.0000       1.493506        40.6404 
 400   0.0000       1.494866        40.6774 
 401   0.0000       1.495555        40.6961 
 402   0.0000       1.496611        40.7249 
 403   0.0000       1.498736        40.7827 
 404   0.0000       1.500587        40.8330 
 405   0.0000       1.502364        40.8814 
 406   0.0000       1.504074        40.9279 
 407   0.0000       1.505560        40.9684 
 408   0.0000       1.508463        41.0474 
 409   0.0000       1.508756        41.0553 
 410   0.0000       1.509596        41.0782 
 411   0.0000       1.512462        41.1562 
 412   0.0000       1.513223        41.1769 
 413   0.0000       1.514682        41.2166 
 414   0.0000       1.515334        41.2343 
 415   0.0000       1.516078        41.2546 
 416   0.0000       1.518251        41.3137 
 417   0.0000       1.518662        41.3249 
 418   0.0000       1.520346        41.3707 
 419   0.0000       1.523432        41.4547 
 420   0.0000       1.524699        41.4892 
 421   0.0000       1.529461        41.6188 
 422   0.0000       1.529595        41.6224 
 423   0.0000       1.531031        41.6615 
 424   0.0000       1.542131        41.9635 
 425   0.0000       1.542586        41.9759 
 426   0.0000       1.545593        42.0577 
 427   0.0000       1.548979        42.1499 
 428   0.0000       1.551390        42.2155 
 429   0.0000       1.551454        42.2172 
 430   0.0000       1.553638        42.2766 
 431   0.0000       1.554089        42.2889 
 432   0.0000       1.556991        42.3679 
 433   0.0000       1.558709        42.4146 
 434   0.0000       1.561714        42.4964 
 435   0.0000       1.562507        42.5180 
 436   0.0000       1.570334        42.7310 
 437   0.0000       1.570623        42.7388 
 438   0.0000       1.573345        42.8129 
 439   0.0000       1.574789        42.8522 
 440   0.0000       1.575130        42.8615 
 441   0.0000       1.577618        42.9292 
 442   0.0000       1.579479        42.9798 
 443   0.0000       1.582867        43.0720 
 444   0.0000       1.585626        43.1471 
 445   0.0000       1.586195        43.1626 
 446   0.0000       1.590476        43.2791 
 447   0.0000       1.593477        43.3607 
 448   0.0000       1.594940        43.4005 
 449   0.0000       1.595117        43.4053 
 450   0.0000       1.598785        43.5052 
 451   0.0000       1.602622        43.6096 
 452   0.0000       1.604909        43.6718 
 453   0.0000       1.606269        43.7088 
 454   0.0000       1.606760        43.7222 
 455   0.0000       1.608902        43.7804 
 456   0.0000       1.616507        43.9874 
 457   0.0000       1.616719        43.9932 
 458   0.0000       1.624207        44.1969 
 459   0.0000       1.625816        44.2407 
 460   0.0000       1.632833        44.4317 
 461   0.0000       1.637468        44.5578 
 462   0.0000       1.641564        44.6692 
 463   0.0000       1.644652        44.7532 
 464   0.0000       1.651268        44.9333 
 465   0.0000       1.657906        45.1139 
 466   0.0000       1.664192        45.2850 
 467   0.0000       1.666117        45.3373 
 468   0.0000       1.673254        45.5316 
 469   0.0000       1.675000        45.5791 
 470   0.0000       1.689387        45.9705 
 471   0.0000       1.701660        46.3045 
 472   0.0000       1.707799        46.4716 
 473   0.0000       1.714054        46.6418 
 474   0.0000       1.715748        46.6879 
 475   0.0000       1.727075        46.9961 
 476   0.0000       1.735694        47.2306 
 477   0.0000       1.747590        47.5543 
 478   0.0000       1.748288        47.5733 
 479   0.0000       1.749098        47.5954 
 480   0.0000       1.752431        47.6861 
 481   0.0000       1.759619        47.8817 
 482   0.0000       1.760143        47.8959 
 483   0.0000       1.764234        48.0072 
 484   0.0000       1.765308        48.0365 
 485   0.0000       1.768908        48.1344 
 486   0.0000       1.771762        48.2121 
 487   0.0000       1.772281        48.2262 
 488   0.0000       1.773588        48.2618 
 489   0.0000       1.781917        48.4884 
 490   0.0000       1.800713        48.9999 
 491   0.0000       1.802732        49.0548 
 492   0.0000       1.805155        49.1208 
 493   0.0000       1.808210        49.2039 
 494   0.0000       1.818845        49.4933 
 495   0.0000       1.824549        49.6485 
 496   0.0000       1.825697        49.6798 
 497   0.0000       1.830167        49.8014 
 498   0.0000       1.866134        50.7801 
 499   0.0000       1.877620        51.0926 
 500   0.0000       1.884378        51.2765 
 501   0.0000       1.913877        52.0792 
 502   0.0000       1.923987        52.3544 
 503   0.0000       1.965836        53.4931 
 504   0.0000       2.046595        55.6907 
 505   0.0000       2.219641        60.3995 
 506   0.0000       2.274679        61.8972 
 507   0.0000       2.295577        62.4658 
 508   0.0000       2.304642        62.7125 
 509   0.0000       2.350596        63.9630 
 510   0.0000       2.385685        64.9178 
 511   0.0000       2.411515        65.6207 
 512   0.0000       2.414740        65.7084 
 513   0.0000       2.417453        65.7822 
 514   0.0000       2.424051        65.9618 
 515   0.0000       2.427341        66.0513 
 516   0.0000       2.436344        66.2963 
 517   0.0000       2.460221        66.9460 
 518   0.0000       2.464080        67.0510 
 519   0.0000       2.491864        67.8071 
 520   0.0000       2.494085        67.8675 
 521   0.0000       2.563597        69.7590 
 522   0.0000       2.578760        70.1716 
 523   0.0000       2.589026        70.4510 
 524   0.0000       2.611696        71.0679 
 525   0.0000       2.621780        71.3423 
 526   0.0000       2.629864        71.5622 
 527   0.0000       2.852484        77.6200 
 528   0.0000       2.855024        77.6892 
 529   0.0000       2.859940        77.8229 
 530   0.0000       2.868596        78.0585 
 531   0.0000       2.878242        78.3209 
 532   0.0000       2.883014        78.4508 
 533   0.0000       2.884405        78.4887 
 534   0.0000       3.077138        83.7332 
 535   0.0000      23.838129       648.6685 
 536   0.0000      24.013533       653.4415 
 537   0.0000      24.298801       661.2040 
 538   0.0000      24.362826       662.9462 
 539   0.0000      24.469086       665.8377 
 540   0.0000      24.606584       669.5792 
 541   0.0000      24.627209       670.1404 
 542   0.0000      24.878558       676.9800 
 543   0.0000      25.150941       684.3919 
 544   0.0000      25.243979       686.9236 
 545   0.0000      25.308268       688.6730 
 546   0.0000      25.492896       693.6970 
 547   0.0000      25.725289       700.0207 
 548   0.0000      25.759720       700.9576 
 549   0.0000      26.080196       709.6782 
 550   0.0000      26.091468       709.9849 
 551   0.0000      26.112767       710.5645 
 552   0.0000      26.126062       710.9263 
 553   0.0000      26.356519       717.1973 
 554   0.0000      26.382957       717.9168 
 555   0.0000      26.475393       720.4321 
 556   0.0000      26.532869       721.9961 
 557   0.0000      26.642394       724.9764 
 558   0.0000      26.767519       728.3812 
 559   0.0000      26.823897       729.9153 
 560   0.0000      26.977691       734.1003 
 561   0.0000      27.031096       735.5535 
 562   0.0000      27.061878       736.3911 
 563   0.0000      27.157105       738.9824 
 564   0.0000      27.310079       743.1450 
 565   0.0000      27.454699       747.0803 
 566   0.0000      27.607689       751.2434 
 567   0.0000      27.822302       757.0833 
 568   0.0000      28.218937       767.8763 
 569   0.0000      28.387588       772.4655 
 570   0.0000      28.595795       778.1312 
 571   0.0000      28.993040       788.9407 
 572   0.0000      29.106889       792.0387 
 573   0.0000      29.227452       795.3194 
 574   0.0000      29.272395       796.5424 
 575   0.0000      29.442264       801.1647 
 576   0.0000      33.051318       899.3721 
 577   0.0000      43.945262      1195.8114 
 578   0.0000      44.055582      1198.8133 
 579   0.0000      44.062162      1198.9924 
 580   0.0000      44.075618      1199.3585 
 581   0.0000      44.112183      1200.3535 
 582   0.0000      44.117202      1200.4901 
 583   0.0000      44.125671      1200.7206 
 584   0.0000      44.145766      1201.2674 
 585   0.0000      44.147808      1201.3229 
 586   0.0000      44.153597      1201.4805 
 587   0.0000      44.168882      1201.8964 
 588   0.0000      44.172617      1201.9980 
 589   0.0000      44.200075      1202.7452 
 590   0.0000      44.318119      1205.9573 
 591   0.0000     205.101336      5581.0911 
 592   0.0000     205.144912      5582.2769 
 593   0.0000     205.156529      5582.5930 
 594   0.0000     205.156643      5582.5961 
 595   0.0000     205.177361      5583.1598 
 596   0.0000     205.182005      5583.2862 
 597   0.0000     205.185838      5583.3905 
 598   0.0000     205.187110      5583.4251 
 599   0.0000     205.191463      5583.5436 
 600   0.0000     205.194218      5583.6185 
 601   0.0000     205.196513      5583.6810 
 602   0.0000     205.202047      5583.8316 
 603   0.0000     205.215699      5584.2031 
 604   0.0000     205.249250      5585.1160 

                 SPIN DOWN ORBITALS
  NO   OCC          E(Eh)            E(eV) 
   0   1.0000    -214.493211     -5836.6570 
   1   1.0000     -24.248132      -659.8252 
   2   1.0000     -20.628397      -561.3272 
   3   1.0000     -20.620161      -561.1031 
   4   1.0000     -20.618806      -561.0662 
   5   1.0000      -4.033942      -109.7692 
   6   1.0000      -4.033817      -109.7658 
   7   1.0000      -4.031169      -109.6937 
   8   1.0000      -4.031165      -109.6936 
   9   1.0000      -4.031078      -109.6912 
  10   1.0000      -4.031075      -109.6911 
  11   1.0000      -4.026656      -109.5709 
  12   1.0000      -4.026546      -109.5679 
  13   1.0000      -4.025160      -109.5302 
  14   1.0000      -4.025133      -109.5294 
  15   1.0000      -4.024591      -109.5147 
  16   1.0000      -4.024569      -109.5141 
  17   1.0000      -4.019601      -109.3789 
  18   1.0000      -4.019503      -109.3762 
  19   1.0000      -2.674668       -72.7814 
  20   1.0000      -2.251226       -61.2590 
  21   1.0000      -2.251103       -61.2556 
  22   1.0000      -2.246794       -61.1384 
  23   1.0000      -2.246756       -61.1373 
  24   1.0000      -2.246612       -61.1334 
  25   1.0000      -2.246592       -61.1329 
  26   1.0000      -2.245208       -61.0952 
  27   1.0000      -2.245114       -61.0927 
  28   1.0000      -2.244540       -61.0770 
  29   1.0000      -2.244265       -61.0696 
  30   1.0000      -2.243738       -61.0552 
  31   1.0000      -2.243641       -61.0526 
  32   1.0000      -2.243500       -61.0487 
  33   1.0000      -2.243273       -61.0426 
  34   1.0000      -2.243258       -61.0422 
  35   1.0000      -2.243187       -61.0402 
  36   1.0000      -2.242613       -61.0246 
  37   1.0000      -2.242139       -61.0117 
  38   1.0000      -2.241373       -60.9909 
  39   1.0000      -2.241148       -60.9847 
  40   1.0000      -2.240883       -60.9775 
  41   1.0000      -2.240200       -60.9589 
  42   1.0000      -2.239589       -60.9423 
  43   1.0000      -2.239091       -60.9288 
  44   1.0000      -2.238831       -60.9217 
  45   1.0000      -2.237643       -60.8894 
  46   1.0000      -2.237626       -60.8889 
  47   1.0000      -2.237393       -60.8826 
  48   1.0000      -2.236776       -60.8658 
  49   1.0000      -2.236752       -60.8651 
  50   1.0000      -2.236355       -60.8543 
  51   1.0000      -2.236304       -60.8529 
  52   1.0000      -2.235915       -60.8423 
  53   1.0000      -2.235872       -60.8412 
  54   1.0000      -2.235787       -60.8388 
  55   1.0000      -2.235441       -60.8294 
  56   1.0000      -2.233404       -60.7740 
  57   1.0000      -2.233208       -60.7687 
  58   1.0000      -2.232482       -60.7489 
  59   1.0000      -2.231200       -60.7141 
  60   1.0000      -2.231064       -60.7103 
  61   1.0000      -2.230745       -60.7017 
  62   1.0000      -1.679688       -45.7066 
  63   1.0000      -1.661037       -45.1991 
  64   1.0000      -1.658650       -45.1342 
  65   1.0000      -0.429744       -11.6939 
  66   1.0000      -0.390166       -10.6169 
  67   1.0000      -0.386486       -10.5168 
  68   1.0000      -0.382983       -10.4215 
  69   1.0000      -0.372162       -10.1270 
  70   1.0000      -0.368104       -10.0166 
  71   1.0000      -0.367435        -9.9984 
  72   1.0000      -0.363631        -9.8949 
  73   1.0000      -0.363097        -9.8804 
  74   1.0000      -0.357270        -9.7218 
  75   1.0000      -0.356628        -9.7043 
  76   1.0000      -0.352382        -9.5888 
  77   1.0000      -0.349461        -9.5093 
  78   1.0000      -0.348704        -9.4887 
  79   1.0000      -0.347777        -9.4635 
  80   1.0000      -0.347379        -9.4527 
  81   1.0000      -0.344800        -9.3825 
  82   1.0000      -0.343147        -9.3375 
  83   1.0000      -0.340671        -9.2701 
  84   1.0000      -0.339379        -9.2350 
  85   1.0000      -0.337627        -9.1873 
  86   1.0000      -0.336578        -9.1588 
  87   1.0000      -0.335197        -9.1212 
  88   1.0000      -0.333172        -9.0661 
  89   1.0000      -0.331952        -9.0329 
  90   1.0000      -0.325042        -8.8449 
  91   1.0000      -0.319336        -8.6896 
  92   1.0000      -0.319086        -8.6828 
  93   1.0000      -0.317661        -8.6440 
  94   1.0000      -0.313254        -8.5241 
  95   1.0000      -0.312095        -8.4925 
  96   1.0000      -0.309259        -8.4154 
  97   1.0000      -0.308825        -8.4036 
  98   1.0000      -0.302452        -8.2301 
  99   1.0000      -0.301006        -8.1908 
 100   1.0000      -0.295730        -8.0472 
 101   1.0000      -0.290069        -7.8932 
 102   1.0000      -0.288328        -7.8458 
 103   1.0000      -0.286817        -7.8047 
 104   1.0000      -0.285334        -7.7643 
 105   1.0000      -0.284622        -7.7449 
 106   1.0000      -0.281899        -7.6709 
 107   1.0000      -0.281573        -7.6620 
 108   1.0000      -0.278340        -7.5740 
 109   1.0000      -0.277459        -7.5500 
 110   1.0000      -0.276961        -7.5365 
 111   1.0000      -0.276726        -7.5301 
 112   1.0000      -0.276614        -7.5270 
 113   1.0000      -0.275147        -7.4871 
 114   1.0000      -0.274824        -7.4783 
 115   1.0000      -0.270085        -7.3494 
 116   1.0000      -0.268757        -7.3132 
 117   1.0000      -0.268515        -7.3067 
 118   1.0000      -0.267827        -7.2879 
 119   1.0000      -0.265995        -7.2381 
 120   1.0000      -0.265079        -7.2132 
 121   1.0000      -0.262819        -7.1517 
 122   1.0000      -0.261854        -7.1254 
 123   1.0000      -0.261227        -7.1084 
 124   1.0000      -0.261018        -7.1027 
 125   1.0000      -0.260990        -7.1019 
 126   1.0000      -0.256003        -6.9662 
 127   1.0000      -0.253831        -6.9071 
 128   1.0000      -0.252870        -6.8809 
 129   1.0000      -0.252457        -6.8697 
 130   1.0000      -0.251601        -6.8464 
 131   1.0000      -0.251151        -6.8342 
 132   1.0000      -0.247602        -6.7376 
 133   1.0000      -0.246789        -6.7155 
 134   1.0000      -0.246144        -6.6979 
 135   1.0000      -0.243509        -6.6262 
 136   1.0000      -0.242273        -6.5926 
 137   1.0000      -0.237717        -6.4686 
 138   1.0000      -0.233175        -6.3450 
 139   1.0000      -0.218666        -5.9502 
 140   1.0000      -0.210980        -5.7411 
 141   1.0000      -0.198997        -5.4150 
 142   1.0000      -0.198820        -5.4102 
 143   0.0000      -0.195770        -5.3272 
 144   0.0000      -0.145743        -3.9659 
 145   0.0000      -0.136257        -3.7077 
 146   0.0000      -0.124294        -3.3822 
 147   0.0000      -0.121529        -3.3070 
 148   0.0000      -0.113027        -3.0756 
 149   0.0000      -0.111192        -3.0257 
 150   0.0000      -0.110671        -3.0115 
 151   0.0000      -0.108845        -2.9618 
 152   0.0000      -0.101591        -2.7644 
 153   0.0000      -0.095586        -2.6010 
 154   0.0000      -0.093463        -2.5433 
 155   0.0000      -0.066723        -1.8156 
 156   0.0000      -0.065108        -1.7717 
 157   0.0000      -0.062607        -1.7036 
 158   0.0000      -0.057787        -1.5725 
 159   0.0000      -0.056665        -1.5419 
 160   0.0000      -0.031400        -0.8544 
 161   0.0000      -0.029242        -0.7957 
 162   0.0000      -0.026576        -0.7232 
 163   0.0000      -0.016747        -0.4557 
 164   0.0000      -0.008273        -0.2251 
 165   0.0000      -0.006052        -0.1647 
 166   0.0000      -0.003090        -0.0841 
 167   0.0000       0.033097         0.9006 
 168   0.0000       0.036060         0.9812 
 169   0.0000       0.036827         1.0021 
 170   0.0000       0.041464         1.1283 
 171   0.0000       0.043254         1.1770 
 172   0.0000       0.043743         1.1903 
 173   0.0000       0.045194         1.2298 
 174   0.0000       0.047382         1.2893 
 175   0.0000       0.059799         1.6272 
 176   0.0000       0.060246         1.6394 
 177   0.0000       0.064572         1.7571 
 178   0.0000       0.067094         1.8257 
 179   0.0000       0.071775         1.9531 
 180   0.0000       0.071980         1.9587 
 181   0.0000       0.076838         2.0909 
 182   0.0000       0.081944         2.2298 
 183   0.0000       0.087917         2.3923 
 184   0.0000       0.089052         2.4232 
 185   0.0000       0.094069         2.5598 
 186   0.0000       0.096882         2.6363 
 187   0.0000       0.097903         2.6641 
 188   0.0000       0.114022         3.1027 
 189   0.0000       0.117250         3.1905 
 190   0.0000       0.126544         3.4434 
 191   0.0000       0.130199         3.5429 
 192   0.0000       0.131622         3.5816 
 193   0.0000       0.132521         3.6061 
 194   0.0000       0.137644         3.7455 
 195   0.0000       0.138825         3.7776 
 196   0.0000       0.139176         3.7872 
 197   0.0000       0.152784         4.1575 
 198   0.0000       0.154368         4.2006 
 199   0.0000       0.154549         4.2055 
 200   0.0000       0.157652         4.2899 
 201   0.0000       0.163449         4.4477 
 202   0.0000       0.173171         4.7122 
 203   0.0000       0.175762         4.7827 
 204   0.0000       0.180696         4.9170 
 205   0.0000       0.191955         5.2234 
 206   0.0000       0.197532         5.3751 
 207   0.0000       0.201654         5.4873 
 208   0.0000       0.207808         5.6547 
 209   0.0000       0.207974         5.6593 
 210   0.0000       0.210628         5.7315 
 211   0.0000       0.213785         5.8174 
 212   0.0000       0.215762         5.8712 
 213   0.0000       0.218814         5.9542 
 214   0.0000       0.222871         6.0646 
 215   0.0000       0.230208         6.2643 
 216   0.0000       0.231213         6.2916 
 217   0.0000       0.233028         6.3410 
 218   0.0000       0.241617         6.5747 
 219   0.0000       0.250316         6.8114 
 220   0.0000       0.251052         6.8315 
 221   0.0000       0.253130         6.8880 
 222   0.0000       0.263806         7.1785 
 223   0.0000       0.273691         7.4475 
 224   0.0000       0.277147         7.5416 
 225   0.0000       0.278911         7.5895 
 226   0.0000       0.282952         7.6995 
 227   0.0000       0.287944         7.8353 
 228   0.0000       0.293264         7.9801 
 229   0.0000       0.296975         8.0811 
 230   0.0000       0.301498         8.2042 
 231   0.0000       0.314042         8.5455 
 232   0.0000       0.316086         8.6011 
 233   0.0000       0.325128         8.8472 
 234   0.0000       0.325559         8.8589 
 235   0.0000       0.328302         8.9336 
 236   0.0000       0.331203         9.0125 
 237   0.0000       0.333257         9.0684 
 238   0.0000       0.339222         9.2307 
 239   0.0000       0.346093         9.4177 
 240   0.0000       0.346249         9.4219 
 241   0.0000       0.350660         9.5419 
 242   0.0000       0.357887         9.7386 
 243   0.0000       0.362553         9.8656 
 244   0.0000       0.373937        10.1753 
 245   0.0000       0.375106        10.2072 
 246   0.0000       0.376336        10.2406 
 247   0.0000       0.383905        10.4466 
 248   0.0000       0.384945        10.4749 
 249   0.0000       0.389474        10.5981 
 250   0.0000       0.399631        10.8745 
 251   0.0000       0.409556        11.1446 
 252   0.0000       0.409682        11.1480 
 253   0.0000       0.416211        11.3257 
 254   0.0000       0.417787        11.3686 
 255   0.0000       0.434186        11.8148 
 256   0.0000       0.435207        11.8426 
 257   0.0000       0.435417        11.8483 
 258   0.0000       0.437126        11.8948 
 259   0.0000       0.443922        12.0797 
 260   0.0000       0.448915        12.2156 
 261   0.0000       0.456242        12.4150 
 262   0.0000       0.459085        12.4923 
 263   0.0000       0.461199        12.5499 
 264   0.0000       0.462207        12.5773 
 265   0.0000       0.463948        12.6247 
 266   0.0000       0.472333        12.8528 
 267   0.0000       0.476361        12.9624 
 268   0.0000       0.479769        13.0552 
 269   0.0000       0.491219        13.3667 
 270   0.0000       0.495194        13.4749 
 271   0.0000       0.497216        13.5299 
 272   0.0000       0.499455        13.5909 
 273   0.0000       0.505191        13.7469 
 274   0.0000       0.506730        13.7888 
 275   0.0000       0.509753        13.8711 
 276   0.0000       0.516242        14.0477 
 277   0.0000       0.521299        14.1853 
 278   0.0000       0.521786        14.1985 
 279   0.0000       0.527485        14.3536 
 280   0.0000       0.530055        14.4235 
 281   0.0000       0.533078        14.5058 
 282   0.0000       0.539189        14.6721 
 283   0.0000       0.543894        14.8001 
 284   0.0000       0.544555        14.8181 
 285   0.0000       0.551474        15.0064 
 286   0.0000       0.552227        15.0269 
 287   0.0000       0.553214        15.0537 
 288   0.0000       0.554932        15.1005 
[...]
  5 Aus       :     2.497964  s :     2.497964
      pz      :     2.146837  p :     6.469659
      px      :     2.190953
      py      :     2.131869
      dz2     :     1.993618  d :     9.878171
      dxz     :     1.980794
      dyz     :     1.951214
      dx2y2   :     1.966474
      dxy     :     1.986073
      f0      :     0.000804  f :     0.005680
      f+1     :     0.001104
      f-1     :     0.000707
      f+2     :     0.000661
      f-2     :     0.000622
      f+3     :     0.000916
      f-3     :     0.000866
  6 Aus       :     2.494489  s :     2.494489
      pz      :     2.167956  p :     6.533798
      px      :     2.264834
      py      :     2.101008
      dz2     :     1.981121  d :     9.887524
      dxz     :     1.984020
      dyz     :     1.987957
      dx2y2   :     1.948407
      dxy     :     1.986021
      f0      :     0.000643  f :     0.006076
      f+1     :     0.001047
      f-1     :     0.000663
      f+2     :     0.000785
      f-2     :     0.000655
      f+3     :     0.001246
      f-3     :     0.001036
  7 Aus       :     2.520827  s :     2.520827
      pz      :     2.184719  p :     6.472905
      px      :     2.136857
      py      :     2.151330
      dz2     :     1.965747  d :     9.872967
      dxz     :     1.984693
      dyz     :     1.980695
      dx2y2   :     1.997708
      dxy     :     1.944124
      f0      :     0.000604  f :     0.005388
      f+1     :     0.000910
      f-1     :     0.000737
      f+2     :     0.000849
      f-2     :     0.000679
      f+3     :     0.000709
      f-3     :     0.000901
  8 Aus       :     2.518307  s :     2.518307
      pz      :     2.161947  p :     6.474796
      px      :     2.117390
      py      :     2.195459
      dz2     :     1.989665  d :     9.880818
      dxz     :     1.952054
      dyz     :     1.979599
      dx2y2   :     1.962377
      dxy     :     1.997124
      f0      :     0.000839  f :     0.005449
      f+1     :     0.000680
      f-1     :     0.000872
      f+2     :     0.000760
      f-2     :     0.000651
      f+3     :     0.000964
      f-3     :     0.000681
  9 Aus       :     2.497933  s :     2.497933
      pz      :     2.147422  p :     6.469699
      px      :     2.189439
      py      :     2.132837
      dz2     :     1.993851  d :     9.878152
      dxz     :     1.982721
      dyz     :     1.949016
      dx2y2   :     1.975321
      dxy     :     1.977243
      f0      :     0.000807  f :     0.005680
      f+1     :     0.001084
      f-1     :     0.000723
      f+2     :     0.000653
      f-2     :     0.000634
      f+3     :     0.000898
      f-3     :     0.000882
 10 Aus       :     2.518360  s :     2.518360
      pz      :     2.163680  p :     6.474735
      px      :     2.131149
      py      :     2.179906
      dz2     :     1.988701  d :     9.880903
      dxz     :     1.961279
      dyz     :     1.971952
      dx2y2   :     1.985666
      dxy     :     1.973306
      f0      :     0.000837  f :     0.005446
      f+1     :     0.000730
      f-1     :     0.000810
      f+2     :     0.000615
      f-2     :     0.000813
      f+3     :     0.000696
      f-3     :     0.000946
 11 Aus       :     2.498156  s :     2.498156
      pz      :     2.089688  p :     6.469284
      px      :     2.198899
      py      :     2.180698
      dz2     :     1.941972  d :     9.877920
      dxz     :     1.997271
      dyz     :     1.992722
      dx2y2   :     1.964871
      dxy     :     1.981084
      f0      :     0.000818  f :     0.005667
      f+1     :     0.000771
      f-1     :     0.000759
      f+2     :     0.000886
      f-2     :     0.001066
      f+3     :     0.000681
      f-3     :     0.000687
 12 Aus       :     2.481725  s :     2.481725
      pz      :     2.151772  p :     6.587411
      px      :     2.209441
      py      :     2.226198
      dz2     :     1.992501  d :     9.888336
      dxz     :     1.945132
      dyz     :     1.998108
      dx2y2   :     1.970002
      dxy     :     1.982593
      f0      :     0.000774  f :     0.007024
      f+1     :     0.001110
      f-1     :     0.000681
      f+2     :     0.001157
      f-2     :     0.000954
      f+3     :     0.001366
      f-3     :     0.000982
 13 Aus       :     2.521013  s :     2.521013
      pz      :     2.183866  p :     6.472652
      px      :     2.182970
      py      :     2.105815
      dz2     :     1.966366  d :     9.872995
      dxz     :     1.977310
      dyz     :     1.987453
      dx2y2   :     1.957612
      dxy     :     1.984255
      f0      :     0.000617  f :     0.005386
      f+1     :     0.000835
      f-1     :     0.000795
      f+2     :     0.000676
      f-2     :     0.000849
      f+3     :     0.000883
      f-3     :     0.000731
 14 Crs       :     6.240779  s :     6.240779
      pz      :     4.208013  p :    12.594574
      px      :     4.186923
      py      :     4.199638
      dz2     :     1.356982  d :     6.688833
      dxz     :     1.252126
      dyz     :     1.287466
      dx2y2   :     1.367442
      dxy     :     1.424818
      f0      :     0.000374  f :     0.002050
      f+1     :     0.000220
      f-1     :     0.000282
      f+2     :     0.000353
      f-2     :     0.000284
      f+3     :     0.000262
      f-3     :     0.000275

SPIN
  0 Aus       :     0.042871  s :     0.042871
      pz      :    -0.017810  p :    -0.008536
      px      :     0.005864
      py      :     0.003409
      dz2     :    -0.003612  d :    -0.021802
      dxz     :    -0.008822
      dyz     :    -0.009012
      dx2y2   :    -0.001621
      dxy     :     0.001265
      f0      :     0.000004  f :    -0.000044
      f+1     :    -0.000012
      f-1     :     0.000002
      f+2     :    -0.000017
      f-2     :    -0.000020
      f+3     :     0.000005
      f-3     :    -0.000004
  1 Aus       :     0.042721  s :     0.042721
      pz      :    -0.017803  p :    -0.008555
      px      :     0.007059
      py      :     0.002190
      dz2     :    -0.003402  d :    -0.021871
      dxz     :    -0.014207
      dyz     :    -0.003911
      dx2y2   :     0.002441
      dxy     :    -0.002791
      f0      :     0.000003  f :    -0.000044
      f+1     :    -0.000012
      f-1     :     0.000002
      f+2     :    -0.000012
      f-2     :    -0.000026
      f+3     :    -0.000004
      f-3     :     0.000005
  2 Aus       :    -0.038290  s :    -0.038290
      pz      :    -0.028021  p :    -0.029939
      px      :     0.010651
      py      :    -0.012569
      dz2     :     0.000847  d :     0.012047
      dxz     :    -0.006194
      dyz     :     0.000422
      dx2y2   :     0.009266
      dxy     :     0.007706
      f0      :     0.000032  f :     0.000388
      f+1     :     0.000038
      f-1     :     0.000016
      f+2     :     0.000003
      f-2     :     0.000100
      f+3     :     0.000128
      f-3     :     0.000071
  3 Aus       :    -0.052293  s :    -0.052293
      pz      :    -0.012414  p :    -0.018262
      px      :     0.005185
      py      :    -0.011033
      dz2     :     0.004481  d :     0.014774
      dxz     :     0.006024
      dyz     :     0.002015
      dx2y2   :     0.000169
      dxy     :     0.002085
      f0      :     0.000018  f :     0.000436
      f+1     :     0.000118
      f-1     :     0.000039
      f+2     :     0.000069
      f-2     :     0.000138
      f+3     :     0.000028
      f-3     :     0.000027
  4 Aus       :    -0.056228  s :    -0.056228
      pz      :    -0.006159  p :    -0.059046
      px      :    -0.022329
      py      :    -0.030558
      dz2     :     0.006695  d :     0.007620
      dxz     :     0.004635
      dyz     :     0.001956
      dx2y2   :    -0.002695
      dxy     :    -0.002971
      f0      :     0.000240  f :     0.000411
      f+1     :     0.000049
      f-1     :     0.000126
      f+2     :    -0.000003
      f-2     :     0.000006
      f+3     :    -0.000002
      f-3     :    -0.000004
  5 Aus       :    -0.055824  s :    -0.055824
      pz      :    -0.018796  p :    -0.059131
      px      :    -0.022130
      py      :    -0.018205
      dz2     :    -0.000359  d :     0.007337
      dxz     :     0.001888
      dyz     :     0.006297
      dx2y2   :     0.000830
      dxy     :    -0.001318
      f0      :     0.000035  f :     0.000407
      f+1     :     0.000011
      f-1     :     0.000087
      f+2     :     0.000112
      f-2     :     0.000075
      f+3     :     0.000043
      f-3     :     0.000045
  6 Aus       :    -0.038235  s :    -0.038235
      pz      :    -0.027855  p :    -0.029928
      px      :     0.000425
      py      :    -0.002498
      dz2     :     0.000866  d :     0.012197
      dxz     :    -0.009227
      dyz     :     0.003583
      dx2y2   :     0.012324
      dxy     :     0.004652
      f0      :     0.000034  f :     0.000389
      f+1     :     0.000005
      f-1     :     0.000046
      f+2     :     0.000095
      f-2     :     0.000011
      f+3     :     0.000071
      f-3     :     0.000126
  7 Aus       :    -0.021461  s :    -0.021461
      pz      :    -0.033991  p :    -0.048955
      px      :     0.000320
      py      :    -0.015284
      dz2     :     0.001549  d :     0.005765
      dxz     :    -0.002968
      dyz     :    -0.000405
      dx2y2   :     0.002961
      dxy     :     0.004628
      f0      :     0.000033  f :     0.000365
      f+1     :     0.000031
      f-1     :     0.000021
      f+2     :    -0.000012
      f-2     :     0.000080
      f+3     :     0.000089
      f-3     :     0.000124
  8 Aus       :    -0.046227  s :    -0.046227
      pz      :    -0.017192  p :    -0.029860
      px      :    -0.000051
      py      :    -0.012618
      dz2     :     0.000266  d :    -0.003915
      dxz     :     0.001568
      dyz     :    -0.003231
      dx2y2   :    -0.000824
      dxy     :    -0.001695
      f0      :     0.000036  f :     0.000355
      f+1     :     0.000064
      f-1     :    -0.000011
      f+2     :     0.000160
      f-2     :     0.000020
      f+3     :     0.000062
      f-3     :     0.000024
  9 Aus       :    -0.055896  s :    -0.055896
      pz      :    -0.018759  p :    -0.059066
      px      :    -0.021472
      py      :    -0.018835
      dz2     :    -0.000288  d :     0.007458
      dxz     :     0.002149
      dyz     :     0.006108
      dx2y2   :    -0.000826
      dxy     :     0.000315
      f0      :     0.000035  f :     0.000409
      f+1     :    -0.000003
      f-1     :     0.000102
      f+2     :     0.000143
      f-2     :     0.000045
      f+3     :     0.000047
      f-3     :     0.000040
 10 Aus       :    -0.046028  s :    -0.046028
      pz      :    -0.017233  p :    -0.029817
      px      :    -0.000054
      py      :    -0.012529
      dz2     :     0.000054  d :    -0.003869
      dxz     :     0.000208
      dyz     :    -0.002150
      dx2y2   :     0.000125
      dxy     :    -0.002106
      f0      :     0.000038  f :     0.000355
      f+1     :     0.000041
      f-1     :     0.000006
      f+2     :     0.000059
      f-2     :     0.000117
      f+3     :     0.000027
      f-3     :     0.000067
 11 Aus       :    -0.056099  s :    -0.056099
      pz      :    -0.006139  p :    -0.059129
      px      :    -0.022848
      py      :    -0.030141
      dz2     :     0.006718  d :     0.007541
      dxz     :     0.004030
      dyz     :     0.002427
      dx2y2   :    -0.002358
      dxy     :    -0.003276
      f0      :     0.000237  f :     0.000410
      f+1     :     0.000058
      f-1     :     0.000119
      f+2     :     0.000002
      f-2     :     0.000000
      f+3     :    -0.000003
      f-3     :    -0.000003
 12 Aus       :    -0.052207  s :    -0.052207
      pz      :    -0.012316  p :    -0.018289
      px      :     0.005517
      py      :    -0.011489
      dz2     :     0.005005  d :     0.014776
      dxz     :     0.010134
      dyz     :    -0.002345
      dx2y2   :    -0.001000
      dxy     :     0.002981
      f0      :     0.000018  f :     0.000437
      f+1     :     0.000171
      f-1     :    -0.000009
      f+2     :     0.000131
      f-2     :     0.000075
      f+3     :     0.000025
      f-3     :     0.000025
 13 Aus       :    -0.021414  s :    -0.021414
      pz      :    -0.033836  p :    -0.048920
      px      :    -0.008984
      py      :    -0.006100
      dz2     :     0.001519  d :     0.005718
      dxz     :    -0.005425
      dyz     :     0.002152
      dx2y2   :     0.003636
      dxy     :     0.003836
      f0      :     0.000034  f :     0.000364
      f+1     :     0.000007
      f-1     :     0.000042
      f+2     :     0.000055
      f-2     :     0.000017
      f+3     :     0.000108
      f-3     :     0.000101
 14 Crs       :     0.015005  s :     0.015005
      pz      :     0.011019  p :     0.036008
      px      :     0.013835
      py      :     0.011154
      dz2     :     0.577035  d :     2.862531
      dxz     :     0.434431
      dyz     :     0.429626
      dx2y2   :     0.680029
      dxy     :     0.741410
      f0      :     0.000017  f :     0.000085
      f+1     :     0.000003
      f-1     :     0.000013
      f+2     :     0.000016
      f-2     :     0.000012
      f+3     :     0.000011
      f-3     :     0.000012


                      *****************************
                      * MAYER POPULATION ANALYSIS *
                      *****************************

  NA   - Mulliken gross atomic population
  ZA   - Total nuclear charge
  QA   - Mulliken gross atomic charge
  VA   - Mayer's total valence
  BVA  - Mayer's bonded valence
  FA   - Mayer's free valence

  ATOM       NA         ZA         QA         VA         BVA        FA
  0 Au    18.6827    19.0000     0.3173     1.4753     1.4672     0.0081
  1 Au    18.6836    19.0000     0.3164     1.4753     1.4673     0.0081
  2 Au    18.6148    19.0000     0.3852     1.9422     1.9388     0.0034
  3 Au    18.8365    19.0000     0.1635     2.0900     2.0819     0.0080
  4 Au    18.3831    19.0000     0.6169     1.7229     1.7187     0.0042
  5 Au    18.3846    19.0000     0.6154     1.7226     1.7184     0.0042
  6 Au    18.6141    19.0000     0.3859     1.9409     1.9375     0.0034
  7 Au    18.3903    19.0000     0.6097     1.6972     1.6961     0.0011
  8 Au    18.4253    19.0000     0.5747     1.6886     1.6854     0.0032
  9 Au    18.3850    19.0000     0.6150     1.7234     1.7192     0.0042
 10 Au    18.4257    19.0000     0.5743     1.6885     1.6853     0.0032
 11 Au    18.3827    19.0000     0.6173     1.7222     1.7180     0.0042
 12 Au    18.8364    19.0000     0.1636     2.0908     2.0828     0.0080
 13 Au    18.3897    19.0000     0.6103     1.6958     1.6947     0.0011
 14 Cr    30.5653    24.0000    -6.5653     9.9648     7.3273     2.6375

  Mayer bond orders larger than 0.100000
B(  0-Au,  1-Au) :   0.1462 B(  0-Au,  3-Au) :   0.2664 B(  0-Au,  6-Au) :   0.2708 
B(  0-Au, 12-Au) :   0.2645 B(  0-Au, 14-Cr) :   0.4482 B(  1-Au,  2-Au) :   0.2712 
B(  1-Au,  3-Au) :   0.2634 B(  1-Au, 12-Au) :   0.2655 B(  1-Au, 14-Cr) :   0.4498 
B(  2-Au,  4-Au) :   0.1778 B(  2-Au,  9-Au) :   0.1772 B(  2-Au, 12-Au) :   0.1017 
B(  2-Au, 13-Au) :   0.2298 B(  2-Au, 14-Cr) :   0.5701 B(  3-Au,  4-Au) :   0.2192 
B(  3-Au,  5-Au) :   0.2186 B(  3-Au,  6-Au) :   0.1025 B(  3-Au, 10-Au) :   0.1041 
B(  3-Au, 14-Cr) :   0.5406 B(  4-Au,  5-Au) :   0.1239 B(  4-Au,  8-Au) :   0.1747 
B(  4-Au, 13-Au) :   0.1745 B(  4-Au, 14-Cr) :   0.5844 B(  5-Au,  6-Au) :   0.1775 
B(  5-Au,  7-Au) :   0.1753 B(  5-Au,  8-Au) :   0.1763 B(  5-Au, 14-Cr) :   0.5813 
B(  6-Au,  7-Au) :   0.2285 B(  6-Au, 11-Au) :   0.1772 B(  6-Au, 14-Cr) :   0.5694 
B(  7-Au,  8-Au) :   0.1788 B(  7-Au, 10-Au) :   0.1824 B(  7-Au, 11-Au) :   0.1754 
B(  7-Au, 14-Cr) :   0.4647 B(  8-Au, 10-Au) :   0.1988 B(  8-Au, 12-Au) :   0.1042 
B(  8-Au, 13-Au) :   0.1817 B(  8-Au, 14-Cr) :   0.4745 B(  9-Au, 10-Au) :   0.1761 
B(  9-Au, 11-Au) :   0.1251 B(  9-Au, 12-Au) :   0.2190 B(  9-Au, 13-Au) :   0.1743 
B(  9-Au, 14-Cr) :   0.5815 B( 10-Au, 11-Au) :   0.1740 B( 10-Au, 13-Au) :   0.1795 
B( 10-Au, 14-Cr) :   0.4739 B( 11-Au, 12-Au) :   0.2187 B( 11-Au, 14-Cr) :   0.5837 
B( 12-Au, 14-Cr) :   0.5411 B( 13-Au, 14-Cr) :   0.4640 

-------
TIMINGS
-------

Total SCF time: 0 days 1 hours 3 min 33 sec 

Total time                  ....    3813.244 sec
Sum of individual times     ....    3681.476 sec  ( 96.5%)

Fock matrix formation       ....    1838.588 sec  ( 48.2%)
  Split-RI-J                ....     703.282 sec  ( 38.3% of F)
  XC integration            ....     878.641 sec  ( 47.8% of F)
    Basis function eval.    ....      91.742 sec  ( 10.4% of XC)
    Density eval.           ....     327.587 sec  ( 37.3% of XC)
    XC-Functional eval.     ....      13.524 sec  (  1.5% of XC)
    XC-Potential eval.      ....     309.893 sec  ( 35.3% of XC)
Diagonalization             ....     676.291 sec  ( 17.7%)
Density matrix formation    ....      57.511 sec  (  1.5%)
Population analysis         ....       2.121 sec  (  0.1%)
Initial guess               ....       0.596 sec  (  0.0%)
Orbital Transformation      ....     189.975 sec  (  5.0%)
Orbital Orthonormalization  ....       0.419 sec  (  0.0%)
DIIS solution               ....     908.830 sec  ( 23.8%)
Grid generation             ....       5.064 sec  (  0.1%)

Maximum memory used throughout the entire SCF-calculation: 113.5 MB

-------------------------   --------------------
FINAL SINGLE POINT ENERGY     -2945.842260717556
-------------------------   --------------------


                            ***************************************
                            *     ORCA property calculations      *
                            ***************************************

                                    ---------------------
                                    Active property flags
                                    ---------------------
   (+) Dipole Moment


------------------------------------------------------------------------------
                       ORCA ELECTRIC PROPERTIES CALCULATION
------------------------------------------------------------------------------

Dipole Moment Calculation                       ... on
Quadrupole Moment Calculation                   ... off
Polarizability Calculation                      ... off
GBWName                                         ... pbeSP_job2.gbw
Electron density                                ... pbeSP_job2.scfp
The origin for moment calculation is the CENTER OF MASS  = (16.901514, 15.087642 12.925331)

-------------
DIPOLE MOMENT
-------------
                                X             Y             Z
Electronic contribution:    -15.63980       4.43729      -0.16169
Nuclear contribution   :     15.61589      -4.42875       0.16087
                        -----------------------------------------
Total Dipole Moment    :     -0.02392       0.00854      -0.00082
                        -----------------------------------------
Magnitude (a.u.)       :      0.02541
Magnitude (Debye)      :      0.06458



--------------------
Rotational spectrum 
--------------------
 
Rotational constants in cm-1:     0.001273     0.000991     0.000941 
Rotational constants in MHz :    38.154789    29.702152    28.218002 

 Dipole components along the rotational axes: 
x,y,z [a.u.] :    -0.025345     0.001775    -0.000031 
x,y,z [Debye]:    -0.064421     0.004511    -0.000079 

 

Timings for individual modules:

Sum of individual times         ...     3841.914 sec (=  64.032 min)
GTO integral calculation        ...       27.471 sec (=   0.458 min)   0.7 %
SCF iterations                  ...     3814.443 sec (=  63.574 min)  99.3 %



                             ****ORCA TERMINATED NORMALLY****
TOTAL RUN TIME: 0 days 1 hours 22 minutes 55 seconds 922 msec
