
                                 *****************
                                 * O   R   C   A *
                                 *****************

                                            #,                                       
                                            ###                                      
                                            ####                                     
                                            #####                                    
                                            ######                                   
                                           ########,                                 
                                     ,,################,,,,,                         
                               ,,#################################,,                 
                          ,,##########################################,,             
                       ,#########################################, ''#####,          
                    ,#############################################,,   '####,        
                  ,##################################################,,,,####,       
                ,###########''''           ''''###############################       
              ,#####''   ,,,,##########,,,,          '''####'''          '####       
            ,##' ,,,,###########################,,,                        '##       
           ' ,,###''''                  '''############,,,                           
         ,,##''                                '''############,,,,        ,,,,,,###''
      ,#''                                            '''#######################'''  
     '                                                          ''''####''''         
             ,#######,   #######,   ,#######,      ##                                
            ,#'     '#,  ##    ##  ,#'     '#,    #''#        ######   ,####,        
            ##       ##  ##   ,#'  ##            #'  '#       #        #'  '#        
            ##       ##  #######   ##           ,######,      #####,   #    #        
            '#,     ,#'  ##    ##  '#,     ,#' ,#      #,         ##   #,  ,#        
             '#######'   ##     ##  '#######'  #'      '#     #####' # '####'        



                  #######################################################
                  #                        -***-                        #
                  #          Department of theory and spectroscopy      #
                  #    Directorship and core code : Frank Neese         #
                  #        Max Planck Institute fuer Kohlenforschung    #
                  #                Kaiser Wilhelm Platz 1               #
                  #                 D-45470 Muelheim/Ruhr               #
                  #                      Germany                        #
                  #                                                     #
                  #                  All rights reserved                #
                  #                        -***-                        #
                  #######################################################


                         Program Version 5.0.3 -  RELEASE  -


 With contributions from (in alphabetic order):
   Daniel Aravena         : Magnetic Suceptibility
   Michael Atanasov       : Ab Initio Ligand Field Theory (pilot matlab implementation)
   Alexander A. Auer      : GIAO ZORA, VPT2 properties, NMR spectrum
   Ute Becker             : Parallelization
   Giovanni Bistoni       : ED, misc. LED, open-shell LED, HFLD
   Martin Brehm           : Molecular dynamics
   Dmytro Bykov           : SCF Hessian
   Vijay G. Chilkuri      : MRCI spin determinant printing, contributions to CSF-ICE
   Dipayan Datta          : RHF DLPNO-CCSD density
   Achintya Kumar Dutta   : EOM-CC, STEOM-CC
   Dmitry Ganyushin       : Spin-Orbit,Spin-Spin,Magnetic field MRCI
   Miquel Garcia          : C-PCM and meta-GGA Hessian, CC/C-PCM, Gaussian charge scheme
   Yang Guo               : DLPNO-NEVPT2, F12-NEVPT2, CIM, IAO-localization
   Andreas Hansen         : Spin unrestricted coupled pair/coupled cluster methods
   Benjamin Helmich-Paris : MC-RPA, TRAH-SCF, COSX integrals
   Lee Huntington         : MR-EOM, pCC
   Robert Izsak           : Overlap fitted RIJCOSX, COSX-SCS-MP3, EOM
   Marcus Kettner         : VPT2
   Christian Kollmar      : KDIIS, OOCD, Brueckner-CCSD(T), CCSD density, CASPT2, CASPT2-K
   Simone Kossmann        : Meta GGA functionals, TD-DFT gradient, OOMP2, MP2 Hessian
   Martin Krupicka        : Initial AUTO-CI
   Lucas Lang             : DCDCAS
   Marvin Lechner         : AUTO-CI (C++ implementation), FIC-MRCC
   Dagmar Lenk            : GEPOL surface, SMD
   Dimitrios Liakos       : Extrapolation schemes; Compound Job, initial MDCI parallelization
   Dimitrios Manganas     : Further ROCIS development; embedding schemes
   Dimitrios Pantazis     : SARC Basis sets
   Anastasios Papadopoulos: AUTO-CI, single reference methods and gradients
   Taras Petrenko         : DFT Hessian,TD-DFT gradient, ASA, ECA, R-Raman, ABS, FL, XAS/XES, NRVS
   Peter Pinski           : DLPNO-MP2, DLPNO-MP2 Gradient
   Christoph Reimann      : Effective Core Potentials
   Marius Retegan         : Local ZFS, SOC
   Christoph Riplinger    : Optimizer, TS searches, QM/MM, DLPNO-CCSD(T), (RO)-DLPNO pert. Triples
   Tobias Risthaus        : Range-separated hybrids, TD-DFT gradient, RPA, STAB
   Michael Roemelt        : Original ROCIS implementation
   Masaaki Saitow         : Open-shell DLPNO-CCSD energy and density
   Barbara Sandhoefer     : DKH picture change effects
   Avijit Sen             : IP-ROCIS
   Kantharuban Sivalingam : CASSCF convergence, NEVPT2, FIC-MRCI
   Bernardo de Souza      : ESD, SOC TD-DFT
   Georgi Stoychev        : AutoAux, RI-MP2 NMR, DLPNO-MP2 response
   Willem Van den Heuvel  : Paramagnetic NMR
   Boris Wezisla          : Elementary symmetry handling
   Frank Wennmohs         : Technical directorship


 We gratefully acknowledge several colleagues who have allowed us to
 interface, adapt or use parts of their codes:
   Stefan Grimme, W. Hujo, H. Kruse, P. Pracht,  : VdW corrections, initial TS optimization,
                  C. Bannwarth, S. Ehlert          DFT functionals, gCP, sTDA/sTD-DF
   Ed Valeev, F. Pavosevic, A. Kumar             : LibInt (2-el integral package), F12 methods
   Garnet Chan, S. Sharma, J. Yang, R. Olivares  : DMRG
   Ulf Ekstrom                                   : XCFun DFT Library
   Mihaly Kallay                                 : mrcc  (arbitrary order and MRCC methods)
   Jiri Pittner, Ondrej Demel                    : Mk-CCSD
   Frank Weinhold                                : gennbo (NPA and NBO analysis)
   Christopher J. Cramer and Donald G. Truhlar   : smd solvation model
   Lars Goerigk                                  : TD-DFT with DH, B97 family of functionals
   V. Asgeirsson, H. Jonsson                     : NEB implementation
   FAccTs GmbH                                   : IRC, NEB, NEB-TS, DLPNO-Multilevel, CI-OPT
                                                   MM, QMMM, 2- and 3-layer-ONIOM, Crystal-QMMM,
                                                   LR-CPCM, SF, NACMEs, symmetry and pop. for TD-DFT,
                                                   nearIR, NL-DFT gradient (VV10), updates on ESD,
                                                   ML-optimized integration grids
   S Lehtola, MJT Oliveira, MAL Marques          : LibXC Library
   Liviu Ungur et al                             : ANISO software


 Your calculation uses the libint2 library for the computation of 2-el integrals
 For citations please refer to: http://libint.valeyev.net

 Your ORCA version has been built with support for libXC version: 5.1.0
 For citations please refer to: https://tddft.org/programs/libxc/

 This ORCA versions uses:
   CBLAS   interface :  Fast vector & matrix operations
   LAPACKE interface :  Fast linear algebra routines
   SCALAPACK package :  Parallel linear algebra routines
   Shared memory     :  Shared parallel matrices
   BLAS/LAPACK       :  OpenBLAS 0.3.15  USE64BITINT DYNAMIC_ARCH NO_AFFINITY Sandybridge SINGLE_THREADED
        Core in use  :  Sandybridge
   Copyright (c) 2011-2014, The OpenBLAS Project




***************************************
The coordinates will be read from file: pbe.xyz
***************************************


================================================================================

cite the ECPs for Au [Def2-ECP] as follows:
Ce-Yb(ecp-28): M. Dolg, H. Stoll, H.Preuss, J. Chem. Phys., 1989, 90, 1730-1734.
Y-Cd(ecp-28), Hf-Hg(ecp-46): D. Andrae,U. Haeussermann, M. Dolg, H. Stoll, H. Preuss, Theor. Chim. Acta, 1990, 77, 123-141.
In-Sb(ecp-28), Tl-Bi(ecp-46): B. Metz, H. Stoll, M. Dolg, J. Chem. Phys., 2000, 113, 2563-2569.
Te-Xe(ecp-28), Po-Rn(ecp-46): K. A. Peterson, D. Figgen, E. Goll, H. Stoll, M. Dolg, J. Chem. Phys., 2003, 119, 11113-11123.
Rb(ecp-28), Cs(ecp-46): T. Leininger, A. Nicklass, W. Kuechle, H. Stoll, M. Dolg, A. Bergner, Chem. Phys. Lett., 1996, 255, 274-280.
Sr(ecp-28), Ba(ecp-46): M. Kaupp, P. V. Schleyer, H. Stoll and H. Preuss, J. Chem. Phys., 1991, 94, 1360-1366.
La(ecp-46): M. Dolg, H. Stoll, A. Savin, H. Preuss, Theor. Chim. Acta, 1989, 75, 173-194.
Lu(ecp-28): X. Cao, M. Dolg, J. Chem. Phys., 2001, 115, 7348-7355.

ECP parameters for Au [Def2-ECP] have been obtained from:
TURBOMOLE (7.0.2)

----- Orbital basis set information -----
Your calculation utilizes the basis: def2-TZVP
   F. Weigend and R. Ahlrichs, Phys. Chem. Chem. Phys. 7, 3297 (2005).

----- AuxJ basis set information -----
Your calculation utilizes the auxiliary basis: def2/J
   F. Weigend, Phys. Chem. Chem. Phys. 8, 1057 (2006).

================================================================================
                                        WARNINGS
                       Please study these warnings very carefully!
================================================================================


WARNING: your system is open-shell and RHF/RKS was chosen
  ===> : WILL SWITCH to UHF/UKS


INFO   : the flag for use of the SHARK integral package has been found!



***************************************
The coordinates will be read from file: pbe.xyz
***************************************


================================================================================

cite the ECPs for Au [Def2-ECP] as follows:
Ce-Yb(ecp-28): M. Dolg, H. Stoll, H.Preuss, J. Chem. Phys., 1989, 90, 1730-1734.
Y-Cd(ecp-28), Hf-Hg(ecp-46): D. Andrae,U. Haeussermann, M. Dolg, H. Stoll, H. Preuss, Theor. Chim. Acta, 1990, 77, 123-141.
In-Sb(ecp-28), Tl-Bi(ecp-46): B. Metz, H. Stoll, M. Dolg, J. Chem. Phys., 2000, 113, 2563-2569.
Te-Xe(ecp-28), Po-Rn(ecp-46): K. A. Peterson, D. Figgen, E. Goll, H. Stoll, M. Dolg, J. Chem. Phys., 2003, 119, 11113-11123.
Rb(ecp-28), Cs(ecp-46): T. Leininger, A. Nicklass, W. Kuechle, H. Stoll, M. Dolg, A. Bergner, Chem. Phys. Lett., 1996, 255, 274-280.
Sr(ecp-28), Ba(ecp-46): M. Kaupp, P. V. Schleyer, H. Stoll and H. Preuss, J. Chem. Phys., 1991, 94, 1360-1366.
La(ecp-46): M. Dolg, H. Stoll, A. Savin, H. Preuss, Theor. Chim. Acta, 1989, 75, 173-194.
Lu(ecp-28): X. Cao, M. Dolg, J. Chem. Phys., 2001, 115, 7348-7355.

ECP parameters for Au [Def2-ECP] have been obtained from:
TURBOMOLE (7.0.2)

----- Orbital basis set information -----
Your calculation utilizes the basis: def2-TZVP
   F. Weigend and R. Ahlrichs, Phys. Chem. Chem. Phys. 7, 3297 (2005).

----- AuxJ basis set information -----
Your calculation utilizes the auxiliary basis: def2/J
   F. Weigend, Phys. Chem. Chem. Phys. 8, 1057 (2006).

================================================================================
                                        WARNINGS
                       Please study these warnings very carefully!
================================================================================


INFO   : the flag for use of the SHARK integral package has been found!

================================================================================
                                       INPUT FILE
================================================================================
NAME = pbeSP.inp
|  1> !PBE def2-TZVP VERYSLOWCONV
|  2> !KDIIS
|  3> 
|  4> %scf
|  5>   AutoTRAHIter 200
|  6>   maxiter 400
|  7> end
|  8> 
|  9> 
| 10> %pal nprocs 6 end 
| 11> 
| 12> *xyzfile 0 6 pbe.xyz
| 13> 
| 14> $new_job
| 15> 
| 16> !PBE def2-TZVP VERYSLOWCONV
| 17> !KDIIS
| 18> 
| 19> %scf
| 20>   AutoTRAHIter 200
| 21>   maxiter 400
| 22> end
| 23>  
| 24> 
| 25> %pal nprocs 6 end 
| 26> 
| 27> *xyzfile 0 4 pbe.xyz
| 28> 
| 29> 
| 30> 
| 31> 
| 32> 
| 33>                          ****END OF INPUT****
================================================================================


                 $$$$$$$$$$$$$$$$$$$$$$$$$$$$$$$$$$$$$$$$$$$$$$ 
                 $ THERE ARE  2 JOBS TO BE PROCESSED THIS RUN $
                 $$$$$$$$$$$$$$$$$$$$$$$$$$$$$$$$$$$$$$$$$$$$$$ 




                 $$$$$$$$$$$$$$$$  JOB NUMBER  1 $$$$$$$$$$$$$$


                       ****************************
                       * Single Point Calculation *
                       ****************************

---------------------------------
CARTESIAN COORDINATES (ANGSTROEM)
---------------------------------
  Au    10.351422    6.120328    6.482670
  Au     6.299229    6.109645    6.135402
  Au    10.555741    5.004578    9.047429
  Au     8.138866    4.780001    7.697212
  Au     6.103956    6.180445    8.890519
  Au     8.512822    6.522542   10.160926
  Au    10.715059    7.796461    8.847078
  Au     6.849840    8.687263    9.784962
  Au     9.372806   10.027895    8.314208
  Au     6.691152   10.930439    8.145665
  Au     7.981644    9.953747    5.935514
  Au     6.146961    8.423550    4.595859
  Au     8.837420    7.568703    4.848143
  Au     5.536884    8.559329    7.295741
  Mn     8.273713    7.621096    7.547085

----------------------------
CARTESIAN COORDINATES (A.U.)
----------------------------
  NO LB      ZA    FRAG     MASS         X           Y           Z
   0 Au   19.0000*   0   196.966   19.561352   11.565744   12.250471
   1 Au   19.0000*   0   196.966   11.903818   11.545555   11.594229
   2 Au   19.0000*   0   196.966   19.947459    9.457282   17.097162
   3 Au   19.0000*   0   196.966   15.380229    9.032892   14.545622
   4 Au   19.0000*   0   196.966   11.534805   11.679348   16.800646
   5 Au   19.0000*   0   196.966   16.086903   12.325817   19.201367
   6 Au   19.0000*   0   196.966   20.248527   14.733176   16.718554
   7 Au   19.0000*   0   196.966   12.944321   16.416549   18.490899
   8 Au   19.0000*   0   196.966   17.712037   18.949975   15.711576
   9 Au   19.0000*   0   196.966   12.644444   20.655537   15.393076
  10 Au   19.0000*   0   196.966   15.083121   18.809855   11.216495
  11 Au   19.0000*   0   196.966   11.616073   15.918203    8.684915
  12 Au   19.0000*   0   196.966   16.700304   14.302775    9.161663
  13 Au   19.0000*   0   196.966   10.463194   16.174788   13.786952
  14 Mn   25.0000    0    54.940   15.635052   14.401785   14.261924
* core charge reduced due to ECP

--------------------------------
INTERNAL COORDINATES (ANGSTROEM)
--------------------------------
 Au     0   0   0     0.000000000000     0.00000000     0.00000000
 Au     1   0   0     4.067059540352     0.00000000     0.00000000
 Au     1   2   0     2.804394838009    98.60575215     0.00000000
 Au     2   1   3     2.755261879811    44.57163361   340.09824537
 Au     4   2   1     2.743371617029    60.32754719   124.78880589
 Au     5   4   2     2.744740488160    67.29222665   221.84504693
 Au     3   1   2     2.803592568134    62.77980159   262.05197024
 Au     6   5   4     2.755518090256    60.33713641   138.27782579
 Au     7   3   1     2.657986152146   145.24970868    69.40246309
 Au     8   6   5     2.782861161249   138.42003186   255.13296200
 Au    10   8   6     2.739355106218    99.26550790    28.65828309
 Au    11  10   8     2.739020575335   106.15559455    79.74221011
 Au     1   2   3     2.657379721484    51.77580553   200.34339589
 Au    10   8   6     2.770716137732    60.96399540    88.42418846
 Mn     9   7   3     2.754843177810    61.56534040   343.88993196

---------------------------
INTERNAL COORDINATES (A.U.)
---------------------------
 Au     0   0   0     0.000000000000     0.00000000     0.00000000
 Au     1   0   0     7.685628701617     0.00000000     0.00000000
 Au     1   2   0     5.299538215220    98.60575215     0.00000000
 Au     2   1   3     5.206690380077    44.57163361   340.09824537
 Au     4   2   1     5.184221039757    60.32754719   124.78880589
 Au     5   4   2     5.186807831309    67.29222665   221.84504693
 Au     3   1   2     5.298022144870    62.77980159   262.05197024
 Au     6   5   4     5.207174547649    60.33713641   138.27782579
 Au     7   3   1     5.022865895310   145.24970868    69.40246309
 Au     8   6   5     5.258845463487   138.42003186   255.13296200
 Au    10   8   6     5.176630934312    99.26550790    28.65828309
 Au    11  10   8     5.175998762559   106.15559455    79.74221011
 Au     1   2   3     5.021719907440    51.77580553   200.34339589
 Au    10   8   6     5.235894695150    60.96399540    88.42418846
 Mn     9   7   3     5.205899147962    61.56534040   343.88993196

---------------------
BASIS SET INFORMATION
---------------------
There are 2 groups of distinct atoms

 Group   1 Type Au  : 8s7p6d1f contracted to 6s4p3d1f pattern {311111/4111/411/1}
 Group   2 Type Mn  : 17s11p7d1f contracted to 6s4p4d1f pattern {842111/6311/4111/1}

Atom   0Au   basis set group =>   1
Atom   1Au   basis set group =>   1
Atom   2Au   basis set group =>   1
Atom   3Au   basis set group =>   1
Atom   4Au   basis set group =>   1
Atom   5Au   basis set group =>   1
Atom   6Au   basis set group =>   1
Atom   7Au   basis set group =>   1
Atom   8Au   basis set group =>   1
Atom   9Au   basis set group =>   1
Atom  10Au   basis set group =>   1
Atom  11Au   basis set group =>   1
Atom  12Au   basis set group =>   1
Atom  13Au   basis set group =>   1
Atom  14Mn   basis set group =>   2
---------------------------------
AUXILIARY/J BASIS SET INFORMATION
---------------------------------
There are 2 groups of distinct atoms

 Group   1 Type Au  : 11s5p5d3f3g contracted to 8s5p5d2f3g pattern {41111111/11111/11111/21/111}
 Group   2 Type Mn  : 19s5p5d3f3g contracted to 8s5p5d2f3g pattern {121111111/11111/11111/21/111}

Atom   0Au   basis set group =>   1
Atom   1Au   basis set group =>   1
Atom   2Au   basis set group =>   1
Atom   3Au   basis set group =>   1
Atom   4Au   basis set group =>   1
Atom   5Au   basis set group =>   1
Atom   6Au   basis set group =>   1
Atom   7Au   basis set group =>   1
Atom   8Au   basis set group =>   1
Atom   9Au   basis set group =>   1
Atom  10Au   basis set group =>   1
Atom  11Au   basis set group =>   1
Atom  12Au   basis set group =>   1
Atom  13Au   basis set group =>   1
Atom  14Mn   basis set group =>   2
-------------------------
ECP PARAMETER INFORMATION
-------------------------

 Group 1, Type Au ECP Def2-ECP (replacing 60 core electrons, lmax=3)

Atom   0Au   ECP group =>   1
Atom   1Au   ECP group =>   1
Atom   2Au   ECP group =>   1
Atom   3Au   ECP group =>   1
Atom   4Au   ECP group =>   1
Atom   5Au   ECP group =>   1
Atom   6Au   ECP group =>   1
Atom   7Au   ECP group =>   1
Atom   8Au   ECP group =>   1
Atom   9Au   ECP group =>   1
Atom  10Au   ECP group =>   1
Atom  11Au   ECP group =>   1
Atom  12Au   ECP group =>   1
Atom  13Au   ECP group =>   1



           ************************************************************
           *        Program running with 6 parallel MPI-processes     *
           *              working on a common directory               *
           ************************************************************
------------------------------------------------------------------------------
                           ORCA GTO INTEGRAL CALCULATION
                           -- RI-GTO INTEGRALS CHOSEN --
------------------------------------------------------------------------------
------------------------------------------------------------------------------
                   ___                                                        
                  /   \      - P O W E R E D   B Y -                         
                 /     \                                                     
                 |  |  |   _    _      __       _____    __    __             
                 |  |  |  | |  | |    /  \     |  _  \  |  |  /  |          
                  \  \/   | |  | |   /    \    | | | |  |  | /  /          
                 / \  \   | |__| |  /  /\  \   | |_| |  |  |/  /          
                |  |  |   |  __  | /  /__\  \  |    /   |      \           
                |  |  |   | |  | | |   __   |  |    \   |  |\   \          
                \     /   | |  | | |  |  |  |  | |\  \  |  | \   \       
                 \___/    |_|  |_| |__|  |__|  |_| \__\ |__|  \__/        
                                                                              
                      - O R C A' S   B I G   F R I E N D -                    
                                      &                                       
                       - I N T E G R A L  F E E D E R -                       
                                                                              
 v1 FN, 2020, v2 2021                                                         
------------------------------------------------------------------------------


Reading SHARK input file pbeSP.SHARKINP.tmp ... ok
----------------------
SHARK INTEGRAL PACKAGE
----------------------

Number of atoms                             ...     15
Number of basis functions                   ...    605
Number of shells                            ...    211
Maximum angular momentum                    ...      3
Integral batch strategy                     ... SHARK/LIBINT Hybrid
RI-J (if used) integral strategy            ... SPLIT-RIJ (Revised 2003 algorithm where possible)
Printlevel                                  ...      1
Contraction scheme used                     ... SEGMENTED contraction
Coulomb Range Separation                    ... NOT USED
Exchange Range Separation                   ... NOT USED
Finite Nucleus Model                        ... NOT USED
Auxiliary Coulomb fitting basis             ... AVAILABLE
   # of basis functions in Aux-J            ...   1335
   # of shells in Aux-J                     ...    345
   Maximum angular momentum in Aux-J        ...      4
Auxiliary J/K fitting basis                 ... NOT available
Auxiliary Correlation fitting basis         ... NOT available
Auxiliary 'external' fitting basis          ... NOT available
Integral threshold                          ...     1.000000e-10
Primitive cut-off                           ...     1.000000e-11
Primitive pair pre-selection threshold      ...     1.000000e-11

Calculating pre-screening integrals         ... done (  0.3 sec) Dimension = 211
Organizing shell pair data                  ... done (  0.7 sec)
Shell pair information
Total number of shell pairs                 ...     22366
Shell pairs after pre-screening             ...     17710
Total number of primitive shell pairs       ...     59609
Primitive shell pairs kept                  ...     34032
          la=0 lb=0:   2781 shell pairs
          la=1 lb=0:   4049 shell pairs
          la=1 lb=1:   1529 shell pairs
          la=2 lb=0:   3505 shell pairs
          la=2 lb=1:   2499 shell pairs
          la=2 lb=2:   1028 shell pairs
          la=3 lb=0:    911 shell pairs
          la=3 lb=1:    706 shell pairs
          la=3 lb=2:    612 shell pairs
          la=3 lb=3:     90 shell pairs

Calculating one electron integrals          ... done (  0.1 sec)
Calculating ECP integrals                   ... done ( 22.2 sec)
Calculating RI/J V-Matrix + Cholesky decomp.... done (  0.2 sec)
Calculating Nuclear repulsion               ... done (  0.0 sec) ENN=   5608.339348422588 Eh

SHARK setup successfully completed in  24.1 seconds

Maximum memory used throughout the entire GTOINT-calculation: 34.4 MB


           ************************************************************
           *        Program running with 6 parallel MPI-processes     *
           *              working on a common directory               *
           ************************************************************
-------------------------------------------------------------------------------
                                 ORCA SCF
-------------------------------------------------------------------------------

------------
SCF SETTINGS
------------
Hamiltonian:
 Density Functional     Method          .... DFT(GTOs)
 Exchange Functional    Exchange        .... PBE
   PBE kappa parameter   XKappa         ....  0.804000
   PBE mue parameter    XMuePBE         ....  0.219520
 Correlation Functional Correlation     .... PBE
   PBE beta parameter  CBetaPBE         ....  0.066725
 LDA part of GGA corr.  LDAOpt          .... PW91-LDA
 Gradients option       PostSCFGGA      .... off
   Density functional embedding theory  .... OFF
   NL short-range parameter             ....  6.400000
 RI-approximation to the Coulomb term is turned on
   Number of AuxJ basis functions       .... 1335


General Settings:
 Integral files         IntName         .... pbeSP
 Hartree-Fock type      HFTyp           .... UHF
 Total Charge           Charge          ....    0
 Multiplicity           Mult            ....    6
 Number of Electrons    NEL             ....  291
 Basis Dimension        Dim             ....  605
 Nuclear Repulsion      ENuc            ....   5608.3393484226 Eh

Convergence Acceleration:
 DIIS                   CNVDIIS         .... off
 Trust-Rad. Augm. Hess. CNVTRAH         .... auto
   Auto Start mean grad. ratio tolernc. ....  1.125000
   Auto Start start iteration           ....   200
   Auto Start num. interpolation iter.  ....    10
   Max. Number of Micro iterations      ....    16
   Max. Number of Macro iterations      .... Maxiter - #DIIS iter
   Number of Davidson start vectors     ....     2
   Converg. threshold I  (grad. norm)   ....   5.000e-05
   Converg. threshold II (energy diff.) ....   1.000e-06
   Grad. Scal. Fac. for Micro threshold ....   0.100
   Minimum threshold for Micro iter.    ....   0.010
   NR start threshold (gradient norm)   ....   0.001
   Initial trust radius                 ....   0.400
   Minimum AH scaling param. (alpha)    ....   1.000
   Maximum AH scaling param. (alpha)    .... 1000.000
   Orbital update algorithm             .... Taylor
   White noise on init. David. guess    .... on
   Maximum white noise                  ....   0.010
   Quad. conv. algorithm                .... NR
 SOSCF                  CNVSOSCF        .... off
 Level Shifting         CNVShift        .... off
 Zerner damping         CNVZerner       .... off
 Static damping         CNVDamp         .... off
 Fernandez-Rico         CNVRico         .... off

SCF Procedure:
 Maximum # iterations   MaxIter         ....   400
 SCF integral mode      SCFMode         .... Direct
   Integral package                     .... SHARK and LIBINT hybrid scheme
 Reset frequency        DirectResetFreq ....    20
 Integral Threshold     Thresh          ....  1.000e-10 Eh
 Primitive CutOff       TCut            ....  1.000e-11 Eh

Convergence Tolerance:
 Convergence Check Mode ConvCheckMode   .... All-Criteria
 Convergence forced     ConvForced      .... 0
 Energy Change          TolE            ....  1.000e-06 Eh
 Max Density Change     TolMaxP         ....  1.000e-05
 RMS Density Change     TolRMSP         ....  1.000e-06


Diagonalization of the overlap matrix:
Smallest eigenvalue                        ... 3.758e-04
Time for diagonalization                   ...    0.124 sec
Threshold for overlap eigenvalues          ... 1.000e-08
Number of eigenvalues below threshold      ... 0
Time for construction of square roots      ...    0.108 sec
Total time needed                          ...    0.235 sec

Time for model grid setup =    0.998 sec

------------------------------
INITIAL GUESS: MODEL POTENTIAL
------------------------------
Loading Hartree-Fock densities                     ... done
  calling /home/ehlert/src/miniconda3/envs/orca500/Programs/ORCA501/orca pbeSP_atom79.inp > pbeSP_atom79.out in order to generate an atomic fitting density for atom 0 (Au with ECP) on-the-fly... 
    atom 0 (Au), assumed electronic state with S=2: 1s2 2s2 2p6 3s2 3p6 4s2 3d10 4p6 5s2 4d10 5p6 6s1 4f14 5d10           ... done
Calculating cut-offs                               ... done
Initializing the effective Hamiltonian             ... done
Setting up the integral package (SHARK)            ... done
Starting the Coulomb interaction                   ... done (   1.1 sec)
Reading the grid                                   ... done
Mapping shells                                     ... done
Starting the XC term evaluation                    ... done (   1.1 sec)
  promolecular density results
     # of electrons  =   1131.015045687
     EX              =  -5172.118019475
     EC              =    -68.910402657
     EX+EC           =  -5241.028422132
Transforming the Hamiltonian                       ... done (   0.1 sec)
Diagonalizing the Hamiltonian                      ... done (   0.2 sec)
Back transforming the eigenvectors                 ... done (   0.0 sec)
Now organizing SCF variables                       ... done
                      ------------------
                      INITIAL GUESS DONE (   4.6 sec)
                      ------------------
-------------------
DFT GRID GENERATION
-------------------

General Integration Accuracy     IntAcc      ... 4.388
Radial Grid Type                 RadialGrid  ... OptM3 with GC (2021)
Angular Grid (max. ang.)         AngularGrid ... 4 (Lebedev-302)
Angular grid pruning method      GridPruning ... 4 (adaptive)
Weight generation scheme         WeightScheme... Becke
Basis function cutoff            BFCut       ... 1.0000e-10
Integration weight cutoff        WCut        ... 1.0000e-14
Angular grids for H and He will be reduced by one unit
Partially contracted basis set               ... off
Rotationally invariant grid construction     ... off

Total number of grid points                  ...   165909
Total number of batches                      ...     2599
Average number of points per batch           ...       63
Average number of grid points per atom       ...    11061
Time for grid setup =    3.054 sec

--------------
SCF ITERATIONS
--------------
ITER       Energy         Delta-E        Max-DP      RMS-DP      [F,P]   Gradient Norm
               ***  Starting incremental Fock matrix formation  ***
                             ****Resetting KDIIS****
                             ****Turning on KDIIS(Cayley)****
  0  -3050.0789762592   0.000000000000 0.41263435  0.00137920  0.4066211   0.222241434
  1  -3051.3364235602  -1.257447301015 0.51873670  0.00186429  0.2638080   0.167340222
  2  -3051.8822380632  -0.545814503066 0.19784688  0.00132665  0.2085814   0.125066299
  3  -3052.1473194765  -0.265081413254 0.15317847  0.00158607  0.1217139   0.073613345
  4  -3052.2265130503  -0.079193573810 0.07208174  0.00059153  0.0436978   0.024527068
  5  -3052.2819054783  -0.055392427950 0.26170159  0.00063334  0.0278369   0.007984843
  6  -3052.3076249168  -0.025719438562 0.08786975  0.00074572  0.0383077   0.006860309
  7  -3052.3291213246  -0.021496407826 0.02460930  0.00028320  0.0202636   0.006246869
  8  -3052.3294266671  -0.000305342460 0.03872665  0.00030836  0.0197076   0.008218545
  9  -3052.3430154309  -0.013588763790 0.03127822  0.00016133  0.0160024   0.002636439
 10  -3052.3466348229  -0.003619392007 0.03963809  0.00019019  0.0120956   0.002756350
 11  -3052.3512700755  -0.004635252644 0.02272348  0.00017446  0.0103355   0.001980477
 12  -3052.3551359106  -0.003865835055 0.00892897  0.00012553  0.0107120   0.001844479
 13  -3052.3573934904  -0.002257579754 0.01687442  0.00014679  0.0109478   0.002040473
 14  -3052.3601011448  -0.002707654405 0.01374895  0.00006451  0.0103831   0.001404806
 15  -3052.3601849854  -0.000083840688 0.01556258  0.00009343  0.0105126   0.001939567
 16  -3052.3618884798  -0.001703494382 0.01446538  0.00007046  0.0104082   0.001304517
 17  -3052.3630447388  -0.001156258958 0.00667922  0.00004305  0.0102168   0.001109091
 18  -3052.3637003737  -0.000655634900 0.00626302  0.00004434  0.0102903   0.001011689
 19  -3052.3644167588  -0.000716385147 0.00994180  0.00006858  0.0102068   0.000947731
               *** Restarting incremental Fock matrix formation ***
                             ****Resetting KDIIS****
 20  -3052.3655561134  -0.001139354588 0.00144900  0.00000931  0.0099785   0.000896414
 21  -3052.3657096559  -0.000153542518 0.00337820  0.00002188  0.0099659   0.000877057
 22  -3052.3660656552  -0.000355999266 0.02263040  0.00014559  0.0098946   0.000873377
 23  -3052.3683427154  -0.002277060220 0.11512282  0.00083980  0.0094983   0.000950176
 24  -3052.3762366106  -0.007893895184 0.04852019  0.00036972  0.0034891   0.002286382
 25  -3052.3746320119   0.001604598707 0.04412662  0.00032394  0.0057789   0.001540852
 26  -3052.3699156496   0.004716362343 0.10148869  0.00074185  0.0102656   0.003067631
 27  -3052.3772858322  -0.007370182660 0.00651008  0.00006144  0.0021080   0.000930516
 28  -3052.3775152195  -0.000229387311 0.00700220  0.00003947  0.0015484   0.000585223
 29  -3052.3775311340  -0.000015914495 0.00749261  0.00005044  0.0012544   0.000635306
 30  -3052.3774208766   0.000110257379 0.00643834  0.00005998  0.0022322   0.000814980
 31  -3052.3776054998  -0.000184623105 0.00126834  0.00001403  0.0012311   0.000279331
 32  -3052.3776260354  -0.000020535652 0.00415434  0.00003100  0.0011863   0.000248389
 33  -3052.3776609713  -0.000034935906 0.00126621  0.00001194  0.0010094   0.000407132
 34  -3052.3776707337  -0.000009762423 0.00214357  0.00001917  0.0010558   0.000198232
 35  -3052.3776957202  -0.000024986458 0.00371549  0.00002197  0.0009703   0.000247632
 36  -3052.3777122997  -0.000016579462 0.00113430  0.00001101  0.0008529   0.000380690
 37  -3052.3777146615  -0.000002361829 0.00081564  0.00000691  0.0008659   0.000167848
 38  -3052.3777216806  -0.000007019156 0.00253240  0.00002435  0.0008314   0.000159108
 39  -3052.3777484052  -0.000026724565 0.00122347  0.00001154  0.0007618   0.000165956
               *** Restarting incremental Fock matrix formation ***
                             ****Resetting KDIIS****
 40  -3052.3777385533   0.000009851877 0.00014581  0.00000140  0.0007059   0.000138117
 41  -3052.3777407100  -0.000002156695 0.00024235  0.00000216  0.0007194   0.000101793
 42  -3052.3777433464  -0.000002636339 0.00126633  0.00001177  0.0007106   0.000092481
 43  -3052.3777551222  -0.000011775825 0.00828678  0.00007565  0.0006441   0.000103265
 44  -3052.3777985572  -0.000043434978 0.00163126  0.00001160  0.0001862   0.000113470
 45  -3052.3778014316  -0.000002874448 0.00389132  0.00001034  0.0000905   0.000032062
                          ***Energy convergence achieved***
 46  -3052.3778018112  -0.000000379627 0.00027079  0.00000206  0.0000772   0.000048669
 47  -3052.3778019551  -0.000000143852 0.00036411  0.00000336  0.0000686   0.000016045
 48  -3052.3778020486  -0.000000093547 0.00031415  0.00000289  0.0000494   0.000023011
                           ***RMSP convergence achieved***

            ***Energy convergence in two consecutive cycles with***
                    ***'reasonable' density convergence***
                       *** signaling convergence ***

                    *** KDIIS BlockDiag ( 0.267 sec) ***

               *****************************************************
               *                     SUCCESS                       *
               *           SCF CONVERGED AFTER  49 CYCLES          *
               *****************************************************


----------------
TOTAL SCF ENERGY
----------------

Total Energy       :        -3052.37780226 Eh          -83059.42266 eV

Components:
Nuclear Repulsion  :         5608.33934842 Eh          152610.67225 eV
Electronic Energy  :        -8660.71715068 Eh         -235670.09491 eV
One Electron Energy:       -16132.44208151 Eh         -438986.06666 eV
Two Electron Energy:         7471.72493083 Eh          203315.97175 eV

Virial components:
Potential Energy   :        -4842.39310856 Eh         -131768.21545 eV
Kinetic Energy     :         1790.01530631 Eh           48708.79279 eV
Virial Ratio       :            2.70522441


DFT components:
N(Alpha)           :      148.000057757867 electrons
N(Beta)            :      143.000059459592 electrons
N(Total)           :      291.000117217459 electrons
E(X)               :     -219.578657989148 Eh       
E(C)               :      -12.685935312761 Eh       
E(XC)              :     -232.264593301909 Eh       
DFET-embed. en.    :        0.000000000000 Eh       

---------------
SCF CONVERGENCE
---------------

  Last Energy change         ...   -2.0839e-07  Tolerance :   1.0000e-06
  Last MAX-Density change    ...    8.1803e-05  Tolerance :   1.0000e-05
  Last RMS-Density change    ...    8.4722e-07  Tolerance :   1.0000e-06

             **** THE GBW FILE WAS UPDATED (pbeSP.gbw) ****
             **** DENSITY pbeSP.scfp WAS UPDATED ****
             **** ENERGY FILE WAS UPDATED (pbeSP.en.tmp) ****
----------------------
UHF SPIN CONTAMINATION
----------------------

Warning: in a DFT calculation there is little theoretical justification to 
         calculate <S**2> as in Hartree-Fock theory. We will do it anyways
         but you should keep in mind that the values have only limited relevance

Expectation value of <S**2>     :     8.763984
Ideal value S*(S+1) for S=2.5   :     8.750000
Deviation                       :     0.013984

             **** THE GBW FILE WAS UPDATED (pbeSP.gbw) ****
             **** DENSITY pbeSP.scfp WAS UPDATED ****
----------------
ORBITAL ENERGIES
----------------
                 SPIN UP ORBITALS
  NO   OCC          E(Eh)            E(eV) 
   0   1.0000    -234.201838     -6372.9560 
   1   1.0000     -26.895380      -731.8605 
   2   1.0000     -23.043802      -627.0537 
   3   1.0000     -23.043709      -627.0512 
   4   1.0000     -23.043224      -627.0380 
   5   1.0000      -4.035676      -109.8163 
   6   1.0000      -4.034172      -109.7754 
   7   1.0000      -4.033538      -109.7581 
   8   1.0000      -4.033371      -109.7536 
   9   1.0000      -4.031160      -109.6934 
  10   1.0000      -4.029140      -109.6385 
  11   1.0000      -4.029069      -109.6365 
  12   1.0000      -4.025447      -109.5380 
  13   1.0000      -4.025367      -109.5358 
  14   1.0000      -4.023542      -109.4861 
  15   1.0000      -4.023456      -109.4838 
  16   1.0000      -4.022843      -109.4671 
  17   1.0000      -4.022612      -109.4608 
  18   1.0000      -4.022580      -109.4600 
  19   1.0000      -3.108722       -84.5926 
  20   1.0000      -2.251973       -61.2793 
  21   1.0000      -2.250960       -61.2517 
  22   1.0000      -2.250597       -61.2419 
  23   1.0000      -2.249404       -61.2094 
  24   1.0000      -2.248681       -61.1897 
  25   1.0000      -2.248500       -61.1848 
  26   1.0000      -2.247932       -61.1693 
  27   1.0000      -2.246770       -61.1377 
  28   1.0000      -2.246237       -61.1232 
  29   1.0000      -2.245910       -61.1143 
  30   1.0000      -2.244985       -61.0892 
  31   1.0000      -2.244706       -61.0816 
  32   1.0000      -2.244419       -61.0737 
  33   1.0000      -2.244240       -61.0689 
  34   1.0000      -2.243027       -61.0359 
  35   1.0000      -2.242823       -61.0303 
  36   1.0000      -2.242680       -61.0264 
  37   1.0000      -2.242502       -61.0216 
  38   1.0000      -2.241127       -60.9842 
  39   1.0000      -2.240731       -60.9734 
  40   1.0000      -2.240580       -60.9693 
  41   1.0000      -2.239681       -60.9448 
  42   1.0000      -2.239623       -60.9432 
  43   1.0000      -2.239551       -60.9413 
  44   1.0000      -2.238871       -60.9228 
  45   1.0000      -2.237783       -60.8932 
  46   1.0000      -2.237305       -60.8802 
  47   1.0000      -2.236650       -60.8623 
  48   1.0000      -2.236605       -60.8611 
  49   1.0000      -2.236488       -60.8579 
  50   1.0000      -2.236314       -60.8532 
  51   1.0000      -2.236048       -60.8460 
  52   1.0000      -2.236005       -60.8448 
  53   1.0000      -2.235643       -60.8349 
  54   1.0000      -2.235570       -60.8329 
  55   1.0000      -2.235012       -60.8178 
  56   1.0000      -2.234692       -60.8091 
  57   1.0000      -2.234172       -60.7949 
  58   1.0000      -2.233318       -60.7717 
  59   1.0000      -2.233191       -60.7682 
  60   1.0000      -2.231638       -60.7260 
  61   1.0000      -2.230600       -60.6977 
  62   1.0000      -2.011717       -54.7416 
  63   1.0000      -2.011590       -54.7381 
  64   1.0000      -2.010849       -54.7180 
  65   1.0000      -0.431465       -11.7408 
  66   1.0000      -0.392224       -10.6730 
  67   1.0000      -0.386834       -10.5263 
  68   1.0000      -0.385441       -10.4884 
  69   1.0000      -0.375379       -10.2146 
  70   1.0000      -0.374626       -10.1941 
  71   1.0000      -0.371587       -10.1114 
  72   1.0000      -0.365397        -9.9430 
  73   1.0000      -0.364298        -9.9131 
  74   1.0000      -0.362893        -9.8748 
  75   1.0000      -0.356900        -9.7118 
  76   1.0000      -0.354724        -9.6525 
  77   1.0000      -0.349532        -9.5112 
  78   1.0000      -0.347934        -9.4678 
  79   1.0000      -0.347058        -9.4439 
  80   1.0000      -0.347036        -9.4433 
  81   1.0000      -0.344217        -9.3666 
  82   1.0000      -0.343043        -9.3347 
  83   1.0000      -0.341076        -9.2812 
  84   1.0000      -0.339092        -9.2272 
  85   1.0000      -0.338003        -9.1975 
  86   1.0000      -0.335310        -9.1242 
  87   1.0000      -0.332746        -9.0545 
  88   1.0000      -0.331464        -9.0196 
  89   1.0000      -0.331089        -9.0094 
  90   1.0000      -0.330554        -8.9948 
  91   1.0000      -0.326653        -8.8887 
  92   1.0000      -0.324582        -8.8323 
  93   1.0000      -0.317980        -8.6527 
  94   1.0000      -0.316737        -8.6188 
  95   1.0000      -0.316231        -8.6051 
  96   1.0000      -0.309969        -8.4347 
  97   1.0000      -0.307794        -8.3755 
  98   1.0000      -0.305586        -8.3154 
  99   1.0000      -0.305200        -8.3049 
 100   1.0000      -0.301633        -8.2078 
 101   1.0000      -0.296273        -8.0620 
 102   1.0000      -0.295683        -8.0459 
 103   1.0000      -0.294846        -8.0232 
 104   1.0000      -0.293946        -7.9987 
 105   1.0000      -0.290469        -7.9041 
 106   1.0000      -0.287241        -7.8162 
 107   1.0000      -0.285074        -7.7572 
 108   1.0000      -0.283435        -7.7127 
 109   1.0000      -0.282605        -7.6901 
 110   1.0000      -0.280820        -7.6415 
 111   1.0000      -0.280223        -7.6253 
 112   1.0000      -0.276709        -7.5296 
 113   1.0000      -0.274167        -7.4605 
 114   1.0000      -0.273688        -7.4474 
 115   1.0000      -0.270680        -7.3656 
 116   1.0000      -0.268806        -7.3146 
 117   1.0000      -0.267952        -7.2913 
 118   1.0000      -0.266418        -7.2496 
 119   1.0000      -0.265795        -7.2327 
 120   1.0000      -0.263786        -7.1780 
 121   1.0000      -0.263158        -7.1609 
 122   1.0000      -0.262367        -7.1394 
 123   1.0000      -0.261981        -7.1289 
 124   1.0000      -0.260828        -7.0975 
 125   1.0000      -0.260473        -7.0878 
 126   1.0000      -0.259558        -7.0629 
 127   1.0000      -0.258782        -7.0418 
 128   1.0000      -0.257630        -7.0105 
 129   1.0000      -0.257590        -7.0094 
 130   1.0000      -0.255024        -6.9395 
 131   1.0000      -0.254539        -6.9263 
 132   1.0000      -0.252383        -6.8677 
 133   1.0000      -0.250495        -6.8163 
 134   1.0000      -0.250183        -6.8078 
 135   1.0000      -0.247777        -6.7424 
 136   1.0000      -0.247086        -6.7235 
 137   1.0000      -0.246142        -6.6979 
 138   1.0000      -0.245908        -6.6915 
 139   1.0000      -0.243442        -6.6244 
 140   1.0000      -0.241451        -6.5702 
 141   1.0000      -0.237751        -6.4695 
 142   1.0000      -0.235232        -6.4010 
 143   1.0000      -0.229587        -6.2474 
 144   1.0000      -0.219527        -5.9736 
 145   1.0000      -0.212755        -5.7894 
 146   1.0000      -0.196892        -5.3577 
 147   1.0000      -0.194679        -5.2975 
 148   0.0000      -0.170934        -4.6514 
 149   0.0000      -0.144642        -3.9359 
 150   0.0000      -0.138291        -3.7631 
 151   0.0000      -0.135282        -3.6812 
 152   0.0000      -0.127013        -3.4562 
 153   0.0000      -0.122408        -3.3309 
 154   0.0000      -0.104245        -2.8366 
 155   0.0000      -0.077909        -2.1200 
 156   0.0000      -0.070279        -1.9124 
 157   0.0000      -0.069936        -1.9031 
 158   0.0000      -0.062696        -1.7060 
 159   0.0000      -0.049695        -1.3523 
 160   0.0000      -0.042754        -1.1634 
 161   0.0000      -0.042128        -1.1464 
 162   0.0000      -0.028170        -0.7665 
 163   0.0000      -0.023593        -0.6420 
 164   0.0000      -0.013631        -0.3709 
 165   0.0000       0.005650         0.1537 
 166   0.0000       0.010142         0.2760 
 167   0.0000       0.015301         0.4164 
 168   0.0000       0.016215         0.4412 
 169   0.0000       0.028234         0.7683 
 170   0.0000       0.030045         0.8176 
 171   0.0000       0.032593         0.8869 
 172   0.0000       0.041974         1.1422 
 173   0.0000       0.042610         1.1595 
 174   0.0000       0.043952         1.1960 
 175   0.0000       0.049769         1.3543 
 176   0.0000       0.050301         1.3688 
 177   0.0000       0.065230         1.7750 
 178   0.0000       0.066060         1.7976 
 179   0.0000       0.067903         1.8477 
 180   0.0000       0.069744         1.8978 
 181   0.0000       0.071183         1.9370 
 182   0.0000       0.073763         2.0072 
 183   0.0000       0.082823         2.2537 
 184   0.0000       0.088462         2.4072 
 185   0.0000       0.089350         2.4313 
 186   0.0000       0.092848         2.5265 
 187   0.0000       0.099445         2.7060 
 188   0.0000       0.109008         2.9663 
 189   0.0000       0.115314         3.1378 
 190   0.0000       0.115992         3.1563 
 191   0.0000       0.135769         3.6945 
 192   0.0000       0.140531         3.8240 
 193   0.0000       0.143798         3.9129 
 194   0.0000       0.146417         3.9842 
 195   0.0000       0.149823         4.0769 
 196   0.0000       0.151161         4.1133 
 197   0.0000       0.153272         4.1707 
 198   0.0000       0.153879         4.1873 
 199   0.0000       0.157413         4.2834 
 200   0.0000       0.163464         4.4481 
 201   0.0000       0.164351         4.4722 
 202   0.0000       0.166421         4.5285 
 203   0.0000       0.170273         4.6334 
 204   0.0000       0.172857         4.7037 
 205   0.0000       0.175850         4.7851 
 206   0.0000       0.202797         5.5184 
 207   0.0000       0.205121         5.5816 
 208   0.0000       0.211167         5.7461 
 209   0.0000       0.211212         5.7474 
 210   0.0000       0.222078         6.0430 
 211   0.0000       0.223378         6.0784 
 212   0.0000       0.224912         6.1202 
 213   0.0000       0.231726         6.3056 
 214   0.0000       0.232159         6.3174 
 215   0.0000       0.241381         6.5683 
 216   0.0000       0.243523         6.6266 
 217   0.0000       0.248120         6.7517 
 218   0.0000       0.250896         6.8272 
 219   0.0000       0.257886         7.0174 
 220   0.0000       0.263205         7.1622 
 221   0.0000       0.265894         7.2354 
 222   0.0000       0.267641         7.2829 
 223   0.0000       0.276452         7.5226 
 224   0.0000       0.276634         7.5276 
 225   0.0000       0.281374         7.6566 
 226   0.0000       0.282454         7.6860 
 227   0.0000       0.286036         7.7834 
 228   0.0000       0.288505         7.8506 
 229   0.0000       0.296301         8.0628 
 230   0.0000       0.300081         8.1656 
 231   0.0000       0.301024         8.1913 
 232   0.0000       0.315910         8.5963 
 233   0.0000       0.321031         8.7357 
 234   0.0000       0.322761         8.7828 
 235   0.0000       0.324198         8.8219 
 236   0.0000       0.325265         8.8509 
 237   0.0000       0.331488         9.0203 
 238   0.0000       0.333705         9.0806 
 239   0.0000       0.338149         9.2015 
 240   0.0000       0.343387         9.3440 
 241   0.0000       0.351470         9.5640 
 242   0.0000       0.357463         9.7271 
 243   0.0000       0.357555         9.7296 
 244   0.0000       0.362769         9.8715 
 245   0.0000       0.363686         9.8964 
 246   0.0000       0.375237        10.2107 
 247   0.0000       0.377377        10.2689 
 248   0.0000       0.390219        10.6184 
 249   0.0000       0.395502        10.7621 
 250   0.0000       0.397086        10.8052 
 251   0.0000       0.397772        10.8239 
 252   0.0000       0.400350        10.8941 
 253   0.0000       0.402160        10.9433 
 254   0.0000       0.414814        11.2877 
 255   0.0000       0.420323        11.4376 
 256   0.0000       0.421025        11.4567 
 257   0.0000       0.426827        11.6145 
 258   0.0000       0.435226        11.8431 
 259   0.0000       0.444009        12.0821 
 260   0.0000       0.445364        12.1190 
 261   0.0000       0.445593        12.1252 
 262   0.0000       0.450074        12.2471 
 263   0.0000       0.452636        12.3168 
 264   0.0000       0.459003        12.4901 
 265   0.0000       0.462236        12.5781 
 266   0.0000       0.462599        12.5880 
 267   0.0000       0.471055        12.8181 
 268   0.0000       0.473919        12.8960 
 269   0.0000       0.477275        12.9873 
 270   0.0000       0.480629        13.0786 
 271   0.0000       0.489737        13.3264 
 272   0.0000       0.495218        13.4756 
 273   0.0000       0.498781        13.5725 
 274   0.0000       0.501497        13.6464 
 275   0.0000       0.503826        13.7098 
 276   0.0000       0.506307        13.7773 
 277   0.0000       0.507381        13.8066 
 278   0.0000       0.512264        13.9394 
 279   0.0000       0.512299        13.9404 
 280   0.0000       0.521059        14.1787 
 281   0.0000       0.528768        14.3885 
 282   0.0000       0.528974        14.3941 
 283   0.0000       0.535000        14.5581 
 284   0.0000       0.546779        14.8786 
 285   0.0000       0.559909        15.2359 
 286   0.0000       0.561045        15.2668 
 287   0.0000       0.576558        15.6889 
 288   0.0000       0.589872        16.0512 
 289   0.0000       0.600104        16.3297 
 290   0.0000       0.609077        16.5738 
 291   0.0000       0.623298        16.9608 
 292   0.0000       0.645605        17.5678 
 293   0.0000       0.648524        17.6472 
 294   0.0000       0.681952        18.5568 
 295   0.0000       0.687833        18.7169 
 296   0.0000       0.700678        19.0664 
 297   0.0000       0.702877        19.1262 
 298   0.0000       0.719782        19.5863 
 299   0.0000       0.720600        19.6085 
 300   0.0000       0.727705        19.8019 
 301   0.0000       0.736255        20.0345 
 302   0.0000       0.741714        20.1831 
 303   0.0000       0.742913        20.2157 
 304   0.0000       0.751516        20.4498 
 305   0.0000       0.754205        20.5230 
 306   0.0000       0.765761        20.8374 
 307   0.0000       0.778559        21.1857 
 308   0.0000       0.782393        21.2900 
 309   0.0000       0.799324        21.7507 
 310   0.0000       0.800080        21.7713 
 311   0.0000       0.810134        22.0449 
 312   0.0000       0.828175        22.5358 
 313   0.0000       0.840351        22.8671 
 314   0.0000       0.842008        22.9122 
 315   0.0000       0.846133        23.0244 
 316   0.0000       0.848251        23.0821 
 317   0.0000       0.851720        23.1765 
 318   0.0000       0.852858        23.2075 
 319   0.0000       0.872684        23.7469 
 320   0.0000       0.879132        23.9224 
 321   0.0000       0.883310        24.0361 
 322   0.0000       0.890093        24.2207 
 323   0.0000       0.898026        24.4365 
 324   0.0000       0.911682        24.8081 
 325   0.0000       0.918136        24.9837 
 326   0.0000       0.948680        25.8149 
 327   0.0000       0.956896        26.0385 
 328   0.0000       0.976916        26.5832 
 329   0.0000       0.989459        26.9245 
 330   0.0000       1.016698        27.6658 
 331   0.0000       1.045057        28.4375 
 332   0.0000       1.052172        28.6311 
 333   0.0000       1.073401        29.2087 
 334   0.0000       1.093989        29.7689 
 335   0.0000       1.176173        32.0053 
 336   0.0000       1.184993        32.2453 
 337   0.0000       1.191714        32.4282 
 338   0.0000       1.198383        32.6097 
 339   0.0000       1.216564        33.1044 
 340   0.0000       1.218496        33.1570 
 341   0.0000       1.227561        33.4036 
 342   0.0000       1.248987        33.9867 
 343   0.0000       1.251770        34.0624 
 344   0.0000       1.276027        34.7224 
 345   0.0000       1.297131        35.2967 
 346   0.0000       1.297715        35.3126 
 347   0.0000       1.307785        35.5867 
 348   0.0000       1.313310        35.7370 
 349   0.0000       1.314180        35.7607 
 350   0.0000       1.325515        36.0691 
 351   0.0000       1.333716        36.2922 
 352   0.0000       1.349378        36.7184 
 353   0.0000       1.351284        36.7703 
 354   0.0000       1.359777        37.0014 
 355   0.0000       1.365316        37.1521 
 356   0.0000       1.370239        37.2861 
 357   0.0000       1.376219        37.4488 
 358   0.0000       1.378403        37.5083 
 359   0.0000       1.383255        37.6403 
 360   0.0000       1.395208        37.9655 
 361   0.0000       1.395631        37.9770 
 362   0.0000       1.399939        38.0943 
 363   0.0000       1.401858        38.1465 
 364   0.0000       1.409197        38.3462 
 365   0.0000       1.415288        38.5119 
 366   0.0000       1.415534        38.5186 
 367   0.0000       1.421007        38.6676 
 368   0.0000       1.421672        38.6856 
 369   0.0000       1.425047        38.7775 
 370   0.0000       1.428898        38.8823 
 371   0.0000       1.430499        38.9259 
 372   0.0000       1.433263        39.0011 
 373   0.0000       1.434855        39.0444 
 374   0.0000       1.440285        39.1921 
 375   0.0000       1.440895        39.2087 
 376   0.0000       1.448994        39.4291 
 377   0.0000       1.454104        39.5682 
 378   0.0000       1.457381        39.6573 
 379   0.0000       1.457806        39.6689 
 380   0.0000       1.460521        39.7428 
 381   0.0000       1.464761        39.8582 
 382   0.0000       1.469649        39.9912 
 383   0.0000       1.471938        40.0535 
 384   0.0000       1.472440        40.0671 
 385   0.0000       1.478057        40.2200 
 386   0.0000       1.479156        40.2499 
 387   0.0000       1.480540        40.2875 
 388   0.0000       1.481141        40.3039 
 389   0.0000       1.484769        40.4026 
 390   0.0000       1.485278        40.4165 
 391   0.0000       1.487054        40.4648 
 392   0.0000       1.488061        40.4922 
 393   0.0000       1.490161        40.5493 
 394   0.0000       1.490709        40.5642 
 395   0.0000       1.491768        40.5931 
 396   0.0000       1.493735        40.6466 
 397   0.0000       1.495716        40.7005 
 398   0.0000       1.496802        40.7300 
 399   0.0000       1.498503        40.7763 
 400   0.0000       1.499613        40.8065 
 401   0.0000       1.501624        40.8613 
 402   0.0000       1.503696        40.9177 
 403   0.0000       1.503970        40.9251 
 404   0.0000       1.504243        40.9325 
 405   0.0000       1.506609        40.9969 
 406   0.0000       1.507054        41.0090 
 407   0.0000       1.509592        41.0781 
 408   0.0000       1.511491        41.1298 
 409   0.0000       1.512196        41.1489 
 410   0.0000       1.512552        41.1586 
 411   0.0000       1.514789        41.2195 
 412   0.0000       1.515688        41.2440 
 413   0.0000       1.516604        41.2689 
 414   0.0000       1.517013        41.2800 
 415   0.0000       1.518531        41.3213 
 416   0.0000       1.521658        41.4064 
 417   0.0000       1.523344        41.4523 
 418   0.0000       1.525183        41.5023 
 419   0.0000       1.525679        41.5158 
 420   0.0000       1.527061        41.5534 
 421   0.0000       1.528541        41.5937 
 422   0.0000       1.530864        41.6569 
 423   0.0000       1.532454        41.7002 
 424   0.0000       1.532970        41.7142 
 425   0.0000       1.536127        41.8001 
 426   0.0000       1.537073        41.8259 
 427   0.0000       1.537866        41.8475 
 428   0.0000       1.538938        41.8766 
 429   0.0000       1.540601        41.9219 
 430   0.0000       1.544995        42.0415 
 431   0.0000       1.546211        42.0746 
 432   0.0000       1.548352        42.1328 
 433   0.0000       1.550212        42.1834 
 434   0.0000       1.551787        42.2263 
 435   0.0000       1.554577        42.3022 
 436   0.0000       1.557578        42.3839 
 437   0.0000       1.560426        42.4614 
 438   0.0000       1.561467        42.4897 
 439   0.0000       1.564780        42.5798 
 440   0.0000       1.566116        42.6162 
 441   0.0000       1.569680        42.7132 
 442   0.0000       1.574591        42.8468 
 443   0.0000       1.575098        42.8606 
 444   0.0000       1.576216        42.8910 
 445   0.0000       1.583356        43.0853 
 446   0.0000       1.584019        43.1033 
 447   0.0000       1.585757        43.1506 
 448   0.0000       1.590211        43.2718 
 449   0.0000       1.593645        43.3653 
 450   0.0000       1.594989        43.4019 
 451   0.0000       1.596825        43.4518 
 452   0.0000       1.599594        43.5272 
 453   0.0000       1.600141        43.5421 
 454   0.0000       1.606299        43.7096 
 455   0.0000       1.607211        43.7344 
 456   0.0000       1.612994        43.8918 
 457   0.0000       1.614610        43.9358 
 458   0.0000       1.617801        44.0226 
 459   0.0000       1.620748        44.1028 
 460   0.0000       1.623738        44.1842 
 461   0.0000       1.625773        44.2395 
 462   0.0000       1.634786        44.4848 
 463   0.0000       1.635118        44.4938 
 464   0.0000       1.637781        44.5663 
 465   0.0000       1.638552        44.5873 
 466   0.0000       1.639729        44.6193 
 467   0.0000       1.649884        44.8956 
 468   0.0000       1.661129        45.2016 
 469   0.0000       1.666122        45.3375 
 470   0.0000       1.666618        45.3510 
 471   0.0000       1.670817        45.4652 
 472   0.0000       1.675173        45.5838 
 473   0.0000       1.676355        45.6159 
 474   0.0000       1.687471        45.9184 
 475   0.0000       1.695601        46.1396 
 476   0.0000       1.704453        46.3805 
 477   0.0000       1.707226        46.4560 
 478   0.0000       1.722284        46.8657 
 479   0.0000       1.729961        47.0746 
 480   0.0000       1.743711        47.4488 
 481   0.0000       1.754431        47.7405 
 482   0.0000       1.762517        47.9605 
 483   0.0000       1.764597        48.0171 
 484   0.0000       1.768190        48.1149 
 485   0.0000       1.784346        48.5545 
 486   0.0000       1.788401        48.6649 
 487   0.0000       1.801672        49.0260 
 488   0.0000       1.804878        49.1132 
 489   0.0000       1.813677        49.3527 
 490   0.0000       1.814374        49.3716 
 491   0.0000       1.822677        49.5976 
 492   0.0000       1.833960        49.9046 
 493   0.0000       1.836008        49.9603 
 494   0.0000       1.846834        50.2549 
 495   0.0000       1.866471        50.7893 
 496   0.0000       1.877787        51.0972 
 497   0.0000       1.882467        51.2245 
 498   0.0000       1.894153        51.5425 
 499   0.0000       1.916319        52.1457 
 500   0.0000       1.917152        52.1683 
 501   0.0000       1.928925        52.4887 
 502   0.0000       1.958099        53.2826 
 503   0.0000       1.973344        53.6974 
 504   0.0000       1.988335        54.1053 
 505   0.0000       2.144691        58.3600 
 506   0.0000       2.208143        60.0866 
 507   0.0000       2.224497        60.5317 
 508   0.0000       2.226980        60.5992 
 509   0.0000       2.302009        62.6408 
 510   0.0000       2.331494        63.4432 
 511   0.0000       2.353777        64.0495 
 512   0.0000       2.381350        64.7998 
 513   0.0000       2.383952        64.8706 
 514   0.0000       2.431869        66.1745 
 515   0.0000       2.464505        67.0626 
 516   0.0000       2.475044        67.3494 
 517   0.0000       2.486125        67.6509 
 518   0.0000       2.497485        67.9600 
 519   0.0000       2.506811        68.2138 
 520   0.0000       2.542560        69.1866 
 521   0.0000       2.544433        69.2375 
 522   0.0000       3.031184        82.4827 
 523   0.0000       3.215859        87.5080 
 524   0.0000       3.242770        88.2403 
 525   0.0000       3.243936        88.2720 
 526   0.0000       3.250848        88.4601 
 527   0.0000       3.254117        88.5490 
 528   0.0000       3.254364        88.5557 
 529   0.0000       3.258802        88.6765 
 530   0.0000       3.261775        88.7574 
 531   0.0000       3.374175        91.8160 
 532   0.0000       3.420064        93.0647 
 533   0.0000       3.451670        93.9247 
 534   0.0000       3.517499        95.7160 
 535   0.0000      23.830718       648.4668 
 536   0.0000      23.847256       648.9168 
 537   0.0000      23.857523       649.1962 
 538   0.0000      24.010316       653.3539 
 539   0.0000      24.172226       657.7597 
 540   0.0000      24.620761       669.9650 
 541   0.0000      24.705471       672.2700 
 542   0.0000      24.977844       679.6817 
 543   0.0000      25.163846       684.7431 
 544   0.0000      25.251221       687.1207 
 545   0.0000      25.332610       689.3354 
 546   0.0000      25.428919       691.9561 
 547   0.0000      25.566548       695.7011 
 548   0.0000      25.612860       696.9613 
 549   0.0000      25.648254       697.9245 
 550   0.0000      25.704701       699.4605 
 551   0.0000      25.858220       703.6379 
 552   0.0000      25.864325       703.8041 
 553   0.0000      26.099489       710.2032 
 554   0.0000      26.127193       710.9571 
 555   0.0000      26.225048       713.6198 
 556   0.0000      26.251635       714.3433 
 557   0.0000      26.340943       716.7735 
 558   0.0000      26.367108       717.4855 
 559   0.0000      26.398991       718.3531 
 560   0.0000      26.529213       721.8966 
 561   0.0000      26.634715       724.7674 
 562   0.0000      26.746561       727.8109 
 563   0.0000      26.854104       730.7373 
 564   0.0000      26.931392       732.8404 
 565   0.0000      27.016468       735.1555 
 566   0.0000      27.214923       740.5557 
 567   0.0000      27.252645       741.5822 
 568   0.0000      27.353995       744.3400 
 569   0.0000      27.364804       744.6342 
 570   0.0000      27.633003       751.9322 
 571   0.0000      27.708893       753.9973 
 572   0.0000      27.841005       757.5923 
 573   0.0000      28.045351       763.1528 
 574   0.0000      28.136322       765.6283 
 575   0.0000      29.587250       805.1100 
 576   0.0000      29.862738       812.6064 
 577   0.0000      43.904785      1194.7100 
 578   0.0000      43.982761      1196.8318 
 579   0.0000      44.008668      1197.5367 
 580   0.0000      44.009713      1197.5652 
 581   0.0000      44.083908      1199.5841 
 582   0.0000      44.088415      1199.7068 
 583   0.0000      44.153936      1201.4897 
 584   0.0000      44.157988      1201.5999 
 585   0.0000      44.163680      1201.7548 
 586   0.0000      44.173304      1202.0167 
 587   0.0000      44.180634      1202.2162 
 588   0.0000      44.206124      1202.9098 
 589   0.0000      44.217560      1203.2210 
 590   0.0000      44.234139      1203.6721 
 591   0.0000     205.091084      5580.8121 
 592   0.0000     205.123882      5581.7046 
 593   0.0000     205.133469      5581.9655 
 594   0.0000     205.133749      5581.9731 
 595   0.0000     205.165940      5582.8490 
 596   0.0000     205.168328      5582.9140 
 597   0.0000     205.192692      5583.5770 
 598   0.0000     205.194049      5583.6139 
 599   0.0000     205.197595      5583.7104 
 600   0.0000     205.203016      5583.8579 
 601   0.0000     205.206009      5583.9394 
 602   0.0000     205.213436      5584.1415 
 603   0.0000     205.223875      5584.4255 
 604   0.0000     205.232420      5584.6581 

                 SPIN DOWN ORBITALS
  NO   OCC          E(Eh)            E(eV) 
   0   1.0000    -234.201119     -6372.9364 
   1   1.0000     -26.826687      -729.9913 
   2   1.0000     -22.991815      -625.6391 
   3   1.0000     -22.991366      -625.6269 
   4   1.0000     -22.991090      -625.6194 
   5   1.0000      -4.035385      -109.8084 
   6   1.0000      -4.033498      -109.7571 
   7   1.0000      -4.032919      -109.7413 
   8   1.0000      -4.032748      -109.7367 
   9   1.0000      -4.030331      -109.6709 
  10   1.0000      -4.028457      -109.6199 
  11   1.0000      -4.028379      -109.6178 
  12   1.0000      -4.024480      -109.5117 
  13   1.0000      -4.024392      -109.5093 
  14   1.0000      -4.023438      -109.4833 
  15   1.0000      -4.023353      -109.4810 
  16   1.0000      -4.022762      -109.4649 
  17   1.0000      -4.021719      -109.4365 
  18   1.0000      -4.021656      -109.4348 
  19   1.0000      -2.939781       -79.9955 
  20   1.0000      -2.251557       -61.2680 
  21   1.0000      -2.250381       -61.2360 
  22   1.0000      -2.249863       -61.2219 
  23   1.0000      -2.249072       -61.2003 
  24   1.0000      -2.247945       -61.1697 
  25   1.0000      -2.247875       -61.1678 
  26   1.0000      -2.247429       -61.1557 
  27   1.0000      -2.246175       -61.1215 
  28   1.0000      -2.245541       -61.1043 
  29   1.0000      -2.245277       -61.0971 
  30   1.0000      -2.244319       -61.0710 
  31   1.0000      -2.244131       -61.0659 
  32   1.0000      -2.243557       -61.0503 
  33   1.0000      -2.243242       -61.0417 
  34   1.0000      -2.242281       -61.0156 
  35   1.0000      -2.242087       -61.0103 
  36   1.0000      -2.241742       -61.0009 
  37   1.0000      -2.241579       -60.9965 
  38   1.0000      -2.240182       -60.9584 
  39   1.0000      -2.240152       -60.9576 
  40   1.0000      -2.239614       -60.9430 
  41   1.0000      -2.239016       -60.9267 
  42   1.0000      -2.238384       -60.9095 
  43   1.0000      -2.238333       -60.9081 
  44   1.0000      -2.238297       -60.9072 
  45   1.0000      -2.237152       -60.8760 
  46   1.0000      -2.236688       -60.8634 
  47   1.0000      -2.236452       -60.8569 
  48   1.0000      -2.236328       -60.8536 
  49   1.0000      -2.236177       -60.8495 
  50   1.0000      -2.235909       -60.8422 
  51   1.0000      -2.235690       -60.8362 
  52   1.0000      -2.235628       -60.8345 
  53   1.0000      -2.235132       -60.8210 
  54   1.0000      -2.235010       -60.8177 
  55   1.0000      -2.234756       -60.8108 
  56   1.0000      -2.233755       -60.7836 
  57   1.0000      -2.233731       -60.7829 
  58   1.0000      -2.232501       -60.7494 
  59   1.0000      -2.232364       -60.7457 
  60   1.0000      -2.230932       -60.7068 
  61   1.0000      -2.229857       -60.6775 
  62   1.0000      -1.845966       -50.2313 
  63   1.0000      -1.845404       -50.2160 
  64   1.0000      -1.845056       -50.2065 
  65   1.0000      -0.424919       -11.5626 
  66   1.0000      -0.390409       -10.6236 
  67   1.0000      -0.384084       -10.4514 
  68   1.0000      -0.383279       -10.4295 
  69   1.0000      -0.371534       -10.1100 
  70   1.0000      -0.370986       -10.0950 
  71   1.0000      -0.367987       -10.0134 
  72   1.0000      -0.361370        -9.8334 
  73   1.0000      -0.360745        -9.8164 
  74   1.0000      -0.357417        -9.7258 
  75   1.0000      -0.355681        -9.6786 
  76   1.0000      -0.352781        -9.5996 
  77   1.0000      -0.348371        -9.4797 
  78   1.0000      -0.346209        -9.4208 
  79   1.0000      -0.345494        -9.4014 
  80   1.0000      -0.345280        -9.3955 
  81   1.0000      -0.342998        -9.3334 
  82   1.0000      -0.340419        -9.2633 
  83   1.0000      -0.337275        -9.1777 
  84   1.0000      -0.337150        -9.1743 
  85   1.0000      -0.334664        -9.1067 
  86   1.0000      -0.334567        -9.1040 
  87   1.0000      -0.331983        -9.0337 
  88   1.0000      -0.331038        -9.0080 
  89   1.0000      -0.326579        -8.8867 
  90   1.0000      -0.324147        -8.8205 
  91   1.0000      -0.317761        -8.6467 
  92   1.0000      -0.316036        -8.5998 
  93   1.0000      -0.315265        -8.5788 
  94   1.0000      -0.314143        -8.5483 
  95   1.0000      -0.312903        -8.5145 
  96   1.0000      -0.307269        -8.3612 
  97   1.0000      -0.305218        -8.3054 
  98   1.0000      -0.302658        -8.2357 
  99   1.0000      -0.299884        -8.1603 
 100   1.0000      -0.299588        -8.1522 
 101   1.0000      -0.293937        -7.9984 
 102   1.0000      -0.291596        -7.9347 
 103   1.0000      -0.290471        -7.9041 
 104   1.0000      -0.288568        -7.8523 
 105   1.0000      -0.285778        -7.7764 
 106   1.0000      -0.285545        -7.7701 
 107   1.0000      -0.282682        -7.6922 
 108   1.0000      -0.281344        -7.6558 
 109   1.0000      -0.279691        -7.6108 
 110   1.0000      -0.279501        -7.6056 
 111   1.0000      -0.278029        -7.5656 
 112   1.0000      -0.274971        -7.4823 
 113   1.0000      -0.273203        -7.4342 
 114   1.0000      -0.272827        -7.4240 
 115   1.0000      -0.267727        -7.2852 
 116   1.0000      -0.267324        -7.2743 
 117   1.0000      -0.266373        -7.2484 
 118   1.0000      -0.264579        -7.1996 
 119   1.0000      -0.263621        -7.1735 
 120   1.0000      -0.261903        -7.1267 
 121   1.0000      -0.261542        -7.1169 
 122   1.0000      -0.260327        -7.0839 
 123   1.0000      -0.260133        -7.0786 
 124   1.0000      -0.258984        -7.0473 
 125   1.0000      -0.258472        -7.0334 
 126   1.0000      -0.257923        -7.0184 
 127   1.0000      -0.256643        -6.9836 
 128   1.0000      -0.255076        -6.9410 
 129   1.0000      -0.253264        -6.8917 
 130   1.0000      -0.252293        -6.8652 
 131   1.0000      -0.250508        -6.8167 
 132   1.0000      -0.249211        -6.7814 
 133   1.0000      -0.248182        -6.7534 
 134   1.0000      -0.245440        -6.6788 
 135   1.0000      -0.243503        -6.6261 
 136   1.0000      -0.242105        -6.5880 
 137   1.0000      -0.238651        -6.4940 
 138   1.0000      -0.229047        -6.2327 
 139   1.0000      -0.222657        -6.0588 
 140   1.0000      -0.217679        -5.9233 
 141   1.0000      -0.208753        -5.6805 
 142   1.0000      -0.202619        -5.5135 
 143   0.0000      -0.176247        -4.7959 
 144   0.0000      -0.142601        -3.8804 
 145   0.0000      -0.140786        -3.8310 
 146   0.0000      -0.133746        -3.6394 
 147   0.0000      -0.128467        -3.4958 
 148   0.0000      -0.124266        -3.3815 
 149   0.0000      -0.123898        -3.3714 
 150   0.0000      -0.121839        -3.3154 
 151   0.0000      -0.121770        -3.3135 
 152   0.0000      -0.120668        -3.2835 
 153   0.0000      -0.119420        -3.2496 
 154   0.0000      -0.098574        -2.6823 
 155   0.0000      -0.071767        -1.9529 
 156   0.0000      -0.066067        -1.7978 
 157   0.0000      -0.065009        -1.7690 
 158   0.0000      -0.060924        -1.6578 
 159   0.0000      -0.044608        -1.2138 
 160   0.0000      -0.037701        -1.0259 
 161   0.0000      -0.037320        -1.0155 
 162   0.0000      -0.023305        -0.6342 
 163   0.0000      -0.021778        -0.5926 
 164   0.0000      -0.011636        -0.3166 
 165   0.0000       0.011420         0.3107 
 166   0.0000       0.017570         0.4781 
 167   0.0000       0.019695         0.5359 
 168   0.0000       0.019921         0.5421 
 169   0.0000       0.030947         0.8421 
 170   0.0000       0.033456         0.9104 
 171   0.0000       0.039239         1.0677 
 172   0.0000       0.043165         1.1746 
 173   0.0000       0.046325         1.2606 
 174   0.0000       0.046826         1.2742 
 175   0.0000       0.051870         1.4114 
 176   0.0000       0.052185         1.4200 
 177   0.0000       0.067005         1.8233 
 178   0.0000       0.068248         1.8571 
 179   0.0000       0.069696         1.8965 
 180   0.0000       0.072468         1.9720 
 181   0.0000       0.074542         2.0284 
 182   0.0000       0.076477         2.0810 
 183   0.0000       0.084522         2.3000 
 184   0.0000       0.090790         2.4705 
 185   0.0000       0.094283         2.5656 
 186   0.0000       0.097594         2.6557 
 187   0.0000       0.102287         2.7834 
 188   0.0000       0.113027         3.0756 
 189   0.0000       0.117507         3.1975 
 190   0.0000       0.118642         3.2284 
 191   0.0000       0.137418         3.7393 
 192   0.0000       0.143081         3.8934 
 193   0.0000       0.148191         4.0325 
 194   0.0000       0.148507         4.0411 
 195   0.0000       0.155972         4.2442 
 196   0.0000       0.157216         4.2781 
 197   0.0000       0.160556         4.3690 
 198   0.0000       0.160634         4.3711 
 199   0.0000       0.167025         4.5450 
 200   0.0000       0.167953         4.5702 
 201   0.0000       0.169521         4.6129 
 202   0.0000       0.170495         4.6394 
 203   0.0000       0.176543         4.8040 
 204   0.0000       0.178622         4.8606 
 205   0.0000       0.186399         5.0722 
 206   0.0000       0.204061         5.5528 
 207   0.0000       0.207506         5.6465 
 208   0.0000       0.212491         5.7822 
 209   0.0000       0.213504         5.8097 
 210   0.0000       0.223507         6.0819 
 211   0.0000       0.225407         6.1336 
 212   0.0000       0.226865         6.1733 
 213   0.0000       0.233363         6.3501 
 214   0.0000       0.233598         6.3565 
 215   0.0000       0.242953         6.6111 
 216   0.0000       0.244885         6.6637 
 217   0.0000       0.249405         6.7867 
 218   0.0000       0.251971         6.8565 
 219   0.0000       0.259430         7.0594 
 220   0.0000       0.267286         7.2732 
 221   0.0000       0.267925         7.2906 
 222   0.0000       0.269787         7.3413 
 223   0.0000       0.278065         7.5665 
 224   0.0000       0.279267         7.5992 
 225   0.0000       0.282602         7.6900 
 226   0.0000       0.283897         7.7252 
 227   0.0000       0.287489         7.8230 
 228   0.0000       0.289676         7.8825 
 229   0.0000       0.297561         8.0971 
 230   0.0000       0.301927         8.2159 
 231   0.0000       0.302394         8.2286 
 232   0.0000       0.319318         8.6891 
 233   0.0000       0.322652         8.7798 
 234   0.0000       0.324280         8.8241 
 235   0.0000       0.326196         8.8762 
 236   0.0000       0.329861         8.9760 
 237   0.0000       0.332858         9.0575 
 238   0.0000       0.336232         9.1493 
 239   0.0000       0.339502         9.2383 
 240   0.0000       0.344651         9.3784 
 241   0.0000       0.353046         9.6069 
 242   0.0000       0.358536         9.7563 
 243   0.0000       0.359627         9.7860 
 244   0.0000       0.364053         9.9064 
 245   0.0000       0.365354         9.9418 
 246   0.0000       0.376820        10.2538 
 247   0.0000       0.380310        10.3488 
 248   0.0000       0.391816        10.6619 
 249   0.0000       0.396998        10.8029 
 250   0.0000       0.399309        10.8657 
 251   0.0000       0.400614        10.9013 
 252   0.0000       0.402951        10.9649 
 253   0.0000       0.403911        10.9910 
 254   0.0000       0.417569        11.3626 
 255   0.0000       0.421816        11.4782 
 256   0.0000       0.423453        11.5228 
 257   0.0000       0.430405        11.7119 
 258   0.0000       0.439442        11.9578 
 259   0.0000       0.446616        12.1531 
 260   0.0000       0.447706        12.1827 
 261   0.0000       0.448658        12.2086 
 262   0.0000       0.454617        12.3707 
 263   0.0000       0.458042        12.4640 
 264   0.0000       0.464855        12.6494 
 265   0.0000       0.465630        12.6704 
 266   0.0000       0.468879        12.7589 
 267   0.0000       0.475652        12.9432 
 268   0.0000       0.480318        13.0701 
 269   0.0000       0.483954        13.1691 
 270   0.0000       0.484095        13.1729 
 271   0.0000       0.492355        13.3976 
 272   0.0000       0.497752        13.5445 
 273   0.0000       0.500507        13.6195 
 274   0.0000       0.504885        13.7386 
 275   0.0000       0.505641        13.7592 
 276   0.0000       0.507664        13.8143 
 277   0.0000       0.509948        13.8764 
 278   0.0000       0.513762        13.9802 
 279   0.0000       0.515328        14.0228 
 280   0.0000       0.524247        14.2655 
 281   0.0000       0.530176        14.4268 
 282   0.0000       0.534704        14.5500 
 283   0.0000       0.538821        14.6621 
 284   0.0000       0.550164        14.9707 
 285   0.0000       0.561501        15.2792 
 286   0.0000       0.563324        15.3288 
 287   0.0000       0.578150        15.7322 
 288   0.0000       0.591761        16.1026 
 289   0.0000       0.602114        16.3843 
 290   0.0000       0.618123        16.8200 
 291   0.0000       0.632334        17.2067 
 292   0.0000       0.652341        17.7511 
 293   0.0000       0.656105        17.8535 
 294   0.0000       0.693582        18.8733 
 295   0.0000       0.693937        18.8830 
 296   0.0000       0.707477        19.2514 
 297   0.0000       0.708706        19.2849 
 298   0.0000       0.725768        19.7492 
 299   0.0000       0.726168        19.7600 
 300   0.0000       0.733137        19.9497 
 301   0.0000       0.737635        20.0721 
 302   0.0000       0.744162        20.2497 
 303   0.0000       0.745271        20.2798 
 304   0.0000       0.756225        20.5779 
 305   0.0000       0.762035        20.7360 
 306   0.0000       0.774509        21.0755 
 307   0.0000       0.783123        21.3099 
 308   0.0000       0.786444        21.4002 
 309   0.0000       0.801323        21.8051 
 310   0.0000       0.806447        21.9446 
 311   0.0000       0.815505        22.1910 
 312   0.0000       0.831171        22.6173 
 313   0.0000       0.841804        22.9067 
 314   0.0000       0.848137        23.0790 
 315   0.0000       0.848515        23.0893 
[...]
      f+1     :     0.000834
      f-1     :     0.000774
      f+2     :     0.001099
      f-2     :     0.000852
      f+3     :     0.000966
      f-3     :     0.000971
  5 Aus       :     2.555927  s :     2.555927
      pz      :     2.110711  p :     6.534787
      px      :     2.247492
      py      :     2.176583
      dz2     :     1.956439  d :     9.888322
      dxz     :     1.996664
      dyz     :     1.982260
      dx2y2   :     1.976368
      dxy     :     1.976591
      f0      :     0.000757  f :     0.006274
      f+1     :     0.000761
      f-1     :     0.000690
      f+2     :     0.000853
      f-2     :     0.001123
      f+3     :     0.001047
      f-3     :     0.001043
  6 Aus       :     2.609483  s :     2.609483
      pz      :     2.132187  p :     6.490247
      px      :     2.096259
      py      :     2.261801
      dz2     :     1.982147  d :     9.858820
      dxz     :     1.969516
      dyz     :     1.978079
      dx2y2   :     1.959164
      dxy     :     1.969916
      f0      :     0.000603  f :     0.005748
      f+1     :     0.000442
      f-1     :     0.000985
      f+2     :     0.000675
      f-2     :     0.000740
      f+3     :     0.001054
      f-3     :     0.001249
  7 Aus       :     2.576664  s :     2.576664
      pz      :     2.137644  p :     6.531517
      px      :     2.149503
      py      :     2.244369
      dz2     :     1.970763  d :     9.856849
      dxz     :     1.965269
      dyz     :     1.980652
      dx2y2   :     1.975902
      dxy     :     1.964263
      f0      :     0.000824  f :     0.005887
      f+1     :     0.000721
      f-1     :     0.000891
      f+2     :     0.000964
      f-2     :     0.000746
      f+3     :     0.000894
      f-3     :     0.000848
  8 Aus       :     2.639107  s :     2.639107
      pz      :     2.128747  p :     6.462630
      px      :     2.197983
      py      :     2.135901
      dz2     :     1.961492  d :     9.837370
      dxz     :     1.981824
      dyz     :     1.969964
      dx2y2   :     1.983363
      dxy     :     1.940727
      f0      :     0.000593  f :     0.005465
      f+1     :     0.000993
      f-1     :     0.000619
      f+2     :     0.000531
      f-2     :     0.000712
      f+3     :     0.001030
      f-3     :     0.000987
  9 Aus       :     2.656798  s :     2.656798
      pz      :     2.135598  p :     6.383798
      px      :     2.142662
      py      :     2.105537
      dz2     :     1.973263  d :     9.882315
      dxz     :     1.975203
      dyz     :     1.975365
      dx2y2   :     1.974877
      dxy     :     1.983607
      f0      :     0.000593  f :     0.005161
      f+1     :     0.000700
      f-1     :     0.000754
      f+2     :     0.000808
      f-2     :     0.000755
      f+3     :     0.000733
      f-3     :     0.000818
 10 Aus       :     2.541777  s :     2.541777
      pz      :     2.226252  p :     6.576701
      px      :     2.187903
      py      :     2.162546
      dz2     :     1.989668  d :     9.887229
      dxz     :     1.981761
      dyz     :     1.952156
      dx2y2   :     1.975968
      dxy     :     1.987677
      f0      :     0.000969  f :     0.007070
      f+1     :     0.001356
      f-1     :     0.000933
      f+2     :     0.000988
      f-2     :     0.001310
      f+3     :     0.000738
      f-3     :     0.000776
 11 Aus       :     2.657248  s :     2.657248
      pz      :     2.111206  p :     6.382091
      px      :     2.141257
      py      :     2.129628
      dz2     :     1.975915  d :     9.882071
      dxz     :     1.978071
      dyz     :     1.980812
      dx2y2   :     1.969047
      dxy     :     1.978226
      f0      :     0.001025  f :     0.005160
      f+1     :     0.000716
      f-1     :     0.000681
      f+2     :     0.000702
      f-2     :     0.000729
      f+3     :     0.000582
      f-3     :     0.000725
 12 Aus       :     2.637972  s :     2.637972
      pz      :     2.098607  p :     6.464121
      px      :     2.202925
      py      :     2.162589
      dz2     :     1.948227  d :     9.837899
      dxz     :     1.959364
      dyz     :     1.975810
      dx2y2   :     1.971809
      dxy     :     1.982690
      f0      :     0.000739  f :     0.005480
      f+1     :     0.000740
      f-1     :     0.000658
      f+2     :     0.000703
      f-2     :     0.001004
      f+3     :     0.000790
      f-3     :     0.000845
 13 Aus       :     2.507194  s :     2.507194
      pz      :     2.257266  p :     6.586359
      px      :     2.093454
      py      :     2.235640
      dz2     :     1.981860  d :     9.922468
      dxz     :     1.997191
      dyz     :     1.986823
      dx2y2   :     1.964486
      dxy     :     1.992108
      f0      :     0.001375  f :     0.006598
      f+1     :     0.001061
      f-1     :     0.000820
      f+2     :     0.000961
      f-2     :     0.000784
      f+3     :     0.000850
      f-3     :     0.000746
 14 Mns       :     6.271769  s :     6.271769
      pz      :     4.185848  p :    12.541350
      px      :     4.179295
      py      :     4.176207
      dz2     :     1.380989  d :     6.696252
      dxz     :     1.351313
      dyz     :     1.317011
      dx2y2   :     1.318169
      dxy     :     1.328769
      f0      :     0.000142  f :     0.000792
      f+1     :     0.000097
      f-1     :     0.000107
      f+2     :     0.000106
      f-2     :     0.000114
      f+3     :     0.000101
      f-3     :     0.000126

SPIN
  0 Aus       :    -0.031907  s :    -0.031907
      pz      :     0.001330  p :    -0.021198
      px      :    -0.015903
      py      :    -0.006625
      dz2     :     0.002492  d :     0.012993
      dxz     :     0.003863
      dyz     :    -0.000658
      dx2y2   :     0.002720
      dxy     :     0.004575
      f0      :     0.000042  f :     0.000263
      f+1     :     0.000034
      f-1     :     0.000019
      f+2     :     0.000007
      f-2     :     0.000075
      f+3     :     0.000028
      f-3     :     0.000058
  1 Aus       :    -0.029725  s :    -0.029725
      pz      :    -0.039326  p :    -0.051693
      px      :    -0.005831
      py      :    -0.006536
      dz2     :    -0.001144  d :    -0.013707
      dxz     :    -0.004718
      dyz     :    -0.016054
      dx2y2   :     0.001448
      dxy     :     0.006761
      f0      :     0.000005  f :     0.000141
      f+1     :     0.000005
      f-1     :     0.000001
      f+2     :     0.000001
      f-2     :     0.000073
      f+3     :     0.000016
      f-3     :     0.000039
  2 Aus       :     0.015155  s :     0.015155
      pz      :    -0.005582  p :    -0.033483
      px      :    -0.020835
      py      :    -0.007066
      dz2     :    -0.002259  d :    -0.032799
      dxz     :    -0.000290
      dyz     :    -0.010624
      dx2y2   :    -0.018370
      dxy     :    -0.001257
      f0      :    -0.000017  f :    -0.000123
      f+1     :    -0.000013
      f-1     :    -0.000003
      f+2     :    -0.000027
      f-2     :    -0.000029
      f+3     :    -0.000014
      f-3     :    -0.000020
  3 Aus       :    -0.032972  s :    -0.032972
      pz      :    -0.021827  p :    -0.020770
      px      :    -0.001009
      py      :     0.002066
      dz2     :    -0.008788  d :    -0.003172
      dxz     :    -0.005170
      dyz     :    -0.001418
      dx2y2   :     0.010910
      dxy     :     0.001294
      f0      :    -0.000011  f :     0.000130
      f+1     :    -0.000005
      f-1     :     0.000045
      f+2     :     0.000014
      f-2     :    -0.000022
      f+3     :     0.000029
      f-3     :     0.000081
  4 Aus       :    -0.064583  s :    -0.064583
      pz      :    -0.001923  p :    -0.045477
      px      :    -0.026254
      py      :    -0.017301
      dz2     :    -0.000613  d :    -0.004786
      dxz     :     0.003507
      dyz     :    -0.006429
      dx2y2   :    -0.004749
      dxy     :     0.003497
      f0      :     0.000004  f :     0.000082
      f+1     :    -0.000001
      f-1     :     0.000000
      f+2     :     0.000004
      f-2     :     0.000049
      f+3     :    -0.000005
      f-3     :     0.000031
  5 Aus       :    -0.033991  s :    -0.033991
      pz      :     0.001427  p :    -0.021302
      px      :    -0.005211
      py      :    -0.017517
      dz2     :     0.013195  d :    -0.002709
      dxz     :    -0.003149
      dyz     :     0.001108
      dx2y2   :    -0.013714
      dxy     :    -0.000149
      f0      :     0.000067  f :     0.000133
      f+1     :     0.000027
      f-1     :     0.000098
      f+2     :    -0.000004
      f-2     :     0.000001
      f+3     :    -0.000027
      f-3     :    -0.000029
  6 Aus       :    -0.033830  s :    -0.033830
      pz      :    -0.014210  p :    -0.021421
      px      :    -0.008331
      py      :     0.001120
      dz2     :     0.000171  d :     0.013705
      dxz     :     0.005719
      dyz     :    -0.005963
      dx2y2   :     0.011787
      dxy     :     0.001992
      f0      :     0.000023  f :     0.000268
      f+1     :     0.000042
      f-1     :    -0.000008
      f+2     :     0.000097
      f-2     :    -0.000005
      f+3     :     0.000083
      f-3     :     0.000036
  7 Aus       :    -0.028278  s :    -0.028278
      pz      :    -0.008362  p :    -0.051860
      px      :    -0.017624
      py      :    -0.025874
      dz2     :     0.001589  d :    -0.013859
      dxz     :    -0.000264
      dyz     :    -0.002801
      dx2y2   :    -0.006692
      dxy     :    -0.005691
      f0      :     0.000023  f :     0.000141
      f+1     :     0.000064
      f-1     :     0.000018
      f+2     :     0.000015
      f-2     :     0.000042
      f+3     :    -0.000009
      f-3     :    -0.000012
  8 Aus       :     0.006236  s :     0.006236
      pz      :    -0.043147  p :    -0.055159
      px      :    -0.010214
      py      :    -0.001798
      dz2     :    -0.015540  d :    -0.002776
      dxz     :    -0.013152
      dyz     :     0.007060
      dx2y2   :     0.004907
      dxy     :     0.013949
      f0      :     0.000034  f :     0.000255
      f+1     :    -0.000031
      f-1     :     0.000025
      f+2     :     0.000047
      f-2     :     0.000033
      f+3     :     0.000093
      f-3     :     0.000055
  9 Aus       :    -0.012449  s :    -0.012449
      pz      :    -0.040887  p :    -0.062850
      px      :    -0.014217
      py      :    -0.007746
      dz2     :    -0.001394  d :    -0.049653
      dxz     :    -0.013884
      dyz     :    -0.011440
      dx2y2   :    -0.012808
      dxy     :    -0.010127
      f0      :    -0.000008  f :    -0.000148
      f+1     :    -0.000044
      f-1     :    -0.000020
      f+2     :    -0.000005
      f-2     :    -0.000033
      f+3     :    -0.000023
      f-3     :    -0.000015
 10 Aus       :    -0.116536  s :    -0.116536
      pz      :    -0.000747  p :    -0.010025
      px      :    -0.006718
      py      :    -0.002560
      dz2     :    -0.002073  d :     0.006134
      dxz     :     0.001059
      dyz     :     0.001370
      dx2y2   :     0.004024
      dxy     :     0.001754
      f0      :     0.000004  f :     0.000168
      f+1     :    -0.000001
      f-1     :     0.000037
      f+2     :     0.000066
      f-2     :     0.000017
      f+3     :     0.000013
      f-3     :     0.000031
 11 Aus       :    -0.011964  s :    -0.011964
      pz      :    -0.014377  p :    -0.063809
      px      :    -0.016632
      py      :    -0.032801
      dz2     :    -0.014011  d :    -0.050435
      dxz     :    -0.005813
      dyz     :    -0.009714
      dx2y2   :    -0.009858
      dxy     :    -0.011040
      f0      :    -0.000011  f :    -0.000151
      f+1     :    -0.000019
      f-1     :    -0.000022
      f+2     :    -0.000032
      f-2     :    -0.000048
      f+3     :    -0.000004
      f-3     :    -0.000014
 12 Aus       :     0.005951  s :     0.005951
      pz      :     0.002214  p :    -0.054851
      px      :    -0.018427
      py      :    -0.038639
      dz2     :     0.014189  d :    -0.003125
      dxz     :     0.010319
      dyz     :    -0.002784
      dx2y2   :    -0.020453
      dxy     :    -0.004396
      f0      :     0.000166  f :     0.000252
      f+1     :     0.000097
      f-1     :     0.000049
      f+2     :    -0.000014
      f-2     :    -0.000019
      f+3     :    -0.000018
      f-3     :    -0.000008
 13 Aus       :    -0.074016  s :    -0.074016
      pz      :     0.000250  p :    -0.008468
      px      :    -0.007967
      py      :    -0.000752
      dz2     :     0.000061  d :    -0.015326
      dxz     :    -0.000775
      dyz     :    -0.025884
      dx2y2   :     0.008050
      dxy     :     0.003224
      f0      :     0.000022  f :     0.000114
      f+1     :     0.000027
      f-1     :     0.000003
      f+2     :    -0.000009
      f-2     :    -0.000026
      f+3     :     0.000032
      f-3     :     0.000064
 14 Mns       :     0.020770  s :     0.020770
      pz      :     0.010716  p :     0.031552
      px      :     0.010466
      py      :     0.010370
      dz2     :     0.810951  d :     4.070903
      dxz     :     0.852703
      dyz     :     0.775403
      dx2y2   :     0.767802
      dxy     :     0.864043
      f0      :     0.000007  f :     0.000040
      f+1     :     0.000005
      f-1     :     0.000006
      f+2     :     0.000005
      f-2     :     0.000004
      f+3     :     0.000006
      f-3     :     0.000006


                      *****************************
                      * MAYER POPULATION ANALYSIS *
                      *****************************

  NA   - Mulliken gross atomic population
  ZA   - Total nuclear charge
  QA   - Mulliken gross atomic charge
  VA   - Mayer's total valence
  BVA  - Mayer's bonded valence
  FA   - Mayer's free valence

  ATOM       NA         ZA         QA         VA         BVA        FA
  0 Au    18.8123    19.0000     0.1877     1.7220     1.7149     0.0071
  1 Au    18.8623    19.0000     0.1377     1.7902     1.7822     0.0080
  2 Au    18.6461    19.0000     0.3539     1.5495     1.5472     0.0024
  3 Au    18.9003    19.0000     0.0997     1.8364     1.8297     0.0068
  4 Au    18.7908    19.0000     0.2092     1.7059     1.6865     0.0193
  5 Au    18.8995    19.0000     0.1005     1.8346     1.8276     0.0071
  6 Au    18.8109    19.0000     0.1891     1.7201     1.7126     0.0075
  7 Au    18.8606    19.0000     0.1394     1.7859     1.7782     0.0077
  8 Au    18.8085    19.0000     0.1915     1.6743     1.6710     0.0034
  9 Au    18.6811    19.0000     0.3189     1.5648     1.5585     0.0063
 10 Au    18.9331    19.0000     0.0669     1.8609     1.7930     0.0679
 11 Au    18.6793    19.0000     0.3207     1.5641     1.5578     0.0063
 12 Au    18.8088    19.0000     0.1912     1.6767     1.6734     0.0033
 13 Au    19.0861    19.0000    -0.0861     2.0194     1.9897     0.0297
 14 Mn    27.4202    25.0000    -2.4202     8.5411     4.8778     3.6634

  Mayer bond orders larger than 0.100000
B(  0-Au,  2-Au) :   0.2670 B(  0-Au,  3-Au) :   0.2114 B(  0-Au,  6-Au) :   0.1626 
B(  0-Au, 12-Au) :   0.3451 B(  0-Au, 14-Mn) :   0.4411 B(  1-Au,  3-Au) :   0.2935 
B(  1-Au,  4-Au) :   0.2078 B(  1-Au, 11-Au) :   0.3171 B(  1-Au, 13-Au) :   0.2091 
B(  1-Au, 14-Mn) :   0.4235 B(  2-Au,  3-Au) :   0.3087 B(  2-Au,  5-Au) :   0.3089 
B(  2-Au,  6-Au) :   0.2680 B(  3-Au,  4-Au) :   0.2143 B(  3-Au,  5-Au) :   0.1433 
B(  3-Au, 14-Mn) :   0.3846 B(  4-Au,  5-Au) :   0.2135 B(  4-Au,  7-Au) :   0.2066 
B(  4-Au, 13-Au) :   0.2235 B(  4-Au, 14-Mn) :   0.3953 B(  5-Au,  6-Au) :   0.2103 
B(  5-Au,  7-Au) :   0.2925 B(  5-Au, 14-Mn) :   0.3861 B(  6-Au,  8-Au) :   0.3430 
B(  6-Au, 14-Mn) :   0.4417 B(  7-Au,  9-Au) :   0.3168 B(  7-Au, 13-Au) :   0.2104 
B(  7-Au, 14-Mn) :   0.4233 B(  8-Au,  9-Au) :   0.2502 B(  8-Au, 10-Au) :   0.2225 
B(  8-Au, 14-Mn) :   0.4562 B(  9-Au, 10-Au) :   0.2761 B(  9-Au, 13-Au) :   0.2890 
B(  9-Au, 14-Mn) :   0.1145 B( 10-Au, 11-Au) :   0.2772 B( 10-Au, 12-Au) :   0.2207 
B( 10-Au, 13-Au) :   0.1889 B( 10-Au, 14-Mn) :   0.4004 B( 11-Au, 12-Au) :   0.2502 
B( 11-Au, 13-Au) :   0.2891 B( 11-Au, 14-Mn) :   0.1127 B( 12-Au, 14-Mn) :   0.4552 
B( 13-Au, 14-Mn) :   0.3789 

-------
TIMINGS
-------

Total SCF time: 0 days 0 hours 1 min 53 sec 

Total time                  ....     113.597 sec
Sum of individual times     ....     110.043 sec  ( 96.9%)

Fock matrix formation       ....      97.305 sec  ( 85.7%)
  Split-RI-J                ....      34.912 sec  ( 35.9% of F)
  XC integration            ....      61.581 sec  ( 63.3% of F)
    Basis function eval.    ....       7.870 sec  ( 12.8% of XC)
    Density eval.           ....      30.614 sec  ( 49.7% of XC)
    XC-Functional eval.     ....       0.798 sec  (  1.3% of XC)
    XC-Potential eval.      ....      18.563 sec  ( 30.1% of XC)
Diagonalization             ....       8.216 sec  (  7.2%)
Density matrix formation    ....       0.315 sec  (  0.3%)
Population analysis         ....       0.557 sec  (  0.5%)
Initial guess               ....       0.710 sec  (  0.6%)
Orbital Transformation      ....       0.000 sec  (  0.0%)
Orbital Orthonormalization  ....       0.634 sec  (  0.6%)
DIIS solution               ....       0.000 sec  (  0.0%)
Grid generation             ....       2.939 sec  (  2.6%)

Maximum memory used throughout the entire SCF-calculation: 99.4 MB

-------------------------   --------------------
FINAL SINGLE POINT ENERGY     -3052.360101662020
-------------------------   --------------------


                            ***************************************
                            *     ORCA property calculations      *
                            ***************************************

                                    ---------------------
                                    Active property flags
                                    ---------------------
   (+) Dipole Moment


------------------------------------------------------------------------------
                       ORCA ELECTRIC PROPERTIES CALCULATION
------------------------------------------------------------------------------

Dipole Moment Calculation                       ... on
Quadrupole Moment Calculation                   ... off
Polarizability Calculation                      ... off
GBWName                                         ... pbeSP_job2.gbw
Electron density                                ... pbeSP_job2.scfp
The origin for moment calculation is the CENTER OF MASS  = (15.140327, 14.397759 14.331025)

-------------
DIPOLE MOMENT
-------------
                                X             Y             Z
Electronic contribution:     -9.85109      -0.14935       1.42502
Nuclear contribution   :      9.74624       0.07932      -1.36131
                        -----------------------------------------
Total Dipole Moment    :     -0.10485      -0.07003       0.06371
                        -----------------------------------------
Magnitude (a.u.)       :      0.14127
Magnitude (Debye)      :      0.35908



--------------------
Rotational spectrum 
--------------------
 
Rotational constants in cm-1:     0.001241     0.000935     0.000872 
Rotational constants in MHz :    37.214731    28.044572    26.150102 

 Dipole components along the rotational axes: 
x,y,z [a.u.] :    -0.013218     0.001418    -0.140642 
x,y,z [Debye]:    -0.033598     0.003605    -0.357482 

 

Timings for individual modules:

Sum of individual times         ...      138.054 sec (=   2.301 min)
GTO integral calculation        ...       24.160 sec (=   0.403 min)  17.5 %
SCF iterations                  ...      113.893 sec (=   1.898 min)  82.5 %



                             ****ORCA TERMINATED NORMALLY****
TOTAL RUN TIME: 0 days 0 hours 8 minutes 5 seconds 228 msec
