
                                 *****************
                                 * O   R   C   A *
                                 *****************

                                            #,                                       
                                            ###                                      
                                            ####                                     
                                            #####                                    
                                            ######                                   
                                           ########,                                 
                                     ,,################,,,,,                         
                               ,,#################################,,                 
                          ,,##########################################,,             
                       ,#########################################, ''#####,          
                    ,#############################################,,   '####,        
                  ,##################################################,,,,####,       
                ,###########''''           ''''###############################       
              ,#####''   ,,,,##########,,,,          '''####'''          '####       
            ,##' ,,,,###########################,,,                        '##       
           ' ,,###''''                  '''############,,,                           
         ,,##''                                '''############,,,,        ,,,,,,###''
      ,#''                                            '''#######################'''  
     '                                                          ''''####''''         
             ,#######,   #######,   ,#######,      ##                                
            ,#'     '#,  ##    ##  ,#'     '#,    #''#        ######   ,####,        
            ##       ##  ##   ,#'  ##            #'  '#       #        #'  '#        
            ##       ##  #######   ##           ,######,      #####,   #    #        
            '#,     ,#'  ##    ##  '#,     ,#' ,#      #,         ##   #,  ,#        
             '#######'   ##     ##  '#######'  #'      '#     #####' # '####'        



                  #######################################################
                  #                        -***-                        #
                  #          Department of theory and spectroscopy      #
                  #    Directorship and core code : Frank Neese         #
                  #        Max Planck Institute fuer Kohlenforschung    #
                  #                Kaiser Wilhelm Platz 1               #
                  #                 D-45470 Muelheim/Ruhr               #
                  #                      Germany                        #
                  #                                                     #
                  #                  All rights reserved                #
                  #                        -***-                        #
                  #######################################################


                         Program Version 5.0.3 -  RELEASE  -


 With contributions from (in alphabetic order):
   Daniel Aravena         : Magnetic Suceptibility
   Michael Atanasov       : Ab Initio Ligand Field Theory (pilot matlab implementation)
   Alexander A. Auer      : GIAO ZORA, VPT2 properties, NMR spectrum
   Ute Becker             : Parallelization
   Giovanni Bistoni       : ED, misc. LED, open-shell LED, HFLD
   Martin Brehm           : Molecular dynamics
   Dmytro Bykov           : SCF Hessian
   Vijay G. Chilkuri      : MRCI spin determinant printing, contributions to CSF-ICE
   Dipayan Datta          : RHF DLPNO-CCSD density
   Achintya Kumar Dutta   : EOM-CC, STEOM-CC
   Dmitry Ganyushin       : Spin-Orbit,Spin-Spin,Magnetic field MRCI
   Miquel Garcia          : C-PCM and meta-GGA Hessian, CC/C-PCM, Gaussian charge scheme
   Yang Guo               : DLPNO-NEVPT2, F12-NEVPT2, CIM, IAO-localization
   Andreas Hansen         : Spin unrestricted coupled pair/coupled cluster methods
   Benjamin Helmich-Paris : MC-RPA, TRAH-SCF, COSX integrals
   Lee Huntington         : MR-EOM, pCC
   Robert Izsak           : Overlap fitted RIJCOSX, COSX-SCS-MP3, EOM
   Marcus Kettner         : VPT2
   Christian Kollmar      : KDIIS, OOCD, Brueckner-CCSD(T), CCSD density, CASPT2, CASPT2-K
   Simone Kossmann        : Meta GGA functionals, TD-DFT gradient, OOMP2, MP2 Hessian
   Martin Krupicka        : Initial AUTO-CI
   Lucas Lang             : DCDCAS
   Marvin Lechner         : AUTO-CI (C++ implementation), FIC-MRCC
   Dagmar Lenk            : GEPOL surface, SMD
   Dimitrios Liakos       : Extrapolation schemes; Compound Job, initial MDCI parallelization
   Dimitrios Manganas     : Further ROCIS development; embedding schemes
   Dimitrios Pantazis     : SARC Basis sets
   Anastasios Papadopoulos: AUTO-CI, single reference methods and gradients
   Taras Petrenko         : DFT Hessian,TD-DFT gradient, ASA, ECA, R-Raman, ABS, FL, XAS/XES, NRVS
   Peter Pinski           : DLPNO-MP2, DLPNO-MP2 Gradient
   Christoph Reimann      : Effective Core Potentials
   Marius Retegan         : Local ZFS, SOC
   Christoph Riplinger    : Optimizer, TS searches, QM/MM, DLPNO-CCSD(T), (RO)-DLPNO pert. Triples
   Tobias Risthaus        : Range-separated hybrids, TD-DFT gradient, RPA, STAB
   Michael Roemelt        : Original ROCIS implementation
   Masaaki Saitow         : Open-shell DLPNO-CCSD energy and density
   Barbara Sandhoefer     : DKH picture change effects
   Avijit Sen             : IP-ROCIS
   Kantharuban Sivalingam : CASSCF convergence, NEVPT2, FIC-MRCI
   Bernardo de Souza      : ESD, SOC TD-DFT
   Georgi Stoychev        : AutoAux, RI-MP2 NMR, DLPNO-MP2 response
   Willem Van den Heuvel  : Paramagnetic NMR
   Boris Wezisla          : Elementary symmetry handling
   Frank Wennmohs         : Technical directorship


 We gratefully acknowledge several colleagues who have allowed us to
 interface, adapt or use parts of their codes:
   Stefan Grimme, W. Hujo, H. Kruse, P. Pracht,  : VdW corrections, initial TS optimization,
                  C. Bannwarth, S. Ehlert          DFT functionals, gCP, sTDA/sTD-DF
   Ed Valeev, F. Pavosevic, A. Kumar             : LibInt (2-el integral package), F12 methods
   Garnet Chan, S. Sharma, J. Yang, R. Olivares  : DMRG
   Ulf Ekstrom                                   : XCFun DFT Library
   Mihaly Kallay                                 : mrcc  (arbitrary order and MRCC methods)
   Jiri Pittner, Ondrej Demel                    : Mk-CCSD
   Frank Weinhold                                : gennbo (NPA and NBO analysis)
   Christopher J. Cramer and Donald G. Truhlar   : smd solvation model
   Lars Goerigk                                  : TD-DFT with DH, B97 family of functionals
   V. Asgeirsson, H. Jonsson                     : NEB implementation
   FAccTs GmbH                                   : IRC, NEB, NEB-TS, DLPNO-Multilevel, CI-OPT
                                                   MM, QMMM, 2- and 3-layer-ONIOM, Crystal-QMMM,
                                                   LR-CPCM, SF, NACMEs, symmetry and pop. for TD-DFT,
                                                   nearIR, NL-DFT gradient (VV10), updates on ESD,
                                                   ML-optimized integration grids
   S Lehtola, MJT Oliveira, MAL Marques          : LibXC Library
   Liviu Ungur et al                             : ANISO software


 Your calculation uses the libint2 library for the computation of 2-el integrals
 For citations please refer to: http://libint.valeyev.net

 Your ORCA version has been built with support for libXC version: 5.1.0
 For citations please refer to: https://tddft.org/programs/libxc/

 This ORCA versions uses:
   CBLAS   interface :  Fast vector & matrix operations
   LAPACKE interface :  Fast linear algebra routines
   SCALAPACK package :  Parallel linear algebra routines
   Shared memory     :  Shared parallel matrices
   BLAS/LAPACK       :  OpenBLAS 0.3.15  USE64BITINT DYNAMIC_ARCH NO_AFFINITY Haswell SINGLE_THREADED
        Core in use  :  Haswell
   Copyright (c) 2011-2014, The OpenBLAS Project




***************************************
The coordinates will be read from file: pbe.xyz
***************************************


================================================================================

cite the ECPs for Au [Def2-ECP] as follows:
Ce-Yb(ecp-28): M. Dolg, H. Stoll, H.Preuss, J. Chem. Phys., 1989, 90, 1730-1734.
Y-Cd(ecp-28), Hf-Hg(ecp-46): D. Andrae,U. Haeussermann, M. Dolg, H. Stoll, H. Preuss, Theor. Chim. Acta, 1990, 77, 123-141.
In-Sb(ecp-28), Tl-Bi(ecp-46): B. Metz, H. Stoll, M. Dolg, J. Chem. Phys., 2000, 113, 2563-2569.
Te-Xe(ecp-28), Po-Rn(ecp-46): K. A. Peterson, D. Figgen, E. Goll, H. Stoll, M. Dolg, J. Chem. Phys., 2003, 119, 11113-11123.
Rb(ecp-28), Cs(ecp-46): T. Leininger, A. Nicklass, W. Kuechle, H. Stoll, M. Dolg, A. Bergner, Chem. Phys. Lett., 1996, 255, 274-280.
Sr(ecp-28), Ba(ecp-46): M. Kaupp, P. V. Schleyer, H. Stoll and H. Preuss, J. Chem. Phys., 1991, 94, 1360-1366.
La(ecp-46): M. Dolg, H. Stoll, A. Savin, H. Preuss, Theor. Chim. Acta, 1989, 75, 173-194.
Lu(ecp-28): X. Cao, M. Dolg, J. Chem. Phys., 2001, 115, 7348-7355.

ECP parameters for Au [Def2-ECP] have been obtained from:
TURBOMOLE (7.0.2)

----- Orbital basis set information -----
Your calculation utilizes the basis: def2-TZVP
   F. Weigend and R. Ahlrichs, Phys. Chem. Chem. Phys. 7, 3297 (2005).

----- AuxJ basis set information -----
Your calculation utilizes the auxiliary basis: def2/J
   F. Weigend, Phys. Chem. Chem. Phys. 8, 1057 (2006).

================================================================================
                                        WARNINGS
                       Please study these warnings very carefully!
================================================================================


WARNING: your system is open-shell and RHF/RKS was chosen
  ===> : WILL SWITCH to UHF/UKS


INFO   : the flag for use of the SHARK integral package has been found!



***************************************
The coordinates will be read from file: pbe.xyz
***************************************


================================================================================

cite the ECPs for Au [Def2-ECP] as follows:
Ce-Yb(ecp-28): M. Dolg, H. Stoll, H.Preuss, J. Chem. Phys., 1989, 90, 1730-1734.
Y-Cd(ecp-28), Hf-Hg(ecp-46): D. Andrae,U. Haeussermann, M. Dolg, H. Stoll, H. Preuss, Theor. Chim. Acta, 1990, 77, 123-141.
In-Sb(ecp-28), Tl-Bi(ecp-46): B. Metz, H. Stoll, M. Dolg, J. Chem. Phys., 2000, 113, 2563-2569.
Te-Xe(ecp-28), Po-Rn(ecp-46): K. A. Peterson, D. Figgen, E. Goll, H. Stoll, M. Dolg, J. Chem. Phys., 2003, 119, 11113-11123.
Rb(ecp-28), Cs(ecp-46): T. Leininger, A. Nicklass, W. Kuechle, H. Stoll, M. Dolg, A. Bergner, Chem. Phys. Lett., 1996, 255, 274-280.
Sr(ecp-28), Ba(ecp-46): M. Kaupp, P. V. Schleyer, H. Stoll and H. Preuss, J. Chem. Phys., 1991, 94, 1360-1366.
La(ecp-46): M. Dolg, H. Stoll, A. Savin, H. Preuss, Theor. Chim. Acta, 1989, 75, 173-194.
Lu(ecp-28): X. Cao, M. Dolg, J. Chem. Phys., 2001, 115, 7348-7355.

ECP parameters for Au [Def2-ECP] have been obtained from:
TURBOMOLE (7.0.2)

----- Orbital basis set information -----
Your calculation utilizes the basis: def2-TZVP
   F. Weigend and R. Ahlrichs, Phys. Chem. Chem. Phys. 7, 3297 (2005).

----- AuxJ basis set information -----
Your calculation utilizes the auxiliary basis: def2/J
   F. Weigend, Phys. Chem. Chem. Phys. 8, 1057 (2006).

================================================================================
                                        WARNINGS
                       Please study these warnings very carefully!
================================================================================


INFO   : the flag for use of the SHARK integral package has been found!

================================================================================
                                       INPUT FILE
================================================================================
NAME = pbeSP.inp
|  1> !PBE def2-TZVP VERYSLOWCONV
|  2> 
|  3> %scf
|  4>   AutoTRAHIter 200
|  5>   maxiter 400
|  6> end
|  7> 
|  8> 
|  9> %pal nprocs 6 end 
| 10> 
| 11> *xyzfile 0 5 pbe.xyz
| 12> 
| 13> $new_job
| 14> 
| 15> !PBE def2-TZVP VERYSLOWCONV
| 16> 
| 17> %scf
| 18>   AutoTRAHIter 200
| 19>   maxiter 400
| 20> end
| 21>  
| 22> 
| 23> %pal nprocs 6 end 
| 24> 
| 25> *xyzfile 0 3 pbe.xyz
| 26> 
| 27> 
| 28> 
| 29> 
| 30> 
| 31>                          ****END OF INPUT****
================================================================================


                 $$$$$$$$$$$$$$$$$$$$$$$$$$$$$$$$$$$$$$$$$$$$$$ 
                 $ THERE ARE  2 JOBS TO BE PROCESSED THIS RUN $
                 $$$$$$$$$$$$$$$$$$$$$$$$$$$$$$$$$$$$$$$$$$$$$$ 




                 $$$$$$$$$$$$$$$$  JOB NUMBER  1 $$$$$$$$$$$$$$


                       ****************************
                       * Single Point Calculation *
                       ****************************

---------------------------------
CARTESIAN COORDINATES (ANGSTROEM)
---------------------------------
  Au     4.706264    6.277886    8.543179
  Au     7.253466    6.820951    9.668588
  Au     6.948864    4.783985    7.656462
  Au     9.266552    6.292585    7.439617
  Au     7.736130    5.863181    5.120599
  Au     4.964496    5.826192    5.748648
  Au     4.208957    8.472524    6.458023
  Au     5.304684    8.953190    8.957899
  Au     9.159297   10.865312    6.838922
  Au    10.780331    8.558310    7.237158
  Au     8.774484    8.463478    5.382875
  Au     6.180687    8.170277    4.444116
  Au     6.502343   10.146302    6.511577
  Au     7.962078    9.509738    8.913016
  Au     9.865939    7.732555    9.805527
  Au    10.562413   10.461343    9.302699
  Cr     6.736383    7.488870    7.077138

----------------------------
CARTESIAN COORDINATES (A.U.)
----------------------------
  NO LB      ZA    FRAG     MASS         X           Y           Z
   0 Au   19.0000*   0   196.966    8.893550   11.863486   16.144268
   1 Au   19.0000*   0   196.966   13.707064   12.889729   18.270983
   2 Au   19.0000*   0   196.966   13.131449    9.040421   14.468616
   3 Au   19.0000*   0   196.966   17.511245   11.891263   14.058839
   4 Au   19.0000*   0   196.966   14.619168   11.079806    9.676529
   5 Au   19.0000*   0   196.966    9.381538   11.009908   10.863371
   6 Au   19.0000*   0   196.966    7.953777   16.010751   12.203894
   7 Au   19.0000*   0   196.966   10.024399   16.919077   16.927975
   8 Au   19.0000*   0   196.966   17.308564   20.532463   12.923689
   9 Au   19.0000*   0   196.966   20.371873   16.172861   13.676247
  10 Au   19.0000*   0   196.966   16.581372   15.993656   10.172160
  11 Au   19.0000*   0   196.966   11.679805   15.439585    8.398161
  12 Au   19.0000*   0   196.966   12.287648   19.173732   12.305098
  13 Au   19.0000*   0   196.966   15.046147   17.970800   16.843159
  14 Au   19.0000*   0   196.966   18.643924   14.612411   18.529761
  15 Au   19.0000*   0   196.966   19.960069   19.769073   17.579553
  16 Cr   24.0000    0    52.000   12.729918   14.151914   13.373852
* core charge reduced due to ECP

--------------------------------
INTERNAL COORDINATES (ANGSTROEM)
--------------------------------
 Au     0   0   0     0.000000000000     0.00000000     0.00000000
 Au     1   0   0     2.837199779775     0.00000000     0.00000000
 Au     1   2   0     2.836769625186    60.99048832     0.00000000
 Au     3   1   2     2.773909780626   113.48803818   321.75596139
 Au     4   3   1     2.811480778041    61.74457299   263.13196699
 Au     5   4   3     2.842142308465   110.52155956    35.30855508
 Au     6   5   4     2.842028040862   107.59507820    69.72488543
 Au     7   6   5     2.771468126462   106.35145114   287.40442400
 Au     4   3   1     4.613259678372   121.99386304   336.04580758
 Au     4   3   1     2.732402509343   156.87520220   341.75144637
 Au    10   4   3     2.733272720893    67.35193851   308.34670632
 Au    11  10   4     2.773990551109   156.84493972    51.37227535
 Au     9   4   3     2.771918658843    77.32329014   350.65323484
 Au     8   7   6     2.715419896141   114.05093933    77.59869195
 Au    14   8   7     2.753115362222   122.62171688   252.27521381
 Au    14   8   7     2.796274099000   167.82374795   143.08660006
 Cr     2   1   3     2.725638536260    59.96369005    69.84139495

---------------------------
INTERNAL COORDINATES (A.U.)
---------------------------
 Au     0   0   0     0.000000000000     0.00000000     0.00000000
 Au     1   0   0     5.361530570997     0.00000000     0.00000000
 Au     1   2   0     5.360717696628    60.99048832     0.00000000
 Au     3   1   2     5.241929805589   113.48803818   321.75596139
 Au     4   3   1     5.312928701282    61.74457299   263.13196699
 Au     5   4   3     5.370870596629   110.52155956    35.30855508
 Au     6   5   4     5.370654662154   107.59507820    69.72488543
 Au     7   6   5     5.237315747906   106.35145114   287.40442400
 Au     4   3   1     8.717797376785   121.99386304   336.04580758
 Au     4   3   1     5.163492430298   156.87520220   341.75144637
 Au    10   4   3     5.165136891806    67.35193851   308.34670632
 Au    11  10   4     5.242082439681   156.84493972    51.37227535
 Au     9   4   3     5.238167130720    77.32329014   350.65323484
 Au     8   7   6     5.131399942307   114.05093933    77.59869195
 Au    14   8   7     5.202634049691   122.62171688   252.27521381
 Au    14   8   7     5.284192242488   167.82374795   143.08660006
 Cr     2   1   3     5.150710373593    59.96369005    69.84139495

---------------------
BASIS SET INFORMATION
---------------------
There are 2 groups of distinct atoms

 Group   1 Type Au  : 8s7p6d1f contracted to 6s4p3d1f pattern {311111/4111/411/1}
 Group   2 Type Cr  : 17s11p7d1f contracted to 6s4p4d1f pattern {842111/6311/4111/1}

Atom   0Au   basis set group =>   1
Atom   1Au   basis set group =>   1
Atom   2Au   basis set group =>   1
Atom   3Au   basis set group =>   1
Atom   4Au   basis set group =>   1
Atom   5Au   basis set group =>   1
Atom   6Au   basis set group =>   1
Atom   7Au   basis set group =>   1
Atom   8Au   basis set group =>   1
Atom   9Au   basis set group =>   1
Atom  10Au   basis set group =>   1
Atom  11Au   basis set group =>   1
Atom  12Au   basis set group =>   1
Atom  13Au   basis set group =>   1
Atom  14Au   basis set group =>   1
Atom  15Au   basis set group =>   1
Atom  16Cr   basis set group =>   2
---------------------------------
AUXILIARY/J BASIS SET INFORMATION
---------------------------------
There are 2 groups of distinct atoms

 Group   1 Type Au  : 11s5p5d3f3g contracted to 8s5p5d2f3g pattern {41111111/11111/11111/21/111}
 Group   2 Type Cr  : 19s5p5d3f3g contracted to 8s5p5d2f3g pattern {121111111/11111/11111/21/111}

Atom   0Au   basis set group =>   1
Atom   1Au   basis set group =>   1
Atom   2Au   basis set group =>   1
Atom   3Au   basis set group =>   1
Atom   4Au   basis set group =>   1
Atom   5Au   basis set group =>   1
Atom   6Au   basis set group =>   1
Atom   7Au   basis set group =>   1
Atom   8Au   basis set group =>   1
Atom   9Au   basis set group =>   1
Atom  10Au   basis set group =>   1
Atom  11Au   basis set group =>   1
Atom  12Au   basis set group =>   1
Atom  13Au   basis set group =>   1
Atom  14Au   basis set group =>   1
Atom  15Au   basis set group =>   1
Atom  16Cr   basis set group =>   2
-------------------------
ECP PARAMETER INFORMATION
-------------------------

 Group 1, Type Au ECP Def2-ECP (replacing 60 core electrons, lmax=3)

Atom   0Au   ECP group =>   1
Atom   1Au   ECP group =>   1
Atom   2Au   ECP group =>   1
Atom   3Au   ECP group =>   1
Atom   4Au   ECP group =>   1
Atom   5Au   ECP group =>   1
Atom   6Au   ECP group =>   1
Atom   7Au   ECP group =>   1
Atom   8Au   ECP group =>   1
Atom   9Au   ECP group =>   1
Atom  10Au   ECP group =>   1
Atom  11Au   ECP group =>   1
Atom  12Au   ECP group =>   1
Atom  13Au   ECP group =>   1
Atom  14Au   ECP group =>   1
Atom  15Au   ECP group =>   1



           ************************************************************
           *        Program running with 6 parallel MPI-processes     *
           *              working on a common directory               *
           ************************************************************
------------------------------------------------------------------------------
                           ORCA GTO INTEGRAL CALCULATION
                           -- RI-GTO INTEGRALS CHOSEN --
------------------------------------------------------------------------------
------------------------------------------------------------------------------
                   ___                                                        
                  /   \      - P O W E R E D   B Y -                         
                 /     \                                                     
                 |  |  |   _    _      __       _____    __    __             
                 |  |  |  | |  | |    /  \     |  _  \  |  |  /  |          
                  \  \/   | |  | |   /    \    | | | |  |  | /  /          
                 / \  \   | |__| |  /  /\  \   | |_| |  |  |/  /          
                |  |  |   |  __  | /  /__\  \  |    /   |      \           
                |  |  |   | |  | | |   __   |  |    \   |  |\   \          
                \     /   | |  | | |  |  |  |  | |\  \  |  | \   \       
                 \___/    |_|  |_| |__|  |__|  |_| \__\ |__|  \__/        
                                                                              
                      - O R C A' S   B I G   F R I E N D -                    
                                      &                                       
                       - I N T E G R A L  F E E D E R -                       
                                                                              
 v1 FN, 2020, v2 2021                                                         
------------------------------------------------------------------------------


Reading SHARK input file pbeSP.SHARKINP.tmp ... ok
----------------------
SHARK INTEGRAL PACKAGE
----------------------

Number of atoms                             ...     17
Number of basis functions                   ...    685
Number of shells                            ...    239
Maximum angular momentum                    ...      3
Integral batch strategy                     ... SHARK/LIBINT Hybrid
RI-J (if used) integral strategy            ... SPLIT-RIJ (Revised 2003 algorithm where possible)
Printlevel                                  ...      1
Contraction scheme used                     ... SEGMENTED contraction
Coulomb Range Separation                    ... NOT USED
Exchange Range Separation                   ... NOT USED
Finite Nucleus Model                        ... NOT USED
Auxiliary Coulomb fitting basis             ... AVAILABLE
   # of basis functions in Aux-J            ...   1513
   # of shells in Aux-J                     ...    391
   Maximum angular momentum in Aux-J        ...      4
Auxiliary J/K fitting basis                 ... NOT available
Auxiliary Correlation fitting basis         ... NOT available
Auxiliary 'external' fitting basis          ... NOT available
Integral threshold                          ...     1.000000e-10
Primitive cut-off                           ...     1.000000e-11
Primitive pair pre-selection threshold      ...     1.000000e-11

Calculating pre-screening integrals         ... done (  0.4 sec) Dimension = 239
Organizing shell pair data                  ... done (  1.0 sec)
Shell pair information
Total number of shell pairs                 ...     28680
Shell pairs after pre-screening             ...     22375
Total number of primitive shell pairs       ...     75765
Primitive shell pairs kept                  ...     42671
          la=0 lb=0:   3534 shell pairs
          la=1 lb=0:   5111 shell pairs
          la=1 lb=1:   1912 shell pairs
          la=2 lb=0:   4449 shell pairs
          la=2 lb=1:   3122 shell pairs
          la=2 lb=2:   1284 shell pairs
          la=3 lb=0:   1177 shell pairs
          la=3 lb=1:    890 shell pairs
          la=3 lb=2:    776 shell pairs
          la=3 lb=3:    120 shell pairs

Calculating one electron integrals          ... done (  0.2 sec)
Calculating ECP integrals                   ... done ( 27.7 sec)
Calculating RI/J V-Matrix + Cholesky decomp.... done (  1.9 sec)
Calculating Nuclear repulsion               ... done (  0.0 sec) ENN=   6986.855970415987 Eh

SHARK setup successfully completed in  32.6 seconds

Maximum memory used throughout the entire GTOINT-calculation: 41.2 MB


           ************************************************************
           *        Program running with 6 parallel MPI-processes     *
           *              working on a common directory               *
           ************************************************************
-------------------------------------------------------------------------------
                                 ORCA SCF
-------------------------------------------------------------------------------

------------
SCF SETTINGS
------------
Hamiltonian:
 Density Functional     Method          .... DFT(GTOs)
 Exchange Functional    Exchange        .... PBE
   PBE kappa parameter   XKappa         ....  0.804000
   PBE mue parameter    XMuePBE         ....  0.219520
 Correlation Functional Correlation     .... PBE
   PBE beta parameter  CBetaPBE         ....  0.066725
 LDA part of GGA corr.  LDAOpt          .... PW91-LDA
 Gradients option       PostSCFGGA      .... off
   Density functional embedding theory  .... OFF
   NL short-range parameter             ....  6.400000
 RI-approximation to the Coulomb term is turned on
   Number of AuxJ basis functions       .... 1513


General Settings:
 Integral files         IntName         .... pbeSP
 Hartree-Fock type      HFTyp           .... UHF
 Total Charge           Charge          ....    0
 Multiplicity           Mult            ....    5
 Number of Electrons    NEL             ....  328
 Basis Dimension        Dim             ....  685
 Nuclear Repulsion      ENuc            ....   6986.8559704160 Eh

Convergence Acceleration:
 DIIS                   CNVDIIS         .... on
   Start iteration      DIISMaxIt       ....     0
   Startup error        DIISStart       ....  0.200000
   # of expansion vecs  DIISMaxEq       ....     5
   Bias factor          DIISBfac        ....   1.050
   Max. coefficient     DIISMaxC        ....  10.000
 Trust-Rad. Augm. Hess. CNVTRAH         .... auto
   Auto Start mean grad. ratio tolernc. ....  1.125000
   Auto Start start iteration           ....   200
   Auto Start num. interpolation iter.  ....    10
   Max. Number of Micro iterations      ....    16
   Max. Number of Macro iterations      .... Maxiter - #DIIS iter
   Number of Davidson start vectors     ....     2
   Converg. threshold I  (grad. norm)   ....   5.000e-05
   Converg. threshold II (energy diff.) ....   1.000e-06
   Grad. Scal. Fac. for Micro threshold ....   0.100
   Minimum threshold for Micro iter.    ....   0.010
   NR start threshold (gradient norm)   ....   0.001
   Initial trust radius                 ....   0.400
   Minimum AH scaling param. (alpha)    ....   1.000
   Maximum AH scaling param. (alpha)    .... 1000.000
   Orbital update algorithm             .... Taylor
   White noise on init. David. guess    .... on
   Maximum white noise                  ....   0.010
   Quad. conv. algorithm                .... NR
 SOSCF                  CNVSOSCF        .... off
 Level Shifting         CNVShift        .... on
   Level shift para.    LevelShift      ....    0.2500
   Turn off err/grad.   ShiftErr        ....    0.0000
 Zerner damping         CNVZerner       .... off
 Static damping         CNVDamp         .... on
   Fraction old density DampFac         ....    0.9200
   Max. Damping (<1)    DampMax         ....    0.9800
   Min. Damping (>=0)   DampMin         ....    0.0000
   Turn off err/grad.   DampErr         ....    0.0030
 Fernandez-Rico         CNVRico         .... off

SCF Procedure:
 Maximum # iterations   MaxIter         ....   400
 SCF integral mode      SCFMode         .... Direct
   Integral package                     .... SHARK and LIBINT hybrid scheme
 Reset frequency        DirectResetFreq ....    20
 Integral Threshold     Thresh          ....  1.000e-10 Eh
 Primitive CutOff       TCut            ....  1.000e-11 Eh

Convergence Tolerance:
 Convergence Check Mode ConvCheckMode   .... Total+1el-Energy
 Convergence forced     ConvForced      .... 0
 Energy Change          TolE            ....  1.000e-06 Eh
 1-El. energy change                    ....  1.000e-03 Eh
 DIIS Error             TolErr          ....  1.000e-06


Diagonalization of the overlap matrix:
Smallest eigenvalue                        ... 5.696e-05
Time for diagonalization                   ...    0.188 sec
Threshold for overlap eigenvalues          ... 1.000e-08
Number of eigenvalues below threshold      ... 0
Time for construction of square roots      ...    0.297 sec
Total time needed                          ...    0.781 sec

Time for model grid setup =    1.776 sec

------------------------------
INITIAL GUESS: MODEL POTENTIAL
------------------------------
Loading Hartree-Fock densities                     ... done
  calling /media/Programs/ORCA501/orca pbeSP_atom79.inp > pbeSP_atom79.out in order to generate an atomic fitting density for atom 0 (Au with ECP) on-the-fly... 
    atom 0 (Au), assumed electronic state with S=2: 1s2 2s2 2p6 3s2 3p6 4s2 3d10 4p6 5s2 4d10 5p6 6s1 4f14 5d10           ... done
Calculating cut-offs                               ... done
Initializing the effective Hamiltonian             ... done
Setting up the integral package (SHARK)            ... done
Starting the Coulomb interaction                   ... done (   2.2 sec)
Reading the grid                                   ... done
Mapping shells                                     ... done
Starting the XC term evaluation                    ... done (   1.4 sec)
  promolecular density results
     # of electrons  =   1288.015298961
     EX              =  -5900.456564450
     EC              =    -78.570380078
     EX+EC           =  -5979.026944528
Transforming the Hamiltonian                       ... done (   0.7 sec)
Diagonalizing the Hamiltonian                      ... done (   1.2 sec)
Back transforming the eigenvectors                 ... done (   0.2 sec)
Now organizing SCF variables                       ... done
                      ------------------
                      INITIAL GUESS DONE (   9.6 sec)
                      ------------------
-------------------
DFT GRID GENERATION
-------------------

General Integration Accuracy     IntAcc      ... 4.388
Radial Grid Type                 RadialGrid  ... OptM3 with GC (2021)
Angular Grid (max. ang.)         AngularGrid ... 4 (Lebedev-302)
Angular grid pruning method      GridPruning ... 4 (adaptive)
Weight generation scheme         WeightScheme... Becke
Basis function cutoff            BFCut       ... 1.0000e-10
Integration weight cutoff        WCut        ... 1.0000e-14
Angular grids for H and He will be reduced by one unit
Partially contracted basis set               ... off
Rotationally invariant grid construction     ... off

Total number of grid points                  ...   186811
Total number of batches                      ...     2927
Average number of points per batch           ...       63
Average number of grid points per atom       ...    10989
Time for grid setup =    6.284 sec

--------------
SCF ITERATIONS
--------------
ITER       Energy         Delta-E        Max-DP      RMS-DP      [F,P]     Damp
               ***  Starting incremental Fock matrix formation  ***
  0  -3215.2739872197   0.000000000000 0.09695339  0.00066086  0.4056061 0.9200
  1  -3215.9675912078  -0.693603988117 0.10202120  0.00060553  0.2681545 0.9200
                               ***Turning on DIIS***
  2  -3216.3489164293  -0.381325221430 0.20182392  0.00052193  0.2420948 0.9200
  3  -3216.5201250117  -0.171208582452 0.12660024  0.00038605  0.2218018 0.9200
  4  -3216.6011935851  -0.081068573381 0.05286567  0.00032904  0.2032061 0.9200
  5  -3216.6611097368  -0.059916151718 0.03475819  0.00027065  0.1861223 0.9200
  6  -3216.7257718866  -0.064662149834 0.09948183  0.00025896  0.1705675 0.9200
  7  -3216.7647218523  -0.038949965697 0.12295812  0.00026824  0.1570530 0.9200
  8  -3216.8118636617  -0.047141809366 0.08324492  0.00027154  0.1447122 0.9200
  9  -3216.8744441166  -0.062580454936 0.09836019  0.00024933  0.1330330 0.9200
 10  -3216.9208351422  -0.046391025592 0.09280123  0.00020414  0.1222720 0.9200
 11  -3216.9652283321  -0.044393189900 0.08886198  0.00019750  0.1122537 0.9200
 12  -3217.0012709827  -0.036042650530 0.11692786  0.00021146  0.1030019 0.9200
 13  -3217.0326595100  -0.031388527358 0.09372788  0.00018943  0.0947514 0.9200
 14  -3217.0697152569  -0.037055746859 0.05397450  0.00017190  0.0871249 0.9200
 15  -3217.1050365849  -0.035321328020 0.08153742  0.00016127  0.0800895 0.9200
 16  -3217.1348126348  -0.029776049947 0.08742844  0.00015191  0.0736881 0.9200
 17  -3217.1629313445  -0.028118709676 0.09510089  0.00015842  0.0676815 0.9200
 18  -3217.1868018383  -0.023870493810 0.10046233  0.00015797  0.0621587 0.9200
 19  -3217.2097459271  -0.022944088730 0.08122316  0.00013855  0.0571507 0.9200
               *** Restarting incremental Fock matrix formation ***
                                   *** Resetting DIIS ***
 20  -3217.2331161477  -0.023370220663 0.06875264  0.00012232  0.0525304 0.9200
 21  -3217.2542606433  -0.021144495529 0.06919606  0.00011412  0.0482096 0.9200
 22  -3217.2734898970  -0.019229253724 0.07225546  0.00011332  0.0442561 0.9200
 23  -3217.2909874322  -0.017497535246 0.07600618  0.00011399  0.0406615 0.9200
 24  -3217.3071991573  -0.016211725052 0.07356415  0.00010893  0.0374071 0.9200
 25  -3217.3223641737  -0.015165016419 0.06632384  0.00009943  0.0344248 0.9200
 26  -3217.3363789295  -0.014014755754 0.06031819  0.00009042  0.0316581 0.9200
 27  -3217.3493187148  -0.012939785312 0.05682730  0.00008625  0.0290965 0.9200
 28  -3217.3611691648  -0.011850450056 0.05702025  0.00008444  0.0267396 0.9200
 29  -3217.3721664890  -0.010997324185 0.05453544  0.00008029  0.0245948 0.9200
 30  -3217.3824001520  -0.010233663017 0.05012519  0.00007385  0.0226301 0.9200
 31  -3217.3918225716  -0.009422419571 0.04541058  0.00006756  0.0208177 0.9200
 32  -3217.4005339696  -0.008711398042 0.04278475  0.00006438  0.0191379 0.9200
 33  -3217.4085369144  -0.008002944738 0.04238682  0.00006247  0.0175885 0.9200
 34  -3217.4159596688  -0.007422754421 0.04048884  0.00005926  0.0161744 0.9200
 35  -3217.4228273837  -0.006867714912 0.03726279  0.00005438  0.0148804 0.9200
 36  -3217.4291600161  -0.006332632401 0.03382928  0.00005005  0.0136890 0.9200
 37  -3217.4350089417  -0.005848925551 0.03212954  0.00004776  0.0125854 0.9200
 38  -3217.4403930328  -0.005384091183 0.03126843  0.00004584  0.0115684 0.9200
 39  -3217.4453765054  -0.004983472512 0.02068298  0.00003585  0.0106383 0.9200
               *** Restarting incremental Fock matrix formation ***
                                   *** Resetting DIIS ***
 40  -3217.4499719683  -0.004595462957 0.02077682  0.00003378  0.0097869 0.9200
 41  -3217.4542182034  -0.004246235096 0.01989392  0.00003162  0.0089870 0.9200
 42  -3217.4581376288  -0.003919425357 0.01975600  0.00003060  0.0082534 0.9200
 43  -3217.4617509017  -0.003613272906 0.01961756  0.00002984  0.0075852 0.9200
 44  -3217.4650812047  -0.003330303014 0.01891462  0.00002869  0.0069764 0.9200
 45  -3217.4681504142  -0.003069209479 0.01758006  0.00002699  0.0064181 0.9200
 46  -3217.4709797486  -0.002829334391 0.01609222  0.00002525  0.0059028 0.9200
 47  -3217.4735887518  -0.002609003213 0.01487348  0.00002380  0.0054273 0.9200
 48  -3217.4759934462  -0.002404694443 0.01389762  0.00002251  0.0049904 0.9200
 49  -3217.4782095105  -0.002216064323 0.01288119  0.00002119  0.0045899 0.9200
 50  -3217.4802516593  -0.002042148723 0.01190417  0.00001994  0.0042221 0.9200
 51  -3217.4821342793  -0.001882620074 0.01109987  0.00001889  0.0038830 0.9200
 52  -3217.4838693895  -0.001735110168 0.01052691  0.00001800  0.0035705 0.9200
 53  -3217.4854681342  -0.001598744714 0.01000395  0.00001713  0.0032834 0.9200
 54  -3217.4869409873  -0.001472853103 0.00947119  0.00001630  0.0030199 0.9200
 55  -3217.4882981379  -0.001357150627 0.11161386  0.00019313  0.0027776 0.0000
 56  -3217.5040572999  -0.015759161973 0.01220753  0.00001889  0.0005490 0.0000
 57  -3217.5040372961   0.000020003805 0.00307419  0.00000764  0.0016461 0.0000
 58  -3217.5040617489  -0.000024452801 0.00084131  0.00000439  0.0007236 0.0000
 59  -3217.5040693237  -0.000007574780 0.04784259  0.00006340  0.0002211 0.0000
               *** Restarting incremental Fock matrix formation ***
                                   *** Resetting DIIS ***
 60  -3217.5040719165  -0.000002592773 0.00573705  0.00000788  0.0001366 0.0000
 61  -3217.5040732347  -0.000001318273 0.00082773  0.00000264  0.0003263 0.0000
 62  -3217.5040748405  -0.000001605724 0.00153514  0.00000303  0.0002357 0.0000
 63  -3217.5040760145  -0.000001174023 0.00103123  0.00000296  0.0001668 0.0000
 64  -3217.5040772270  -0.000001212533 0.00113164  0.00000241  0.0000455 0.0000
 65  -3217.5040779622  -0.000000735227 0.00023606  0.00000179  0.0000388 0.0000
 66  -3217.5040788971  -0.000000934806 0.00211905  0.00000369  0.0000584 0.0000
 67  -3217.5040792496  -0.000000352503 0.00080096  0.00000188  0.0000331 0.0000
 68  -3217.5040798299  -0.000000580314 0.00144483  0.00000255  0.0000340 0.0000
 69  -3217.5040802361  -0.000000406247 0.00209451  0.00000310  0.0000294 0.0000
 70  -3217.5040807796  -0.000000543517 0.00049053  0.00000151  0.0000303 0.0000
 71  -3217.5040813099  -0.000000530317 0.00032578  0.00000141  0.0000298 0.0000
 72  -3217.5040815929  -0.000000282981 0.00035820  0.00000143  0.0000632 0.0000
 73  -3217.5040818756  -0.000000282676 0.00035093  0.00000131  0.0000314 0.0000
                 **** Energy Check signals convergence ****

               *****************************************************
               *                     SUCCESS                       *
               *           SCF CONVERGED AFTER  74 CYCLES          *
               *****************************************************


----------------
TOTAL SCF ENERGY
----------------

Total Energy       :        -3217.50408204 Eh          -87552.73717 eV

Components:
Nuclear Repulsion  :         6986.85597042 Eh          190122.01657 eV
Electronic Energy  :       -10204.36005246 Eh         -277674.75374 eV
One Electron Energy:       -19215.49915639 Eh         -522880.31477 eV
Two Electron Energy:         9011.13910393 Eh          245205.56103 eV

Virial components:
Potential Energy   :        -4992.84693928 Eh         -135862.27232 eV
Kinetic Energy     :         1775.34285723 Eh           48309.53515 eV
Virial Ratio       :            2.81232829


DFT components:
N(Alpha)           :      165.999911853200 electrons
N(Beta)            :      161.999913727349 electrons
N(Total)           :      327.999825580548 electrons
E(X)               :     -240.298612219352 Eh       
E(C)               :      -14.330205265154 Eh       
E(XC)              :     -254.628817484506 Eh       
DFET-embed. en.    :        0.000000000000 Eh       

---------------
SCF CONVERGENCE
---------------

  Last Energy change         ...   -1.6607e-07  Tolerance :   1.0000e-06
  Last MAX-Density change    ...    1.6758e-03  Tolerance :   1.0000e-05
  Last RMS-Density change    ...    2.8206e-06  Tolerance :   1.0000e-06
  Last DIIS Error            ...    2.3076e-05  Tolerance :   1.0000e-06

             **** THE GBW FILE WAS UPDATED (pbeSP.gbw) ****
             **** DENSITY pbeSP.scfp WAS UPDATED ****
             **** ENERGY FILE WAS UPDATED (pbeSP.en.tmp) ****
----------------------
UHF SPIN CONTAMINATION
----------------------

Warning: in a DFT calculation there is little theoretical justification to 
         calculate <S**2> as in Hartree-Fock theory. We will do it anyways
         but you should keep in mind that the values have only limited relevance

Expectation value of <S**2>     :     6.289028
Ideal value S*(S+1) for S=2.0   :     6.000000
Deviation                       :     0.289028

             **** THE GBW FILE WAS UPDATED (pbeSP.gbw) ****
             **** DENSITY pbeSP.scfp WAS UPDATED ****
----------------
ORBITAL ENERGIES
----------------
                 SPIN UP ORBITALS
  NO   OCC          E(Eh)            E(eV) 
   0   1.0000    -214.490374     -5836.5798 
   1   1.0000     -24.290509      -660.9784 
   2   1.0000     -20.655248      -562.0579 
   3   1.0000     -20.653799      -562.0184 
   4   1.0000     -20.652283      -561.9772 
   5   1.0000      -4.035977      -109.8245 
   6   1.0000      -4.032504      -109.7300 
   7   1.0000      -4.032494      -109.7297 
   8   1.0000      -4.032071      -109.7182 
   9   1.0000      -4.030417      -109.6732 
  10   1.0000      -4.030378      -109.6722 
  11   1.0000      -4.030327      -109.6708 
  12   1.0000      -4.030292      -109.6698 
  13   1.0000      -4.028791      -109.6290 
  14   1.0000      -4.028782      -109.6287 
  15   1.0000      -4.028213      -109.6132 
  16   1.0000      -4.027730      -109.6001 
  17   1.0000      -4.022483      -109.4573 
  18   1.0000      -4.022447      -109.4564 
  19   1.0000      -4.021555      -109.4321 
  20   1.0000      -4.021223      -109.4231 
  21   1.0000      -2.797244       -76.1169 
  22   1.0000      -2.254372       -61.3446 
  23   1.0000      -2.249431       -61.2101 
  24   1.0000      -2.248737       -61.1913 
  25   1.0000      -2.248487       -61.1844 
  26   1.0000      -2.248091       -61.1737 
  27   1.0000      -2.247816       -61.1662 
  28   1.0000      -2.247795       -61.1656 
  29   1.0000      -2.245878       -61.1134 
  30   1.0000      -2.245498       -61.1031 
  31   1.0000      -2.245489       -61.1029 
  32   1.0000      -2.245407       -61.1006 
  33   1.0000      -2.244793       -61.0839 
  34   1.0000      -2.244122       -61.0657 
  35   1.0000      -2.244041       -61.0635 
  36   1.0000      -2.243618       -61.0519 
  37   1.0000      -2.243397       -61.0459 
  38   1.0000      -2.243309       -61.0435 
  39   1.0000      -2.242964       -61.0342 
  40   1.0000      -2.242894       -61.0322 
  41   1.0000      -2.242537       -61.0225 
  42   1.0000      -2.242360       -61.0177 
  43   1.0000      -2.242089       -61.0103 
  44   1.0000      -2.241953       -61.0066 
  45   1.0000      -2.241895       -61.0051 
  46   1.0000      -2.241269       -60.9880 
  47   1.0000      -2.241187       -60.9858 
  48   1.0000      -2.241107       -60.9836 
  49   1.0000      -2.240853       -60.9767 
  50   1.0000      -2.240573       -60.9691 
  51   1.0000      -2.240512       -60.9674 
  52   1.0000      -2.239939       -60.9519 
  53   1.0000      -2.239791       -60.9478 
  54   1.0000      -2.239615       -60.9430 
  55   1.0000      -2.239032       -60.9271 
  56   1.0000      -2.238376       -60.9093 
  57   1.0000      -2.238247       -60.9058 
  58   1.0000      -2.237963       -60.8981 
  59   1.0000      -2.237869       -60.8955 
  60   1.0000      -2.236896       -60.8690 
  61   1.0000      -2.235964       -60.8437 
  62   1.0000      -2.235732       -60.8374 
  63   1.0000      -2.234781       -60.8115 
  64   1.0000      -2.234354       -60.7999 
  65   1.0000      -2.233901       -60.7875 
  66   1.0000      -2.233172       -60.7677 
  67   1.0000      -2.233121       -60.7663 
  68   1.0000      -2.232875       -60.7596 
  69   1.0000      -2.230202       -60.6869 
  70   1.0000      -1.788873       -48.6777 
  71   1.0000      -1.787474       -48.6396 
  72   1.0000      -1.785335       -48.5814 
  73   1.0000      -0.437179       -11.8962 
  74   1.0000      -0.401970       -10.9382 
  75   1.0000      -0.390278       -10.6200 
  76   1.0000      -0.388684       -10.5766 
  77   1.0000      -0.377177       -10.2635 
  78   1.0000      -0.377065       -10.2604 
  79   1.0000      -0.373074       -10.1519 
  80   1.0000      -0.370736       -10.0882 
  81   1.0000      -0.369822       -10.0634 
  82   1.0000      -0.367011        -9.9869 
  83   1.0000      -0.364740        -9.9251 
  84   1.0000      -0.360999        -9.8233 
  85   1.0000      -0.357793        -9.7360 
  86   1.0000      -0.354126        -9.6362 
  87   1.0000      -0.353783        -9.6269 
  88   1.0000      -0.351591        -9.5673 
  89   1.0000      -0.351443        -9.5632 
  90   1.0000      -0.348632        -9.4868 
  91   1.0000      -0.345558        -9.4031 
  92   1.0000      -0.345420        -9.3994 
  93   1.0000      -0.343873        -9.3573 
  94   1.0000      -0.343256        -9.3405 
  95   1.0000      -0.339286        -9.2324 
  96   1.0000      -0.338474        -9.2103 
  97   1.0000      -0.337984        -9.1970 
  98   1.0000      -0.333442        -9.0734 
  99   1.0000      -0.333049        -9.0627 
 100   1.0000      -0.330618        -8.9966 
 101   1.0000      -0.329709        -8.9718 
 102   1.0000      -0.327442        -8.9101 
 103   1.0000      -0.323714        -8.8087 
 104   1.0000      -0.323603        -8.8057 
 105   1.0000      -0.319700        -8.6995 
 106   1.0000      -0.318231        -8.6595 
 107   1.0000      -0.313036        -8.5181 
 108   1.0000      -0.312947        -8.5157 
 109   1.0000      -0.309117        -8.4115 
 110   1.0000      -0.306263        -8.3338 
 111   1.0000      -0.306022        -8.3273 
 112   1.0000      -0.304618        -8.2891 
 113   1.0000      -0.298902        -8.1335 
 114   1.0000      -0.298229        -8.1152 
 115   1.0000      -0.296920        -8.0796 
 116   1.0000      -0.292436        -7.9576 
 117   1.0000      -0.292367        -7.9557 
 118   1.0000      -0.288754        -7.8574 
 119   1.0000      -0.288138        -7.8406 
 120   1.0000      -0.286336        -7.7916 
 121   1.0000      -0.283314        -7.7094 
 122   1.0000      -0.281344        -7.6558 
 123   1.0000      -0.280329        -7.6281 
 124   1.0000      -0.279644        -7.6095 
 125   1.0000      -0.278607        -7.5813 
 126   1.0000      -0.275715        -7.5026 
 127   1.0000      -0.274767        -7.4768 
 128   1.0000      -0.274677        -7.4743 
 129   1.0000      -0.273409        -7.4398 
 130   1.0000      -0.273306        -7.4370 
 131   1.0000      -0.271830        -7.3969 
 132   1.0000      -0.270343        -7.3564 
 133   1.0000      -0.268191        -7.2978 
 134   1.0000      -0.266263        -7.2454 
 135   1.0000      -0.265885        -7.2351 
 136   1.0000      -0.263903        -7.1812 
 137   1.0000      -0.262556        -7.1445 
 138   1.0000      -0.262163        -7.1338 
 139   1.0000      -0.261444        -7.1143 
 140   1.0000      -0.261015        -7.1026 
 141   1.0000      -0.260776        -7.0961 
 142   1.0000      -0.259302        -7.0560 
 143   1.0000      -0.257232        -6.9996 
 144   1.0000      -0.256640        -6.9835 
 145   1.0000      -0.252438        -6.8692 
 146   1.0000      -0.251788        -6.8515 
 147   1.0000      -0.250718        -6.8224 
 148   1.0000      -0.249733        -6.7956 
 149   1.0000      -0.248877        -6.7723 
 150   1.0000      -0.247887        -6.7453 
 151   1.0000      -0.247653        -6.7390 
 152   1.0000      -0.244180        -6.6445 
 153   1.0000      -0.244048        -6.6409 
 154   1.0000      -0.242191        -6.5904 
 155   1.0000      -0.241952        -6.5839 
 156   1.0000      -0.233893        -6.3646 
 157   1.0000      -0.231691        -6.3046 
 158   1.0000      -0.223895        -6.0925 
 159   1.0000      -0.219193        -5.9645 
 160   1.0000      -0.215228        -5.8566 
 161   1.0000      -0.213092        -5.7985 
 162   1.0000      -0.206661        -5.6235 
 163   1.0000      -0.197544        -5.3754 
 164   1.0000      -0.191886        -5.2215 
 165   1.0000      -0.180299        -4.9062 
 166   0.0000      -0.173435        -4.7194 
 167   0.0000      -0.167455        -4.5567 
 168   0.0000      -0.144845        -3.9414 
 169   0.0000      -0.138186        -3.7602 
 170   0.0000      -0.136028        -3.7015 
 171   0.0000      -0.123316        -3.3556 
 172   0.0000      -0.117451        -3.1960 
 173   0.0000      -0.107225        -2.9177 
 174   0.0000      -0.105314        -2.8657 
 175   0.0000      -0.071739        -1.9521 
 176   0.0000      -0.070463        -1.9174 
 177   0.0000      -0.064390        -1.7521 
 178   0.0000      -0.062512        -1.7010 
 179   0.0000      -0.053651        -1.4599 
 180   0.0000      -0.044590        -1.2134 
 181   0.0000      -0.039778        -1.0824 
 182   0.0000      -0.033481        -0.9111 
 183   0.0000      -0.025868        -0.7039 
 184   0.0000      -0.017209        -0.4683 
 185   0.0000      -0.016378        -0.4457 
 186   0.0000      -0.010452        -0.2844 
 187   0.0000       0.003530         0.0961 
 188   0.0000       0.004879         0.1328 
 189   0.0000       0.028929         0.7872 
 190   0.0000       0.029710         0.8085 
 191   0.0000       0.038604         1.0505 
 192   0.0000       0.041755         1.1362 
 193   0.0000       0.042268         1.1502 
 194   0.0000       0.043508         1.1839 
 195   0.0000       0.048972         1.3326 
 196   0.0000       0.052624         1.4320 
 197   0.0000       0.060313         1.6412 
 198   0.0000       0.060877         1.6566 
 199   0.0000       0.062623         1.7041 
 200   0.0000       0.064660         1.7595 
 201   0.0000       0.066037         1.7970 
 202   0.0000       0.071039         1.9331 
 203   0.0000       0.074463         2.0262 
 204   0.0000       0.074566         2.0290 
 205   0.0000       0.081770         2.2251 
 206   0.0000       0.084290         2.2936 
 207   0.0000       0.084534         2.3003 
 208   0.0000       0.087409         2.3785 
 209   0.0000       0.094369         2.5679 
 210   0.0000       0.102402         2.7865 
 211   0.0000       0.104615         2.8467 
 212   0.0000       0.109017         2.9665 
 213   0.0000       0.118401         3.2219 
 214   0.0000       0.124066         3.3760 
 215   0.0000       0.128150         3.4871 
 216   0.0000       0.131041         3.5658 
 217   0.0000       0.132237         3.5983 
 218   0.0000       0.136284         3.7085 
 219   0.0000       0.139575         3.7980 
 220   0.0000       0.139656         3.8002 
 221   0.0000       0.141488         3.8501 
 222   0.0000       0.145355         3.9553 
 223   0.0000       0.148931         4.0526 
 224   0.0000       0.155706         4.2370 
 225   0.0000       0.159692         4.3454 
 226   0.0000       0.165064         4.4916 
 227   0.0000       0.167920         4.5693 
 228   0.0000       0.171824         4.6756 
 229   0.0000       0.175748         4.7824 
 230   0.0000       0.178512         4.8576 
 231   0.0000       0.182833         4.9751 
 232   0.0000       0.190865         5.1937 
 233   0.0000       0.194305         5.2873 
 234   0.0000       0.195102         5.3090 
 235   0.0000       0.199284         5.4228 
 236   0.0000       0.204093         5.5536 
 237   0.0000       0.209049         5.6885 
 238   0.0000       0.211569         5.7571 
 239   0.0000       0.215211         5.8562 
 240   0.0000       0.217724         5.9246 
 241   0.0000       0.220084         5.9888 
 242   0.0000       0.227588         6.1930 
 243   0.0000       0.235546         6.4095 
 244   0.0000       0.238897         6.5007 
 245   0.0000       0.240139         6.5345 
 246   0.0000       0.248745         6.7687 
 247   0.0000       0.249533         6.7901 
 248   0.0000       0.252389         6.8679 
 249   0.0000       0.255287         6.9467 
 250   0.0000       0.265940         7.2366 
 251   0.0000       0.267144         7.2693 
 252   0.0000       0.271376         7.3845 
 253   0.0000       0.277085         7.5399 
 254   0.0000       0.283819         7.7231 
 255   0.0000       0.286638         7.7998 
 256   0.0000       0.291098         7.9212 
 257   0.0000       0.294639         8.0175 
 258   0.0000       0.301860         8.2140 
 259   0.0000       0.301955         8.2166 
 260   0.0000       0.306623         8.3436 
 261   0.0000       0.315395         8.5823 
 262   0.0000       0.320926         8.7328 
 263   0.0000       0.321755         8.7554 
 264   0.0000       0.325820         8.8660 
 265   0.0000       0.327020         8.8987 
 266   0.0000       0.329789         8.9740 
 267   0.0000       0.331537         9.0216 
 268   0.0000       0.344565         9.3761 
 269   0.0000       0.344748         9.3811 
 270   0.0000       0.348949         9.4954 
 271   0.0000       0.353881         9.6296 
 272   0.0000       0.354802         9.6547 
 273   0.0000       0.360875         9.8199 
 274   0.0000       0.363162         9.8821 
 275   0.0000       0.368201        10.0193 
 276   0.0000       0.371983        10.1222 
 277   0.0000       0.375524        10.2185 
 278   0.0000       0.379657        10.3310 
 279   0.0000       0.384283        10.4569 
 280   0.0000       0.386515        10.5176 
 281   0.0000       0.388945        10.5837 
 282   0.0000       0.398045        10.8314 
 283   0.0000       0.398931        10.8555 
 284   0.0000       0.404806        11.0153 
 285   0.0000       0.415768        11.3136 
 286   0.0000       0.424869        11.5613 
 287   0.0000       0.432255        11.7623 
 288   0.0000       0.432508        11.7691 
 289   0.0000       0.439305        11.9541 
 290   0.0000       0.439465        11.9584 
 291   0.0000       0.440013        11.9734 
 292   0.0000       0.440297        11.9811 
 293   0.0000       0.450927        12.2703 
 294   0.0000       0.451699        12.2913 
 295   0.0000       0.456782        12.4297 
 296   0.0000       0.459538        12.5047 
 297   0.0000       0.460408        12.5283 
 298   0.0000       0.466341        12.6898 
 299   0.0000       0.471684        12.8352 
 300   0.0000       0.472851        12.8669 
 301   0.0000       0.478200        13.0125 
 302   0.0000       0.481590        13.1047 
 303   0.0000       0.484782        13.1916 
 304   0.0000       0.485021        13.1981 
 305   0.0000       0.493651        13.4329 
 306   0.0000       0.493938        13.4407 
 307   0.0000       0.499438        13.5904 
 308   0.0000       0.501126        13.6363 
 309   0.0000       0.505830        13.7643 
 310   0.0000       0.509013        13.8509 
 311   0.0000       0.518113        14.0986 
 312   0.0000       0.518746        14.1158 
 313   0.0000       0.523165        14.2361 
 314   0.0000       0.525629        14.3031 
 315   0.0000       0.528826        14.3901 
 316   0.0000       0.529023        14.3955 
 317   0.0000       0.529539        14.4095 
 318   0.0000       0.534753        14.5514 
 319   0.0000       0.539805        14.6888 
 320   0.0000       0.540516        14.7082 
 321   0.0000       0.544344        14.8123 
 322   0.0000       0.548594        14.9280 
 323   0.0000       0.553980        15.0746 
 324   0.0000       0.560666        15.2565 
 325   0.0000       0.564534        15.3617 
 326   0.0000       0.568871        15.4798 
 327   0.0000       0.575134        15.6502 
 328   0.0000       0.580507        15.7964 
 329   0.0000       0.584171        15.8961 
 330   0.0000       0.600882        16.3508 
 331   0.0000       0.606657        16.5080 
 332   0.0000       0.609778        16.5929 
 333   0.0000       0.659336        17.9414 
 334   0.0000       0.661976        18.0133 
 335   0.0000       0.676079        18.3971 
 336   0.0000       0.683100        18.5881 
 337   0.0000       0.687005        18.6944 
 338   0.0000       0.699864        19.0443 
 339   0.0000       0.701021        19.0757 
 340   0.0000       0.721718        19.6390 
 341   0.0000       0.727901        19.8072 
 342   0.0000       0.737483        20.0679 
 343   0.0000       0.740059        20.1380 
 344   0.0000       0.750211        20.4143 
 345   0.0000       0.752147        20.4670 
 346   0.0000       0.758949        20.6521 
 347   0.0000       0.770331        20.9618 
 348   0.0000       0.777779        21.1644 
 349   0.0000       0.788319        21.4513 
 350   0.0000       0.808090        21.9893 
 351   0.0000       0.812595        22.1118 
 352   0.0000       0.825404        22.4604 
 353   0.0000       0.833123        22.6704 
 354   0.0000       0.840773        22.8786 
 355   0.0000       0.852879        23.2080 
 356   0.0000       0.860513        23.4157 
 357   0.0000       0.862072        23.4582 
 358   0.0000       0.872071        23.7303 
 359   0.0000       0.877140        23.8682 
 360   0.0000       0.886685        24.1279 
 361   0.0000       0.894094        24.3295 
 362   0.0000       0.894379        24.3373 
 363   0.0000       0.900466        24.5029 
 364   0.0000       0.903253        24.5788 
 365   0.0000       0.910751        24.7828 
 366   0.0000       0.919705        25.0265 
 367   0.0000       0.930402        25.3175 
 368   0.0000       0.931552        25.3488 
 369   0.0000       0.978161        26.6171 
 370   0.0000       0.981658        26.7123 
 371   0.0000       0.986407        26.8415 
 372   0.0000       1.010755        27.5040 
 373   0.0000       1.026559        27.9341 
 374   0.0000       1.051158        28.6035 
 375   0.0000       1.091368        29.6976 
 376   0.0000       1.148461        31.2512 
 377   0.0000       1.163507        31.6606 
 378   0.0000       1.166959        31.7546 
 379   0.0000       1.185224        32.2516 
 380   0.0000       1.195672        32.5359 
 381   0.0000       1.202347        32.7175 
 382   0.0000       1.204197        32.7679 
 383   0.0000       1.222287        33.2601 
 384   0.0000       1.242094        33.7991 
 385   0.0000       1.254470        34.1359 
 386   0.0000       1.262043        34.3419 
 387   0.0000       1.266707        34.4689 
 388   0.0000       1.277949        34.7748 
 389   0.0000       1.286623        35.0108 
 390   0.0000       1.290032        35.1036 
 391   0.0000       1.291956        35.1559 
 392   0.0000       1.294566        35.2269 
 393   0.0000       1.305566        35.5262 
 394   0.0000       1.315761        35.8037 
 395   0.0000       1.320202        35.9245 
 396   0.0000       1.323866        36.0242 
 397   0.0000       1.333312        36.2813 
 398   0.0000       1.336276        36.3619 
 399   0.0000       1.340481        36.4763 
 400   0.0000       1.347230        36.6600 
 401   0.0000       1.349955        36.7342 
 402   0.0000       1.365246        37.1502 
 403   0.0000       1.365767        37.1644 
 404   0.0000       1.376886        37.4670 
 405   0.0000       1.380507        37.5655 
 406   0.0000       1.385124        37.6911 
 407   0.0000       1.392481        37.8913 
 408   0.0000       1.395844        37.9829 
 409   0.0000       1.405032        38.2329 
 410   0.0000       1.406444        38.2713 
 411   0.0000       1.406835        38.2819 
 412   0.0000       1.411404        38.4063 
 413   0.0000       1.413831        38.4723 
 414   0.0000       1.415650        38.5218 
 415   0.0000       1.420792        38.6617 
 416   0.0000       1.421063        38.6691 
 417   0.0000       1.424638        38.7664 
 418   0.0000       1.427539        38.8453 
 419   0.0000       1.427802        38.8525 
 420   0.0000       1.431377        38.9497 
 421   0.0000       1.432712        38.9861 
 422   0.0000       1.438097        39.1326 
 423   0.0000       1.438615        39.1467 
 424   0.0000       1.447195        39.3802 
 425   0.0000       1.447492        39.3882 
 426   0.0000       1.450293        39.4645 
 427   0.0000       1.450950        39.4824 
 428   0.0000       1.453675        39.5565 
 429   0.0000       1.455174        39.5973 
 430   0.0000       1.459713        39.7208 
 431   0.0000       1.462788        39.8045 
 432   0.0000       1.463672        39.8285 
 433   0.0000       1.464046        39.8387 
 434   0.0000       1.465181        39.8696 
 435   0.0000       1.470266        40.0080 
 436   0.0000       1.473140        40.0862 
 437   0.0000       1.473313        40.0909 
 438   0.0000       1.474604        40.1260 
 439   0.0000       1.475600        40.1531 
 440   0.0000       1.475627        40.1538 
 441   0.0000       1.480357        40.2826 
 442   0.0000       1.481248        40.3068 
 443   0.0000       1.482960        40.3534 
 444   0.0000       1.483704        40.3736 
 445   0.0000       1.486013        40.4365 
 446   0.0000       1.487839        40.4862 
 447   0.0000       1.489634        40.5350 
 448   0.0000       1.490167        40.5495 
 449   0.0000       1.491095        40.5748 
 450   0.0000       1.492733        40.6193 
 451   0.0000       1.493646        40.6442 
 452   0.0000       1.495563        40.6963 
 453   0.0000       1.496625        40.7252 
 454   0.0000       1.497329        40.7444 
 455   0.0000       1.499751        40.8103 
 456   0.0000       1.500087        40.8194 
 457   0.0000       1.502220        40.8775 
 458   0.0000       1.502940        40.8971 
 459   0.0000       1.504545        40.9408 
 460   0.0000       1.505574        40.9688 
 461   0.0000       1.505829        40.9757 
 462   0.0000       1.508021        41.0353 
 463   0.0000       1.508471        41.0476 
 464   0.0000       1.511358        41.1261 
 465   0.0000       1.511452        41.1287 
 466   0.0000       1.515819        41.2475 
 467   0.0000       1.515971        41.2517 
 468   0.0000       1.516795        41.2741 
 469   0.0000       1.518746        41.3272 
 470   0.0000       1.519031        41.3349 
 471   0.0000       1.520302        41.3695 
 472   0.0000       1.522377        41.4260 
 473   0.0000       1.525924        41.5225 
 474   0.0000       1.528459        41.5915 
 475   0.0000       1.528708        41.5983 
 476   0.0000       1.529900        41.6307 
 477   0.0000       1.532905        41.7125 
 478   0.0000       1.537200        41.8293 
 479   0.0000       1.539229        41.8846 
 480   0.0000       1.541876        41.9566 
 481   0.0000       1.543434        41.9990 
 482   0.0000       1.544866        42.0379 
 483   0.0000       1.551536        42.2195 
 484   0.0000       1.552256        42.2390 
 485   0.0000       1.553656        42.2771 
 486   0.0000       1.556516        42.3550 
 487   0.0000       1.556700        42.3600 
 488   0.0000       1.560893        42.4740 
 489   0.0000       1.566291        42.6209 
 490   0.0000       1.566628        42.6301 
 491   0.0000       1.568726        42.6872 
 492   0.0000       1.571924        42.7742 
 493   0.0000       1.573354        42.8131 
 494   0.0000       1.574615        42.8475 
 495   0.0000       1.576917        42.9101 
 496   0.0000       1.580409        43.0051 
 497   0.0000       1.581200        43.0266 
 498   0.0000       1.581665        43.0393 
 499   0.0000       1.583275        43.0831 
 500   0.0000       1.584364        43.1127 
 501   0.0000       1.587599        43.2008 
 502   0.0000       1.588927        43.2369 
 503   0.0000       1.590902        43.2906 
 504   0.0000       1.593516        43.3618 
 505   0.0000       1.594014        43.3753 
 506   0.0000       1.597892        43.4809 
 507   0.0000       1.598862        43.5073 
 508   0.0000       1.604702        43.6662 
 509   0.0000       1.605994        43.7013 
 510   0.0000       1.608735        43.7759 
 511   0.0000       1.609997        43.8103 
 512   0.0000       1.612906        43.8894 
 513   0.0000       1.613972        43.9184 
 514   0.0000       1.616778        43.9948 
 515   0.0000       1.624633        44.2085 
 516   0.0000       1.626817        44.2679 
 517   0.0000       1.627206        44.2785 
 518   0.0000       1.632660        44.4270 
 519   0.0000       1.633480        44.4493 
 520   0.0000       1.639534        44.6140 
 521   0.0000       1.640545        44.6415 
 522   0.0000       1.649150        44.8757 
 523   0.0000       1.654450        45.0199 
 524   0.0000       1.656605        45.0785 
 525   0.0000       1.662389        45.2359 
 526   0.0000       1.664352        45.2893 
 527   0.0000       1.668997        45.4157 
 528   0.0000       1.672494        45.5109 
 529   0.0000       1.685740        45.8713 
 530   0.0000       1.687738        45.9257 
 531   0.0000       1.692501        46.0553 
 532   0.0000       1.696054        46.1520 
 533   0.0000       1.707495        46.4633 
 534   0.0000       1.712907        46.6106 
 535   0.0000       1.716269        46.7021 
 536   0.0000       1.726741        46.9870 
 537   0.0000       1.728601        47.0376 
 538   0.0000       1.732734        47.1501 
 539   0.0000       1.734634        47.2018 
 540   0.0000       1.739139        47.3244 
 541   0.0000       1.745471        47.4967 
 542   0.0000       1.748191        47.5707 
 543   0.0000       1.755673        47.7743 
 544   0.0000       1.755825        47.7784 
 545   0.0000       1.762432        47.9582 
 546   0.0000       1.765652        48.0458 
 547   0.0000       1.765855        48.0514 
 548   0.0000       1.768002        48.1098 
 549   0.0000       1.770263        48.1713 
 550   0.0000       1.776748        48.3478 
 551   0.0000       1.781905        48.4881 
 552   0.0000       1.782630        48.5078 
 553   0.0000       1.784655        48.5629 
 554   0.0000       1.785756        48.5929 
 555   0.0000       1.799873        48.9770 
 556   0.0000       1.802167        49.0395 
 557   0.0000       1.805026        49.1172 
 558   0.0000       1.817016        49.4435 
 559   0.0000       1.826973        49.7145 
 560   0.0000       1.835182        49.9378 
 561   0.0000       1.849381        50.3242 
 562   0.0000       1.851570        50.3838 
 563   0.0000       1.853145        50.4266 
 564   0.0000       1.875430        51.0330 
 565   0.0000       1.879366        51.1402 
 566   0.0000       1.893503        51.5248 
 567   0.0000       1.914526        52.0969 
 568   0.0000       1.918679        52.2099 
 569   0.0000       1.919613        52.2353 
 570   0.0000       1.933266        52.6068 
 571   0.0000       2.005854        54.5821 
 572   0.0000       2.070798        56.3493 
 573   0.0000       2.188076        59.5406 
 574   0.0000       2.247851        61.1671 
 575   0.0000       2.297846        62.5276 
 576   0.0000       2.298941        62.5574 
 577   0.0000       2.315727        63.0141 
 578   0.0000       2.360926        64.2441 
 579   0.0000       2.370436        64.5028 
 580   0.0000       2.415547        65.7304 
 581   0.0000       2.422683        65.9245 
 582   0.0000       2.423423        65.9447 
 583   0.0000       2.425096        65.9902 
 584   0.0000       2.429190        66.1016 
 585   0.0000       2.430216        66.1295 
 586   0.0000       2.457743        66.8786 
 587   0.0000       2.480058        67.4858 
 588   0.0000       2.496233        67.9260 
 589   0.0000       2.538651        69.0802 
 590   0.0000       2.541791        69.1656 
 591   0.0000       2.561685        69.7070 
 592   0.0000       2.577631        70.1409 
 593   0.0000       2.595149        70.6176 
 594   0.0000       2.598326        70.7040 
 595   0.0000       2.628528        71.5259 
 596   0.0000       2.660573        72.3979 
 597   0.0000       2.861153        77.8559 
 598   0.0000       2.863929        77.9315 
 599   0.0000       2.866632        78.0050 
 600   0.0000       2.870712        78.1161 
 601   0.0000       2.875148        78.2368 
 602   0.0000       2.881423        78.4075 
 603   0.0000       2.891350        78.6776 
 604   0.0000       3.055432        83.1425 
 605   0.0000      23.993198       652.8881 
 606   0.0000      24.015583       653.4972 
 607   0.0000      24.328006       661.9987 
 608   0.0000      24.495095       666.5454 
 609   0.0000      24.592137       669.1861 
 610   0.0000      24.598852       669.3688 
 611   0.0000      24.912425       677.9015 
 612   0.0000      24.968274       679.4213 
 613   0.0000      25.171288       684.9456 
 614   0.0000      25.265587       687.5116 
 615   0.0000      25.286271       688.0744 
 616   0.0000      25.375062       690.4905 
 617   0.0000      25.507929       694.1060 
 618   0.0000      25.633371       697.5195 
 619   0.0000      25.670741       698.5364 
 620   0.0000      25.761361       701.0023 
 621   0.0000      25.800889       702.0779 
 622   0.0000      26.081047       709.7014 
 623   0.0000      26.117461       710.6922 
 624   0.0000      26.124503       710.8839 
 625   0.0000      26.217948       713.4266 
 626   0.0000      26.250453       714.3111 
 627   0.0000      26.393374       718.2002 
 628   0.0000      26.468736       720.2509 
 629   0.0000      26.546902       722.3779 
 630   0.0000      26.633816       724.7430 
 631   0.0000      26.656936       725.3721 
 632   0.0000      26.698245       726.4962 
 633   0.0000      26.955339       733.4921 
 634   0.0000      26.961994       733.6732 
 635   0.0000      27.082542       736.9534 
 636   0.0000      27.092394       737.2215 
 637   0.0000      27.194035       739.9873 
 638   0.0000      27.245180       741.3790 
 639   0.0000      27.359763       744.4970 
 640   0.0000      27.362632       744.5751 
 641   0.0000      27.467384       747.4255 
 642   0.0000      27.768235       755.6121 
 643   0.0000      27.997345       761.8465 
 644   0.0000      28.226710       768.0878 
 645   0.0000      28.341537       771.2124 
 646   0.0000      28.542914       776.6922 
 647   0.0000      28.721823       781.5605 
 648   0.0000      28.742686       782.1282 
 649   0.0000      29.414721       800.4152 
 650   0.0000      29.453286       801.4647 
 651   0.0000      29.598226       805.4087 
 652   0.0000      32.694998       889.6761 
 653   0.0000      43.925311      1195.2685 
 654   0.0000      44.035756      1198.2738 
 655   0.0000      44.075497      1199.3552 
 656   0.0000      44.086713      1199.6605 
 657   0.0000      44.093189      1199.8367 
 658   0.0000      44.120451      1200.5785 
 659   0.0000      44.120632      1200.5834 
 660   0.0000      44.133436      1200.9319 
 661   0.0000      44.148177      1201.3330 
 662   0.0000      44.157843      1201.5960 
 663   0.0000      44.172845      1202.0042 
 664   0.0000      44.191943      1202.5239 
 665   0.0000      44.198342      1202.6980 
 666   0.0000      44.222865      1203.3653 
 667   0.0000      44.259131      1204.3522 
 668   0.0000      44.322386      1206.0734 
 669   0.0000     205.096247      5580.9526 
 670   0.0000     205.137601      5582.0779 
 671   0.0000     205.158839      5582.6558 
 672   0.0000     205.163413      5582.7803 
 673   0.0000     205.167614      5582.8946 
 674   0.0000     205.180909      5583.2564 
 675   0.0000     205.181572      5583.2744 
 676   0.0000     205.186009      5583.3952 
 677   0.0000     205.190160      5583.5081 
 678   0.0000     205.196465      5583.6797 
 679   0.0000     205.201944      5583.8288 
 680   0.0000     205.210711      5584.0673 
 681   0.0000     205.213014      5584.1300 
 682   0.0000     205.223956      5584.4278 
 683   0.0000     205.234365      5584.7110 
 684   0.0000     205.258634      5585.3714 

                 SPIN DOWN ORBITALS
  NO   OCC          E(Eh)            E(eV) 
   0   1.0000    -214.489970     -5836.5688 
   1   1.0000     -24.243013      -659.6859 
   2   1.0000     -20.620410      -561.1099 
   3   1.0000     -20.618166      -561.0488 
   4   1.0000     -20.613924      -560.9334 
   5   1.0000      -4.035181      -109.8028 
   6   1.0000      -4.031656      -109.7069 
   7   1.0000      -4.031641      -109.7065 
   8   1.0000      -4.031609      -109.7057 
   9   1.0000      -4.029805      -109.6566 
  10   1.0000      -4.029767      -109.6555 
  11   1.0000      -4.029709      -109.6540 
  12   1.0000      -4.029674      -109.6530 
  13   1.0000      -4.028172      -109.6121 
  14   1.0000      -4.028162      -109.6119 
  15   1.0000      -4.027122      -109.5836 
  16   1.0000      -4.026665      -109.5711 
  17   1.0000      -4.022225      -109.4503 
  18   1.0000      -4.022191      -109.4494 
  19   1.0000      -4.021089      -109.4194 
  20   1.0000      -4.020667      -109.4079 
  21   1.0000      -2.669099       -72.6299 
  22   1.0000      -2.253147       -61.3112 
  23   1.0000      -2.248800       -61.1930 
  24   1.0000      -2.247763       -61.1647 
  25   1.0000      -2.247515       -61.1580 
  26   1.0000      -2.247348       -61.1535 
  27   1.0000      -2.247067       -61.1458 
  28   1.0000      -2.246836       -61.1395 
  29   1.0000      -2.245092       -61.0921 
  30   1.0000      -2.244868       -61.0860 
  31   1.0000      -2.244738       -61.0824 
  32   1.0000      -2.244351       -61.0719 
  33   1.0000      -2.243954       -61.0611 
  34   1.0000      -2.243358       -61.0449 
  35   1.0000      -2.243316       -61.0437 
  36   1.0000      -2.242833       -61.0306 
  37   1.0000      -2.242773       -61.0290 
  38   1.0000      -2.242743       -61.0282 
  39   1.0000      -2.242306       -61.0163 
  40   1.0000      -2.242101       -61.0107 
  41   1.0000      -2.241703       -60.9999 
  42   1.0000      -2.241513       -60.9947 
  43   1.0000      -2.241360       -60.9905 
  44   1.0000      -2.241270       -60.9881 
  45   1.0000      -2.240958       -60.9796 
  46   1.0000      -2.240564       -60.9688 
  47   1.0000      -2.240366       -60.9635 
  48   1.0000      -2.240270       -60.9608 
  49   1.0000      -2.240156       -60.9578 
  50   1.0000      -2.239941       -60.9519 
  51   1.0000      -2.239496       -60.9398 
  52   1.0000      -2.239397       -60.9371 
  53   1.0000      -2.239013       -60.9266 
  54   1.0000      -2.238539       -60.9138 
  55   1.0000      -2.238200       -60.9045 
  56   1.0000      -2.237821       -60.8942 
  57   1.0000      -2.237583       -60.8877 
  58   1.0000      -2.237384       -60.8823 
  59   1.0000      -2.237256       -60.8788 
  60   1.0000      -2.236422       -60.8561 
  61   1.0000      -2.235408       -60.8285 
  62   1.0000      -2.235345       -60.8268 
  63   1.0000      -2.234529       -60.8046 
  64   1.0000      -2.234033       -60.7911 
  65   1.0000      -2.233662       -60.7810 
  66   1.0000      -2.232889       -60.7600 
  67   1.0000      -2.232675       -60.7542 
  68   1.0000      -2.232285       -60.7436 
  69   1.0000      -2.229771       -60.6752 
  70   1.0000      -1.667711       -45.3807 
  71   1.0000      -1.663046       -45.2538 
  72   1.0000      -1.652227       -44.9594 
  73   1.0000      -0.430467       -11.7136 
  74   1.0000      -0.399193       -10.8626 
  75   1.0000      -0.388584       -10.5739 
  76   1.0000      -0.387149       -10.5349 
  77   1.0000      -0.374386       -10.1876 
  78   1.0000      -0.373866       -10.1734 
  79   1.0000      -0.368747       -10.0341 
  80   1.0000      -0.367324        -9.9954 
  81   1.0000      -0.366049        -9.9607 
  82   1.0000      -0.363393        -9.8884 
  83   1.0000      -0.362444        -9.8626 
  84   1.0000      -0.358104        -9.7445 
  85   1.0000      -0.355587        -9.6760 
  86   1.0000      -0.352933        -9.6038 
  87   1.0000      -0.352266        -9.5856 
  88   1.0000      -0.350832        -9.5466 
  89   1.0000      -0.350415        -9.5353 
  90   1.0000      -0.347541        -9.4571 
  91   1.0000      -0.344775        -9.3818 
  92   1.0000      -0.344343        -9.3701 
  93   1.0000      -0.343260        -9.3406 
  94   1.0000      -0.342708        -9.3256 
  95   1.0000      -0.338017        -9.1979 
  96   1.0000      -0.337863        -9.1937 
  97   1.0000      -0.337238        -9.1767 
  98   1.0000      -0.332254        -9.0411 
  99   1.0000      -0.331633        -9.0242 
 100   1.0000      -0.329601        -8.9689 
 101   1.0000      -0.328615        -8.9421 
 102   1.0000      -0.325786        -8.8651 
 103   1.0000      -0.322867        -8.7856 
 104   1.0000      -0.322675        -8.7804 
 105   1.0000      -0.318877        -8.6771 
 106   1.0000      -0.317252        -8.6329 
 107   1.0000      -0.312346        -8.4994 
 108   1.0000      -0.311133        -8.4664 
 109   1.0000      -0.307121        -8.3572 
 110   1.0000      -0.304621        -8.2891 
 111   1.0000      -0.304477        -8.2853 
 112   1.0000      -0.302169        -8.2224 
 113   1.0000      -0.296600        -8.0709 
 114   1.0000      -0.296456        -8.0670 
 115   1.0000      -0.292897        -7.9701 
 116   1.0000      -0.290101        -7.8941 
 117   1.0000      -0.288847        -7.8599 
 118   1.0000      -0.287166        -7.8142 
 119   1.0000      -0.287002        -7.8097 
 120   1.0000      -0.283322        -7.7096 
 121   1.0000      -0.281684        -7.6650 
 122   1.0000      -0.280491        -7.6325 
 123   1.0000      -0.279869        -7.6156 
 124   1.0000      -0.277770        -7.5585 
 125   1.0000      -0.277172        -7.5422 
 126   1.0000      -0.275291        -7.4910 
 127   1.0000      -0.273887        -7.4528 
 128   1.0000      -0.273855        -7.4520 
 129   1.0000      -0.272914        -7.4264 
 130   1.0000      -0.272460        -7.4140 
 131   1.0000      -0.271456        -7.3867 
 132   1.0000      -0.269142        -7.3237 
 133   1.0000      -0.267819        -7.2877 
 134   1.0000      -0.266236        -7.2446 
 135   1.0000      -0.264859        -7.2072 
 136   1.0000      -0.263498        -7.1701 
 137   1.0000      -0.261589        -7.1182 
 138   1.0000      -0.261289        -7.1100 
 139   1.0000      -0.260808        -7.0969 
 140   1.0000      -0.260359        -7.0847 
 141   1.0000      -0.260308        -7.0834 
 142   1.0000      -0.258337        -7.0297 
 143   1.0000      -0.256514        -6.9801 
 144   1.0000      -0.255464        -6.9515 
 145   1.0000      -0.251864        -6.8536 
 146   1.0000      -0.251230        -6.8363 
 147   1.0000      -0.249719        -6.7952 
 148   1.0000      -0.249078        -6.7778 
 149   1.0000      -0.247866        -6.7448 
 150   1.0000      -0.247131        -6.7248 
 151   1.0000      -0.246770        -6.7149 
 152   1.0000      -0.243312        -6.6209 
 153   1.0000      -0.242775        -6.6063 
 154   1.0000      -0.241087        -6.5603 
 155   1.0000      -0.241023        -6.5586 
 156   1.0000      -0.233001        -6.3403 
 157   1.0000      -0.228963        -6.2304 
 158   1.0000      -0.219737        -5.9794 
 159   1.0000      -0.211217        -5.7475 
 160   1.0000      -0.201475        -5.4824 
 161   1.0000      -0.199423        -5.4266 
 162   0.0000      -0.181019        -4.9258 
 163   0.0000      -0.152134        -4.1398 
 164   0.0000      -0.143015        -3.8916 
 165   0.0000      -0.136068        -3.7026 
 166   0.0000      -0.125581        -3.4172 
 167   0.0000      -0.114485        -3.1153 
 168   0.0000      -0.111578        -3.0362 
 169   0.0000      -0.107847        -2.9347 
 170   0.0000      -0.106413        -2.8956 
 171   0.0000      -0.098708        -2.6860 
 172   0.0000      -0.096667        -2.6305 
 173   0.0000      -0.095755        -2.6056 
 174   0.0000      -0.092677        -2.5219 
 175   0.0000      -0.070326        -1.9137 
[...]
      f+1     :     0.000931
      f-1     :     0.001000
      f+2     :     0.000870
      f-2     :     0.000814
      f+3     :     0.000975
      f-3     :     0.000731
 10 Aus       :     2.486074  s :     2.486074
      pz      :     2.133023  p :     6.565505
      px      :     2.220740
      py      :     2.211742
      dz2     :     1.988296  d :     9.887333
      dxz     :     1.952264
      dyz     :     1.991975
      dx2y2   :     1.969811
      dxy     :     1.984987
      f0      :     0.000744  f :     0.006937
      f+1     :     0.000955
      f-1     :     0.000724
      f+2     :     0.001502
      f-2     :     0.000842
      f+3     :     0.001203
      f-3     :     0.000967
 11 Aus       :     2.522072  s :     2.522072
      pz      :     2.097384  p :     6.454637
      px      :     2.183557
      py      :     2.173697
      dz2     :     1.950064  d :     9.871498
      dxz     :     1.989839
      dyz     :     1.987541
      dx2y2   :     1.962371
      dxy     :     1.981683
      f0      :     0.000760  f :     0.005513
      f+1     :     0.000822
      f-1     :     0.000755
      f+2     :     0.001016
      f-2     :     0.000755
      f+3     :     0.000865
      f-3     :     0.000541
 12 Aus       :     2.479073  s :     2.479073
      pz      :     2.183392  p :     6.531703
      px      :     2.229287
      py      :     2.119025
      dz2     :     1.973385  d :     9.877703
      dxz     :     1.979066
      dyz     :     1.996810
      dx2y2   :     1.948360
      dxy     :     1.980081
      f0      :     0.000651  f :     0.006245
      f+1     :     0.001001
      f-1     :     0.000889
      f+2     :     0.000800
      f-2     :     0.000762
      f+3     :     0.000945
      f-3     :     0.001197
 13 Aus       :     2.471229  s :     2.471229
      pz      :     2.171108  p :     6.669387
      px      :     2.303083
      py      :     2.195196
      dz2     :     1.999817  d :     9.911316
      dxz     :     1.981292
      dyz     :     1.959731
      dx2y2   :     1.983167
      dxy     :     1.987309
      f0      :     0.000848  f :     0.008091
      f+1     :     0.001431
      f-1     :     0.000832
      f+2     :     0.000886
      f-2     :     0.001187
      f+3     :     0.001395
      f-3     :     0.001512
 14 Aus       :     2.547351  s :     2.547351
      pz      :     2.121262  p :     6.462278
      px      :     2.146582
      py      :     2.194434
      dz2     :     1.998629  d :     9.918835
      dxz     :     1.982250
      dyz     :     1.980891
      dx2y2   :     1.989311
      dxy     :     1.967755
      f0      :     0.000835  f :     0.005747
      f+1     :     0.000804
      f-1     :     0.000930
      f+2     :     0.000562
      f-2     :     0.000778
      f+3     :     0.000862
      f-3     :     0.000975
 15 Aus       :     2.726875  s :     2.726875
      pz      :     2.117639  p :     6.331280
      px      :     2.091970
      py      :     2.121670
      dz2     :     1.973781  d :     9.879299
      dxz     :     1.983301
      dyz     :     1.970857
      dx2y2   :     1.974603
      dxy     :     1.976757
      f0      :     0.000448  f :     0.004036
      f+1     :     0.000656
      f-1     :     0.000673
      f+2     :     0.000660
      f-2     :     0.000353
      f+3     :     0.000564
      f-3     :     0.000683
 16 Crs       :     6.234569  s :     6.234569
      pz      :     4.200352  p :    12.575980
      px      :     4.179191
      py      :     4.196438
      dz2     :     1.311750  d :     6.616797
      dxz     :     1.325341
      dyz     :     1.263859
      dx2y2   :     1.413684
      dxy     :     1.302163
      f0      :     0.000302  f :     0.001916
      f+1     :     0.000250
      f-1     :     0.000293
      f+2     :     0.000221
      f-2     :     0.000324
      f+3     :     0.000202
      f-3     :     0.000324

SPIN
  0 Aus       :    -0.030233  s :    -0.030233
      pz      :    -0.025624  p :    -0.041271
      px      :    -0.001616
      py      :    -0.014031
      dz2     :    -0.005314  d :     0.003418
      dxz     :     0.006871
      dyz     :     0.000383
      dx2y2   :     0.001153
      dxy     :     0.000324
      f0      :     0.000043  f :     0.000394
      f+1     :     0.000040
      f-1     :     0.000010
      f+2     :     0.000071
      f-2     :     0.000148
      f+3     :     0.000022
      f-3     :     0.000059
  1 Aus       :    -0.037372  s :    -0.037372
      pz      :    -0.001460  p :    -0.042641
      px      :    -0.014476
      py      :    -0.026705
      dz2     :     0.011268  d :     0.019216
      dxz     :     0.006506
      dyz     :     0.003282
      dx2y2   :    -0.001002
      dxy     :    -0.000838
      f0      :     0.000196  f :     0.000414
      f+1     :     0.000087
      f-1     :     0.000176
      f+2     :     0.000009
      f-2     :     0.000008
      f+3     :    -0.000051
      f-3     :    -0.000011
  2 Aus       :    -0.042074  s :    -0.042074
      pz      :    -0.028680  p :    -0.050471
      px      :    -0.019965
      py      :    -0.001826
      dz2     :     0.002991  d :     0.004287
      dxz     :    -0.008078
      dyz     :     0.002270
      dx2y2   :     0.001807
      dxy     :     0.005297
      f0      :     0.000029  f :     0.000375
      f+1     :    -0.000002
      f-1     :     0.000067
      f+2     :     0.000069
      f-2     :    -0.000010
      f+3     :     0.000055
      f-3     :     0.000167
  3 Aus       :    -0.028715  s :    -0.028715
      pz      :    -0.020860  p :    -0.028218
      px      :     0.010300
      py      :    -0.017658
      dz2     :     0.002536  d :     0.023900
      dxz     :     0.004495
      dyz     :    -0.000873
      dx2y2   :     0.003692
      dxy     :     0.014050
      f0      :    -0.000061  f :     0.000228
      f+1     :     0.000062
      f-1     :     0.000014
      f+2     :     0.000017
      f-2     :     0.000016
      f+3     :     0.000064
      f-3     :     0.000116
  4 Aus       :    -0.057817  s :    -0.057817
      pz      :    -0.015687  p :    -0.050232
      px      :    -0.017476
      py      :    -0.017070
      dz2     :    -0.001132  d :    -0.001321
      dxz     :     0.002759
      dyz     :     0.001861
      dx2y2   :    -0.004740
      dxy     :    -0.000069
      f0      :     0.000021  f :     0.000408
      f+1     :     0.000051
      f-1     :     0.000112
      f+2     :     0.000074
      f-2     :     0.000124
      f+3     :     0.000005
      f-3     :     0.000021
  5 Aus       :    -0.098295  s :    -0.098295
      pz      :    -0.007106  p :    -0.027893
      px      :    -0.013335
      py      :    -0.007452
      dz2     :     0.000534  d :     0.006200
      dxz     :     0.000941
      dyz     :     0.002136
      dx2y2   :     0.001286
      dxy     :     0.001303
      f0      :     0.000047  f :     0.000384
      f+1     :     0.000023
      f-1     :     0.000020
      f+2     :     0.000030
      f-2     :     0.000150
      f+3     :     0.000060
      f-3     :     0.000054
  6 Aus       :    -0.030100  s :    -0.030100
      pz      :    -0.016296  p :    -0.041351
      px      :     0.001593
      py      :    -0.026648
      dz2     :    -0.001006  d :     0.003328
      dxz     :     0.001211
      dyz     :    -0.004524
      dx2y2   :     0.000396
      dxy     :     0.007251
      f0      :     0.000040  f :     0.000393
      f+1     :     0.000061
      f-1     :     0.000010
      f+2     :     0.000018
      f-2     :     0.000028
      f+3     :     0.000056
      f-3     :     0.000181
  7 Aus       :    -0.050601  s :    -0.050601
      pz      :    -0.016618  p :    -0.050784
      px      :    -0.015293
      py      :    -0.018873
      dz2     :    -0.002604  d :    -0.008754
      dxz     :     0.000009
      dyz     :     0.001586
      dx2y2   :    -0.007091
      dxy     :    -0.000653
      f0      :     0.000006  f :     0.000314
      f+1     :     0.000059
      f-1     :     0.000043
      f+2     :     0.000043
      f-2     :     0.000125
      f+3     :     0.000004
      f-3     :     0.000033
  8 Aus       :     0.011023  s :     0.011023
      pz      :    -0.016093  p :    -0.021331
      px      :    -0.005830
      py      :     0.000592
      dz2     :    -0.001719  d :    -0.018067
      dxz     :    -0.010849
      dyz     :    -0.004696
      dx2y2   :    -0.003060
      dxy     :     0.002257
      f0      :     0.000003  f :    -0.000025
      f+1     :    -0.000012
      f-1     :     0.000005
      f+2     :    -0.000009
      f-2     :    -0.000014
      f+3     :    -0.000000
      f-3     :     0.000001
  9 Aus       :     0.028654  s :     0.028654
      pz      :    -0.002308  p :    -0.005463
      px      :     0.001134
      py      :    -0.004289
      dz2     :    -0.000207  d :    -0.022200
      dxz     :    -0.000404
      dyz     :    -0.019014
      dx2y2   :    -0.002004
      dxy     :    -0.000571
      f0      :     0.000006  f :    -0.000024
      f+1     :    -0.000001
      f-1     :    -0.000013
      f+2     :     0.000000
      f-2     :    -0.000019
      f+3     :     0.000006
      f-3     :    -0.000004
 10 Aus       :    -0.028717  s :    -0.028717
      pz      :    -0.015182  p :    -0.028248
      px      :     0.005803
      py      :    -0.018869
      dz2     :     0.004464  d :     0.023749
      dxz     :     0.010751
      dyz     :     0.001458
      dx2y2   :     0.006049
      dxy     :     0.001027
      f0      :    -0.000008  f :     0.000227
      f+1     :     0.000111
      f-1     :     0.000001
      f+2     :     0.000060
      f-2     :     0.000087
      f+3     :     0.000006
      f-3     :    -0.000031
 11 Aus       :    -0.041847  s :    -0.041847
      pz      :    -0.005838  p :    -0.050614
      px      :    -0.017636
      py      :    -0.027140
      dz2     :     0.004339  d :     0.004159
      dxz     :     0.004175
      dyz     :     0.003936
      dx2y2   :    -0.000115
      dxy     :    -0.008176
      f0      :     0.000168  f :     0.000373
      f+1     :     0.000071
      f-1     :     0.000130
      f+2     :     0.000017
      f-2     :    -0.000007
      f+3     :     0.000000
      f-3     :    -0.000006
 12 Aus       :    -0.037331  s :    -0.037331
      pz      :    -0.027935  p :    -0.042618
      px      :    -0.016324
      py      :     0.001641
      dz2     :     0.000556  d :     0.019133
      dxz     :    -0.000092
      dyz     :     0.002756
      dx2y2   :     0.006656
      dxy     :     0.009257
      f0      :     0.000026  f :     0.000412
      f+1     :    -0.000010
      f-1     :     0.000080
      f+2     :     0.000080
      f-2     :    -0.000003
      f+3     :     0.000118
      f-3     :     0.000121
 13 Aus       :    -0.016460  s :    -0.016460
      pz      :    -0.005033  p :    -0.018241
      px      :    -0.008960
      py      :    -0.004249
      dz2     :    -0.001609  d :    -0.015918
      dxz     :    -0.000372
      dyz     :    -0.001625
      dx2y2   :    -0.004565
      dxy     :    -0.007747
      f0      :     0.000021  f :     0.000152
      f+1     :     0.000014
      f-1     :     0.000034
      f+2     :     0.000024
      f-2     :     0.000034
      f+3     :     0.000016
      f-3     :     0.000010
 14 Aus       :     0.010764  s :     0.010764
      pz      :     0.000992  p :    -0.021490
      px      :    -0.002346
      py      :    -0.020136
      dz2     :    -0.003159  d :    -0.018141
      dxz     :     0.001673
      dyz     :    -0.003080
      dx2y2   :    -0.005276
      dxy     :    -0.008299
      f0      :    -0.000001  f :    -0.000025
      f+1     :    -0.000004
      f-1     :     0.000001
      f+2     :    -0.000002
      f-2     :    -0.000004
      f+3     :    -0.000004
      f-3     :    -0.000011
 15 Aus       :    -0.132734  s :    -0.132734
      pz      :     0.002312  p :    -0.006377
      px      :    -0.006834
      py      :    -0.001855
      dz2     :     0.002660  d :     0.001491
      dxz     :    -0.001356
      dyz     :     0.001186
      dx2y2   :     0.001467
      dxy     :    -0.002466
      f0      :    -0.000008  f :     0.000027
      f+1     :     0.000005
      f-1     :     0.000008
      f+2     :     0.000010
      f-2     :     0.000004
      f+3     :    -0.000003
      f-3     :     0.000012
 16 Crs       :     0.015526  s :     0.015526
      pz      :     0.011898  p :     0.037072
      px      :     0.013045
      py      :     0.012128
      dz2     :     0.578367  d :     3.027920
      dxz     :     0.626994
      dyz     :     0.446562
      dx2y2   :     0.788642
      dxy     :     0.587356
      f0      :     0.000014  f :     0.000071
      f+1     :     0.000008
      f-1     :     0.000012
      f+2     :     0.000009
      f-2     :     0.000012
      f+3     :     0.000004
      f-3     :     0.000011


                      *****************************
                      * MAYER POPULATION ANALYSIS *
                      *****************************

  NA   - Mulliken gross atomic population
  ZA   - Total nuclear charge
  QA   - Mulliken gross atomic charge
  VA   - Mayer's total valence
  BVA  - Mayer's bonded valence
  FA   - Mayer's free valence

  ATOM       NA         ZA         QA         VA         BVA        FA
  0 Au    18.3926    19.0000     0.6074     1.6467     1.6450     0.0017
  1 Au    18.6156    19.0000     0.3844     2.0246     2.0209     0.0037
  2 Au    18.3418    19.0000     0.6582     1.6620     1.6594     0.0026
  3 Au    18.9089    19.0000     0.0911     2.1174     2.1150     0.0024
  4 Au    18.3724    19.0000     0.6276     1.7607     1.7561     0.0046
  5 Au    18.4396    19.0000     0.5604     1.6145     1.5976     0.0169
  6 Au    18.3927    19.0000     0.6073     1.6473     1.6456     0.0017
  7 Au    18.3211    19.0000     0.6789     1.6492     1.6452     0.0040
  8 Au    18.6536    19.0000     0.3464     1.5732     1.5710     0.0022
  9 Au    18.7788    19.0000     0.2212     1.5900     1.5844     0.0056
 10 Au    18.9088    19.0000     0.0912     2.1178     2.1154     0.0024
 11 Au    18.3423    19.0000     0.6577     1.6623     1.6597     0.0026
 12 Au    18.6151    19.0000     0.3849     2.0240     2.0203     0.0037
 13 Au    19.6600    19.0000    -0.6600     2.6689     2.6654     0.0035
 14 Au    18.6540    19.0000     0.3460     1.5732     1.5710     0.0021
 15 Au    18.5755    19.0000     0.4245     1.4806     1.4335     0.0471
 16 Cr    30.0273    24.0000    -6.0273    10.1223     7.3489     2.7734

  Mayer bond orders larger than 0.100000
B(  0-Au,  1-Au) :   0.2328 B(  0-Au,  2-Au) :   0.1854 B(  0-Au,  5-Au) :   0.1885 
B(  0-Au,  6-Au) :   0.1044 B(  0-Au,  7-Au) :   0.1981 B(  0-Au, 16-Cr) :   0.4505 
B(  1-Au,  2-Au) :   0.1781 B(  1-Au,  3-Au) :   0.1180 B(  1-Au, 13-Au) :   0.2610 
B(  1-Au, 14-Au) :   0.2698 B(  1-Au, 16-Cr) :   0.5604 B(  2-Au,  3-Au) :   0.2251 
B(  2-Au,  4-Au) :   0.1570 B(  2-Au,  5-Au) :   0.1279 B(  2-Au, 16-Cr) :   0.5333 
B(  3-Au,  4-Au) :   0.1823 B(  3-Au,  9-Au) :   0.2972 B(  3-Au, 10-Au) :   0.1548 
B(  3-Au, 14-Au) :   0.2185 B(  3-Au, 16-Cr) :   0.5438 B(  4-Au,  5-Au) :   0.1739 
B(  4-Au, 10-Au) :   0.1820 B(  4-Au, 11-Au) :   0.1579 B(  4-Au, 16-Cr) :   0.6325 
B(  5-Au,  6-Au) :   0.1888 B(  5-Au, 11-Au) :   0.1271 B(  5-Au, 16-Cr) :   0.4867 
B(  6-Au,  7-Au) :   0.1985 B(  6-Au, 11-Au) :   0.1863 B(  6-Au, 12-Au) :   0.2315 
B(  6-Au, 16-Cr) :   0.4508 B(  7-Au, 13-Au) :   0.2875 B(  7-Au, 16-Cr) :   0.5598 
B(  8-Au,  9-Au) :   0.1556 B(  8-Au, 10-Au) :   0.2188 B(  8-Au, 12-Au) :   0.2701 
B(  8-Au, 13-Au) :   0.2869 B(  8-Au, 15-Au) :   0.1914 B(  8-Au, 16-Cr) :   0.3509 
B(  9-Au, 10-Au) :   0.2972 B(  9-Au, 13-Au) :   0.1674 B(  9-Au, 14-Au) :   0.1552 
B(  9-Au, 15-Au) :   0.2155 B(  9-Au, 16-Cr) :   0.2726 B( 10-Au, 11-Au) :   0.2249 
B( 10-Au, 12-Au) :   0.1193 B( 10-Au, 16-Cr) :   0.5439 B( 11-Au, 12-Au) :   0.1784 
B( 11-Au, 16-Cr) :   0.5325 B( 12-Au, 13-Au) :   0.2607 B( 12-Au, 16-Cr) :   0.5603 
B( 13-Au, 14-Au) :   0.2862 B( 13-Au, 15-Au) :   0.4372 B( 13-Au, 16-Cr) :   0.3785 
B( 14-Au, 15-Au) :   0.1928 B( 14-Au, 16-Cr) :   0.3511 B( 15-Au, 16-Cr) :   0.1414 


-------
TIMINGS
-------

Total SCF time: 0 days 1 hours 8 min 47 sec 

Total time                  ....    4127.844 sec
Sum of individual times     ....    3999.358 sec  ( 96.9%)

Fock matrix formation       ....    2194.250 sec  ( 53.2%)
  Split-RI-J                ....     813.501 sec  ( 37.1% of F)
  XC integration            ....    1121.198 sec  ( 51.1% of F)
    Basis function eval.    ....     111.564 sec  ( 10.0% of XC)
    Density eval.           ....     477.791 sec  ( 42.6% of XC)
    XC-Functional eval.     ....      16.956 sec  (  1.5% of XC)
    XC-Potential eval.      ....     357.580 sec  ( 31.9% of XC)
Diagonalization             ....     694.013 sec  ( 16.8%)
Density matrix formation    ....      49.432 sec  (  1.2%)
Population analysis         ....       3.327 sec  (  0.1%)
Initial guess               ....       0.941 sec  (  0.0%)
Orbital Transformation      ....     122.471 sec  (  3.0%)
Orbital Orthonormalization  ....       0.656 sec  (  0.0%)
DIIS solution               ....     922.329 sec  ( 22.3%)
Grid generation             ....       9.954 sec  (  0.2%)

Maximum memory used throughout the entire SCF-calculation: 134.8 MB

-------------------------   --------------------
FINAL SINGLE POINT ENERGY     -3217.503919881497
-------------------------   --------------------


                            ***************************************
                            *     ORCA property calculations      *
                            ***************************************

                                    ---------------------
                                    Active property flags
                                    ---------------------
   (+) Dipole Moment


------------------------------------------------------------------------------
                       ORCA ELECTRIC PROPERTIES CALCULATION
------------------------------------------------------------------------------

Dipole Moment Calculation                       ... on
Quadrupole Moment Calculation                   ... off
Polarizability Calculation                      ... off
GBWName                                         ... pbeSP_job2.gbw
Electron density                                ... pbeSP_job2.scfp
The origin for moment calculation is the CENTER OF MASS  = (14.170086, 15.008923 13.930952)

-------------
DIPOLE MOMENT
-------------
                                X             Y             Z
Electronic contribution:     26.91638      16.03699      10.43027
Nuclear contribution   :    -27.34003     -16.26939     -10.57593
                        -----------------------------------------
Total Dipole Moment    :     -0.42365      -0.23241      -0.14566
                        -----------------------------------------
Magnitude (a.u.)       :      0.50469
Magnitude (Debye)      :      1.28281



--------------------
Rotational spectrum 
--------------------
 
Rotational constants in cm-1:     0.001106     0.000719     0.000694 
Rotational constants in MHz :    33.147803    21.553682    20.807187 

 Dipole components along the rotational axes: 
x,y,z [a.u.] :     0.503854     0.001055    -0.028947 
x,y,z [Debye]:     1.280695     0.002680    -0.073577 

 

Timings for individual modules:

Sum of individual times         ...     4166.825 sec (=  69.447 min)
GTO integral calculation        ...       37.531 sec (=   0.626 min)   0.9 %
SCF iterations                  ...     4129.293 sec (=  68.822 min)  99.1 %



                             ****ORCA TERMINATED NORMALLY****
TOTAL RUN TIME: 0 days 1 hours 33 minutes 4 seconds 411 msec
