
                                 *****************
                                 * O   R   C   A *
                                 *****************

                                            #,                                       
                                            ###                                      
                                            ####                                     
                                            #####                                    
                                            ######                                   
                                           ########,                                 
                                     ,,################,,,,,                         
                               ,,#################################,,                 
                          ,,##########################################,,             
                       ,#########################################, ''#####,          
                    ,#############################################,,   '####,        
                  ,##################################################,,,,####,       
                ,###########''''           ''''###############################       
              ,#####''   ,,,,##########,,,,          '''####'''          '####       
            ,##' ,,,,###########################,,,                        '##       
           ' ,,###''''                  '''############,,,                           
         ,,##''                                '''############,,,,        ,,,,,,###''
      ,#''                                            '''#######################'''  
     '                                                          ''''####''''         
             ,#######,   #######,   ,#######,      ##                                
            ,#'     '#,  ##    ##  ,#'     '#,    #''#        ######   ,####,        
            ##       ##  ##   ,#'  ##            #'  '#       #        #'  '#        
            ##       ##  #######   ##           ,######,      #####,   #    #        
            '#,     ,#'  ##    ##  '#,     ,#' ,#      #,         ##   #,  ,#        
             '#######'   ##     ##  '#######'  #'      '#     #####' # '####'        



                  #######################################################
                  #                        -***-                        #
                  #          Department of theory and spectroscopy      #
                  #    Directorship and core code : Frank Neese         #
                  #        Max Planck Institute fuer Kohlenforschung    #
                  #                Kaiser Wilhelm Platz 1               #
                  #                 D-45470 Muelheim/Ruhr               #
                  #                      Germany                        #
                  #                                                     #
                  #                  All rights reserved                #
                  #                        -***-                        #
                  #######################################################


                         Program Version 5.0.3 -  RELEASE  -


 With contributions from (in alphabetic order):
   Daniel Aravena         : Magnetic Suceptibility
   Michael Atanasov       : Ab Initio Ligand Field Theory (pilot matlab implementation)
   Alexander A. Auer      : GIAO ZORA, VPT2 properties, NMR spectrum
   Ute Becker             : Parallelization
   Giovanni Bistoni       : ED, misc. LED, open-shell LED, HFLD
   Martin Brehm           : Molecular dynamics
   Dmytro Bykov           : SCF Hessian
   Vijay G. Chilkuri      : MRCI spin determinant printing, contributions to CSF-ICE
   Dipayan Datta          : RHF DLPNO-CCSD density
   Achintya Kumar Dutta   : EOM-CC, STEOM-CC
   Dmitry Ganyushin       : Spin-Orbit,Spin-Spin,Magnetic field MRCI
   Miquel Garcia          : C-PCM and meta-GGA Hessian, CC/C-PCM, Gaussian charge scheme
   Yang Guo               : DLPNO-NEVPT2, F12-NEVPT2, CIM, IAO-localization
   Andreas Hansen         : Spin unrestricted coupled pair/coupled cluster methods
   Benjamin Helmich-Paris : MC-RPA, TRAH-SCF, COSX integrals
   Lee Huntington         : MR-EOM, pCC
   Robert Izsak           : Overlap fitted RIJCOSX, COSX-SCS-MP3, EOM
   Marcus Kettner         : VPT2
   Christian Kollmar      : KDIIS, OOCD, Brueckner-CCSD(T), CCSD density, CASPT2, CASPT2-K
   Simone Kossmann        : Meta GGA functionals, TD-DFT gradient, OOMP2, MP2 Hessian
   Martin Krupicka        : Initial AUTO-CI
   Lucas Lang             : DCDCAS
   Marvin Lechner         : AUTO-CI (C++ implementation), FIC-MRCC
   Dagmar Lenk            : GEPOL surface, SMD
   Dimitrios Liakos       : Extrapolation schemes; Compound Job, initial MDCI parallelization
   Dimitrios Manganas     : Further ROCIS development; embedding schemes
   Dimitrios Pantazis     : SARC Basis sets
   Anastasios Papadopoulos: AUTO-CI, single reference methods and gradients
   Taras Petrenko         : DFT Hessian,TD-DFT gradient, ASA, ECA, R-Raman, ABS, FL, XAS/XES, NRVS
   Peter Pinski           : DLPNO-MP2, DLPNO-MP2 Gradient
   Christoph Reimann      : Effective Core Potentials
   Marius Retegan         : Local ZFS, SOC
   Christoph Riplinger    : Optimizer, TS searches, QM/MM, DLPNO-CCSD(T), (RO)-DLPNO pert. Triples
   Tobias Risthaus        : Range-separated hybrids, TD-DFT gradient, RPA, STAB
   Michael Roemelt        : Original ROCIS implementation
   Masaaki Saitow         : Open-shell DLPNO-CCSD energy and density
   Barbara Sandhoefer     : DKH picture change effects
   Avijit Sen             : IP-ROCIS
   Kantharuban Sivalingam : CASSCF convergence, NEVPT2, FIC-MRCI
   Bernardo de Souza      : ESD, SOC TD-DFT
   Georgi Stoychev        : AutoAux, RI-MP2 NMR, DLPNO-MP2 response
   Willem Van den Heuvel  : Paramagnetic NMR
   Boris Wezisla          : Elementary symmetry handling
   Frank Wennmohs         : Technical directorship


 We gratefully acknowledge several colleagues who have allowed us to
 interface, adapt or use parts of their codes:
   Stefan Grimme, W. Hujo, H. Kruse, P. Pracht,  : VdW corrections, initial TS optimization,
                  C. Bannwarth, S. Ehlert          DFT functionals, gCP, sTDA/sTD-DF
   Ed Valeev, F. Pavosevic, A. Kumar             : LibInt (2-el integral package), F12 methods
   Garnet Chan, S. Sharma, J. Yang, R. Olivares  : DMRG
   Ulf Ekstrom                                   : XCFun DFT Library
   Mihaly Kallay                                 : mrcc  (arbitrary order and MRCC methods)
   Jiri Pittner, Ondrej Demel                    : Mk-CCSD
   Frank Weinhold                                : gennbo (NPA and NBO analysis)
   Christopher J. Cramer and Donald G. Truhlar   : smd solvation model
   Lars Goerigk                                  : TD-DFT with DH, B97 family of functionals
   V. Asgeirsson, H. Jonsson                     : NEB implementation
   FAccTs GmbH                                   : IRC, NEB, NEB-TS, DLPNO-Multilevel, CI-OPT
                                                   MM, QMMM, 2- and 3-layer-ONIOM, Crystal-QMMM,
                                                   LR-CPCM, SF, NACMEs, symmetry and pop. for TD-DFT,
                                                   nearIR, NL-DFT gradient (VV10), updates on ESD,
                                                   ML-optimized integration grids
   S Lehtola, MJT Oliveira, MAL Marques          : LibXC Library
   Liviu Ungur et al                             : ANISO software


 Your calculation uses the libint2 library for the computation of 2-el integrals
 For citations please refer to: http://libint.valeyev.net

 Your ORCA version has been built with support for libXC version: 5.1.0
 For citations please refer to: https://tddft.org/programs/libxc/

 This ORCA versions uses:
   CBLAS   interface :  Fast vector & matrix operations
   LAPACKE interface :  Fast linear algebra routines
   SCALAPACK package :  Parallel linear algebra routines
   Shared memory     :  Shared parallel matrices
   BLAS/LAPACK       :  OpenBLAS 0.3.15  USE64BITINT DYNAMIC_ARCH NO_AFFINITY Sandybridge SINGLE_THREADED
        Core in use  :  Sandybridge
   Copyright (c) 2011-2014, The OpenBLAS Project




***************************************
The coordinates will be read from file: pbe.xyz
***************************************


================================================================================

cite the ECPs for Au [Def2-ECP] as follows:
Ce-Yb(ecp-28): M. Dolg, H. Stoll, H.Preuss, J. Chem. Phys., 1989, 90, 1730-1734.
Y-Cd(ecp-28), Hf-Hg(ecp-46): D. Andrae,U. Haeussermann, M. Dolg, H. Stoll, H. Preuss, Theor. Chim. Acta, 1990, 77, 123-141.
In-Sb(ecp-28), Tl-Bi(ecp-46): B. Metz, H. Stoll, M. Dolg, J. Chem. Phys., 2000, 113, 2563-2569.
Te-Xe(ecp-28), Po-Rn(ecp-46): K. A. Peterson, D. Figgen, E. Goll, H. Stoll, M. Dolg, J. Chem. Phys., 2003, 119, 11113-11123.
Rb(ecp-28), Cs(ecp-46): T. Leininger, A. Nicklass, W. Kuechle, H. Stoll, M. Dolg, A. Bergner, Chem. Phys. Lett., 1996, 255, 274-280.
Sr(ecp-28), Ba(ecp-46): M. Kaupp, P. V. Schleyer, H. Stoll and H. Preuss, J. Chem. Phys., 1991, 94, 1360-1366.
La(ecp-46): M. Dolg, H. Stoll, A. Savin, H. Preuss, Theor. Chim. Acta, 1989, 75, 173-194.
Lu(ecp-28): X. Cao, M. Dolg, J. Chem. Phys., 2001, 115, 7348-7355.

ECP parameters for Au [Def2-ECP] have been obtained from:
TURBOMOLE (7.0.2)

----- Orbital basis set information -----
Your calculation utilizes the basis: def2-TZVP
   F. Weigend and R. Ahlrichs, Phys. Chem. Chem. Phys. 7, 3297 (2005).

----- AuxJ basis set information -----
Your calculation utilizes the auxiliary basis: def2/J
   F. Weigend, Phys. Chem. Chem. Phys. 8, 1057 (2006).

----- AuxC basis set information -----
Your calculation utilizes the auxiliary basis: def2-TZVP/C
  H-La, Hf-Rn : A. Hellweg, C. Hattig, S. Hofener and W. Klopper, Theor. Chem. Acc. 117, 587 (2007).
        Ce-Lu : J. Chmela and M. E. Harding, Mol. Phys. (2018).

================================================================================
                                        WARNINGS
                       Please study these warnings very carefully!
================================================================================


IMPORTANT NOTE: CASSCF must signal convergence for a subsequent CASPT2/NEVPT2! 
                Set maxiter=1 to run CASPT2/NEVPT2 with arbitrary orbitals.


INFO   : the flag for use of the SHARK integral package has been found!

================================================================================
                                       INPUT FILE
================================================================================
NAME = nevpt2.inp
|  1> !SC-NEVPT2 def2-TZVP def2-TZVP/C
|  2> !MOREAD RIJCOSX def2/J
|  3> %maxcore 4000
|  4> %moinp "casscf.gbw"
|  5> %pal nprocs 6 end 
|  6> 
|  7> %casscf
|  8>  mult 6,4
|  9>  bweight 1,1
| 10>  nroots 1,24
| 11>  nel 5
| 12>  norb 5
| 13>  ptsettings
| 14>   d4tpre 1e-14 # default = 1e-10
| 15>   d3tpre 1e-14
| 16>  end
| 17>  rel           
| 18>    dosoc true   
| 19>    gtensor true 
| 20>  end           
| 21> end
| 22> 
| 23> 
| 24> *xyzfile 0 6 pbe.xyz
| 25> 
| 26> 
| 27>                          ****END OF INPUT****
================================================================================

                       ****************************
                       * Single Point Calculation *
                       ****************************

---------------------------------
CARTESIAN COORDINATES (ANGSTROEM)
---------------------------------
  Au     9.208914    7.489046    5.776198
  Au    10.018751    9.829512    7.139756
  Au     7.616973    5.134838    5.267503
  Au     7.338756    9.677703    6.097504
  Au     6.746035    7.606411    4.334039
  Au     4.939910    5.778766    5.676069
  Au     4.560028    8.531258    5.787486
  Au     6.251479    4.793688    7.927572
  Au     5.245476    9.677834    8.151132
  Au     4.352522    6.968017    8.206132
  Au     7.875193   10.180218    8.878538
  Au     8.022302    5.612140   10.045929
  Au     5.279676    5.610560   10.507851
  Au     9.121718    5.238303    7.524896
  Au     9.210350    7.728559    8.739603
  Au     6.555077    7.991207    9.918135
  Mn     6.863187    7.278243    7.168352

----------------------------
CARTESIAN COORDINATES (A.U.)
----------------------------
  NO LB      ZA    FRAG     MASS         X           Y           Z
   0 Au   19.0000*   0   196.966   17.402326   14.152246   10.915432
   1 Au   19.0000*   0   196.966   18.932696   18.575085   13.492183
   2 Au   19.0000*   0   196.966   14.393993    9.703437    9.954138
   3 Au   19.0000*   0   196.966   13.868239   18.288208   11.522612
   4 Au   19.0000*   0   196.966   12.748158   14.374034    8.190147
   5 Au   19.0000*   0   196.966    9.335078   10.920285   10.726215
   6 Au   19.0000*   0   196.966    8.617204   16.121741   10.936764
   7 Au   19.0000*   0   196.966   11.813583    9.058758   14.980939
   8 Au   19.0000*   0   196.966    9.912513   18.288456   15.403407
   9 Au   19.0000*   0   196.966    8.225075   13.167644   15.507343
  10 Au   19.0000*   0   196.966   14.881958   19.237823   16.778006
  11 Au   19.0000*   0   196.966   15.159953   10.605408   18.984054
  12 Au   19.0000*   0   196.966    9.977141   10.602423   19.856961
  13 Au   19.0000*   0   196.966   17.237549    9.898957   14.219993
  14 Au   19.0000*   0   196.966   17.405039   14.604860   16.515456
  15 Au   19.0000*   0   196.966   12.387300   15.101192   18.742560
  16 Mn   25.0000    0    54.940   12.969545   13.753886   13.546222
* core charge reduced due to ECP

--------------------------------
INTERNAL COORDINATES (ANGSTROEM)
--------------------------------
 Au     0   0   0     0.000000000000     0.00000000     0.00000000
 Au     1   0   0     2.827172588924     0.00000000     0.00000000
 Au     1   2   0     2.887099923896   156.63140793     0.00000000
 Au     2   1   3     2.879533008308    60.99976050   300.27710756
 Au     3   1   2     2.781827237450    60.48023660    84.73224191
 Au     3   1   2     2.783564697750   108.40946406    42.67080667
 Au     6   3   1     2.780816248806   111.48380373    14.56881817
 Au     6   3   1     2.785651598511    65.41849228   268.82451422
 Au     7   6   3     2.715013228168   114.73364299   281.64302275
 Au     9   7   6     2.853681585004    62.40362958   330.79019140
 Au     9   7   6     2.774332776133   122.95894850    77.31327545
 Au     8   6   3     2.879776843755   141.58817873    80.65742343
 Au    12   8   6     2.781253859997    61.02901483    95.24403823
 Au     3   1   2     2.714919607395    61.10598266   295.18583949
 Au    12   8   6     2.756297388620    97.73808048   334.82126229
 Au    11   9   7     2.759571961050    60.11175534   258.63914777
 Mn     8   6   3     2.669010085610    63.17994679    73.20341173

---------------------------
INTERNAL COORDINATES (A.U.)
---------------------------
 Au     0   0   0     0.000000000000     0.00000000     0.00000000
 Au     1   0   0     5.342581926396     0.00000000     0.00000000
 Au     1   2   0     5.455828177429   156.63140793     0.00000000
 Au     2   1   3     5.441528779289    60.99976050   300.27710756
 Au     3   1   2     5.256891630664    60.48023660    84.73224191
 Au     3   1   2     5.260174954798   108.40946406    42.67080667
 Au     6   3   1     5.254981139002   111.48380373    14.56881817
 Au     6   3   1     5.264118625706    65.41849228   268.82451422
 Au     7   6   3     5.130631451210   114.73364299   281.64302275
 Au     9   7   6     5.392676669072    62.40362958   330.79019140
 Au     9   7   6     5.242729151253   122.95894850    77.31327545
 Au     8   6   3     5.441989561505   141.58817873    80.65742343
 Au    12   8   6     5.255808104305    61.02901483    95.24403823
 Au     3   1   2     5.130454533590    61.10598266   295.18583949
 Au    12   8   6     5.208647208134    97.73808048   334.82126229
 Au    11   9   7     5.214835253232    60.11175534   258.63914777
 Mn     8   6   3     5.043698110476    63.17994679    73.20341173

---------------------
BASIS SET INFORMATION
---------------------
There are 2 groups of distinct atoms

 Group   1 Type Au  : 8s7p6d1f contracted to 6s4p3d1f pattern {311111/4111/411/1}
 Group   2 Type Mn  : 17s11p7d1f contracted to 6s4p4d1f pattern {842111/6311/4111/1}

Atom   0Au   basis set group =>   1
Atom   1Au   basis set group =>   1
Atom   2Au   basis set group =>   1
Atom   3Au   basis set group =>   1
Atom   4Au   basis set group =>   1
Atom   5Au   basis set group =>   1
Atom   6Au   basis set group =>   1
Atom   7Au   basis set group =>   1
Atom   8Au   basis set group =>   1
Atom   9Au   basis set group =>   1
Atom  10Au   basis set group =>   1
Atom  11Au   basis set group =>   1
Atom  12Au   basis set group =>   1
Atom  13Au   basis set group =>   1
Atom  14Au   basis set group =>   1
Atom  15Au   basis set group =>   1
Atom  16Mn   basis set group =>   2
---------------------------------
AUXILIARY/J BASIS SET INFORMATION
---------------------------------
There are 2 groups of distinct atoms

 Group   1 Type Au  : 11s5p5d3f3g contracted to 8s5p5d2f3g pattern {41111111/11111/11111/21/111}
 Group   2 Type Mn  : 19s5p5d3f3g contracted to 8s5p5d2f3g pattern {121111111/11111/11111/21/111}

Atom   0Au   basis set group =>   1
Atom   1Au   basis set group =>   1
Atom   2Au   basis set group =>   1
Atom   3Au   basis set group =>   1
Atom   4Au   basis set group =>   1
Atom   5Au   basis set group =>   1
Atom   6Au   basis set group =>   1
Atom   7Au   basis set group =>   1
Atom   8Au   basis set group =>   1
Atom   9Au   basis set group =>   1
Atom  10Au   basis set group =>   1
Atom  11Au   basis set group =>   1
Atom  12Au   basis set group =>   1
Atom  13Au   basis set group =>   1
Atom  14Au   basis set group =>   1
Atom  15Au   basis set group =>   1
Atom  16Mn   basis set group =>   2
---------------------------------
AUXILIARY/C BASIS SET INFORMATION
---------------------------------
There are 2 groups of distinct atoms

 Group   1 Type Au  : 8s8p7d5f3g2h contracted to 8s8p7d5f3g2h pattern {11111111/11111111/1111111/11111/111/11}
 Group   2 Type Mn  : 11s9p8d6f5g2h contracted to 9s8p8d6f5g2h pattern {311111111/21111111/11111111/111111/11111/11}

Atom   0Au   basis set group =>   1
Atom   1Au   basis set group =>   1
Atom   2Au   basis set group =>   1
Atom   3Au   basis set group =>   1
Atom   4Au   basis set group =>   1
Atom   5Au   basis set group =>   1
Atom   6Au   basis set group =>   1
Atom   7Au   basis set group =>   1
Atom   8Au   basis set group =>   1
Atom   9Au   basis set group =>   1
Atom  10Au   basis set group =>   1
Atom  11Au   basis set group =>   1
Atom  12Au   basis set group =>   1
Atom  13Au   basis set group =>   1
Atom  14Au   basis set group =>   1
Atom  15Au   basis set group =>   1
Atom  16Mn   basis set group =>   2
-------------------------
ECP PARAMETER INFORMATION
-------------------------

 Group 1, Type Au ECP Def2-ECP (replacing 60 core electrons, lmax=3)

Atom   0Au   ECP group =>   1
Atom   1Au   ECP group =>   1
Atom   2Au   ECP group =>   1
Atom   3Au   ECP group =>   1
Atom   4Au   ECP group =>   1
Atom   5Au   ECP group =>   1
Atom   6Au   ECP group =>   1
Atom   7Au   ECP group =>   1
Atom   8Au   ECP group =>   1
Atom   9Au   ECP group =>   1
Atom  10Au   ECP group =>   1
Atom  11Au   ECP group =>   1
Atom  12Au   ECP group =>   1
Atom  13Au   ECP group =>   1
Atom  14Au   ECP group =>   1
Atom  15Au   ECP group =>   1



           ************************************************************
           *        Program running with 6 parallel MPI-processes     *
           *              working on a common directory               *
           ************************************************************
------------------------------------------------------------------------------
                           ORCA GTO INTEGRAL CALCULATION
                           -- RI-GTO INTEGRALS CHOSEN --
------------------------------------------------------------------------------
------------------------------------------------------------------------------
                   ___                                                        
                  /   \      - P O W E R E D   B Y -                         
                 /     \                                                     
                 |  |  |   _    _      __       _____    __    __             
                 |  |  |  | |  | |    /  \     |  _  \  |  |  /  |          
                  \  \/   | |  | |   /    \    | | | |  |  | /  /          
                 / \  \   | |__| |  /  /\  \   | |_| |  |  |/  /          
                |  |  |   |  __  | /  /__\  \  |    /   |      \           
                |  |  |   | |  | | |   __   |  |    \   |  |\   \          
                \     /   | |  | | |  |  |  |  | |\  \  |  | \   \       
                 \___/    |_|  |_| |__|  |__|  |_| \__\ |__|  \__/        
                                                                              
                      - O R C A' S   B I G   F R I E N D -                    
                                      &                                       
                       - I N T E G R A L  F E E D E R -                       
                                                                              
 v1 FN, 2020, v2 2021                                                         
------------------------------------------------------------------------------


Reading SHARK input file nevpt2.SHARKINP.tmp ... ok
----------------------
SHARK INTEGRAL PACKAGE
----------------------

Number of atoms                             ...     17
Number of basis functions                   ...    685
Number of shells                            ...    239
Maximum angular momentum                    ...      3
Integral batch strategy                     ... SHARK/LIBINT Hybrid
RI-J (if used) integral strategy            ... SPLIT-RIJ (Revised 2003 algorithm where possible)
Printlevel                                  ...      1
Contraction scheme used                     ... SEGMENTED contraction
Coulomb Range Separation                    ... NOT USED
Exchange Range Separation                   ... NOT USED
Finite Nucleus Model                        ... NOT USED
Auxiliary Coulomb fitting basis             ... AVAILABLE
   # of basis functions in Aux-J            ...   1513
   # of shells in Aux-J                     ...    391
   Maximum angular momentum in Aux-J        ...      4
Auxiliary J/K fitting basis                 ... NOT available
Auxiliary Correlation fitting basis         ... AVAILABLE
   # of basis functions in Aux-C            ...   2598
   # of shells in Aux-C                     ...    566
   Maximum angular momentum in Aux-C        ...      5
Auxiliary 'external' fitting basis          ... NOT available
Integral threshold                          ...     1.000000e-10
Primitive cut-off                           ...     1.000000e-11
Primitive pair pre-selection threshold      ...     1.000000e-11

Calculating pre-screening integrals         ... done (  0.2 sec) Dimension = 239
Organizing shell pair data                  ... done (  1.2 sec)
Shell pair information
Total number of shell pairs                 ...     28680
Shell pairs after pre-screening             ...     22435
Total number of primitive shell pairs       ...     75765
Primitive shell pairs kept                  ...     42673
          la=0 lb=0:   3543 shell pairs
          la=1 lb=0:   5124 shell pairs
          la=1 lb=1:   1929 shell pairs
          la=2 lb=0:   4450 shell pairs
          la=2 lb=1:   3134 shell pairs
          la=2 lb=2:   1298 shell pairs
          la=3 lb=0:   1156 shell pairs
          la=3 lb=1:    888 shell pairs
          la=3 lb=2:    792 shell pairs
          la=3 lb=3:    121 shell pairs

Calculating one electron integrals          ... done (  0.1 sec)
Calculating ECP integrals                   ... done ( 17.7 sec)
Calculating RI/J V-Matrix + Cholesky decomp.... done (  0.2 sec)
Calculating RI/C V-Matrix + Cholesky decomp.... done (  0.6 sec)
Calculating Nuclear repulsion               ... done (  0.0 sec) ENN=   7088.899183407917 Eh

SHARK setup successfully completed in  21.1 seconds

Maximum memory used throughout the entire GTOINT-calculation: 61.1 MB


           ************************************************************
           *        Program running with 6 parallel MPI-processes     *
           *              working on a common directory               *
           ************************************************************
-------------------------------------------------------------------------------
                                 ORCA SCF
-------------------------------------------------------------------------------

------------
SCF SETTINGS
------------
Hamiltonian:
 Ab initio Hamiltonian  Method          .... Hartree-Fock(GTOs)
 RI-approximation to the Coulomb term is turned on
   Number of AuxJ basis functions       .... 1513
   RIJ-COSX (HFX calculated with COS-X)).... on


General Settings:
 Integral files         IntName         .... nevpt2
 Hartree-Fock type      HFTyp           .... CASSCF
 Total Charge           Charge          ....    0
 Multiplicity           Mult            ....    6
 Number of Electrons    NEL             ....  329
 Basis Dimension        Dim             ....  685
 Nuclear Repulsion      ENuc            ....   7088.8991834079 Eh


Diagonalization of the overlap matrix:
Smallest eigenvalue                        ... 2.193e-04
Time for diagonalization                   ...    0.165 sec
Threshold for overlap eigenvalues          ... 1.000e-08
Number of eigenvalues below threshold      ... 0
Time for construction of square roots      ...    0.087 sec
Total time needed                          ...    0.256 sec

---------------------
INITIAL GUESS: MOREAD
---------------------
Guess MOs are being read from file: casscf.gbw
Input Geometry matches current geometry (good)
Input basis set matches current basis set (good)
MOs were renormalized
Gram-Schmidt orthogonalization of all MOs with pivot on actives
                      ------------------
                      INITIAL GUESS DONE (  13.3 sec)
                      ------------------
--------------------
COSX GRID GENERATION
--------------------

GRIDX 1
-------
General Integration Accuracy     IntAcc      ... 3.816
Radial Grid Type                 RadialGrid  ... OptM3 with GC (2021)
Angular Grid (max. ang.)         AngularGrid ... 1 (Lebedev-50)
Angular grid pruning method      GridPruning ... 4 (adaptive)
Weight generation scheme         WeightScheme... Becke
Basis function cutoff            BFCut       ... 1.0000e-10
Integration weight cutoff        WCut        ... 1.0000e-14
Angular grids for H and He will be reduced by one unit
Partially contracted basis set               ... on
Rotationally invariant grid construction     ... off

Total number of grid points                  ...    19519
Total number of batches                      ...      314
Average number of points per batch           ...       62
Average number of grid points per atom       ...     1148
UseSFitting                                  ... on

GRIDX 2
-------
General Integration Accuracy     IntAcc      ... 4.020
Radial Grid Type                 RadialGrid  ... OptM3 with GC (2021)
Angular Grid (max. ang.)         AngularGrid ... 2 (Lebedev-110)
Angular grid pruning method      GridPruning ... 4 (adaptive)
Weight generation scheme         WeightScheme... Becke
Basis function cutoff            BFCut       ... 1.0000e-10
Integration weight cutoff        WCut        ... 1.0000e-14
Angular grids for H and He will be reduced by one unit
Partially contracted basis set               ... on
Rotationally invariant grid construction     ... off

Total number of grid points                  ...    59107
Total number of batches                      ...      932
Average number of points per batch           ...       63
Average number of grid points per atom       ...     3477
UseSFitting                                  ... on

GRIDX 3
-------
General Integration Accuracy     IntAcc      ... 4.338
Radial Grid Type                 RadialGrid  ... OptM3 with GC (2021)
Angular Grid (max. ang.)         AngularGrid ... 3 (Lebedev-194)
Angular grid pruning method      GridPruning ... 4 (adaptive)
Weight generation scheme         WeightScheme... Becke
Basis function cutoff            BFCut       ... 1.0000e-10
Integration weight cutoff        WCut        ... 1.0000e-14
Angular grids for H and He will be reduced by one unit
Partially contracted basis set               ... on
Rotationally invariant grid construction     ... off

Total number of grid points                  ...   107140
Total number of batches                      ...     1681
Average number of points per batch           ...       63
Average number of grid points per atom       ...     6302
UseSFitting                                  ... on

Time for X-Grid setup             =    2.624 sec



 ... the calculation is a CASSCF calculation -I'm leaving here GOOD LUCK!!!



           ************************************************************
           *        Program running with 6 parallel MPI-processes     *
           *              working on a common directory               *
           ************************************************************
-------------------------------------------------------------------------------
                              ORCA-CASSCF
-------------------------------------------------------------------------------

Setting up the integral package       ... done
Setting up the integral package (RI)  ... done
Building the CAS space                ... done (1 configurations for Mult=6)
Building the CAS space                ... done (21 configurations for Mult=4)

 CASSCF (estimated) memory needed     ... 192.6 MB
 NEVPT2 (estimated) memory needed     ... 763.8 MB


SYSTEM-SPECIFIC SETTINGS:
Number of active electrons          ...    5
Number of active orbitals           ...    5
Total number of electrons           ...  329
Total number of orbitals            ...  685
Total number aux. functions         ... 2598

Determined orbital ranges:
   Internal       0 -  161 ( 162 orbitals)
   Active       162 -  166 (   5 orbitals)
   External     167 -  684 ( 518 orbitals)
Number of rotation parameters      ...  87316

CI-STEP:
CI strategy                         ... General CI
Number of multiplicity blocks       ...    2
BLOCK  1 WEIGHT=   0.5000
  Multiplicity                      ...    6
  #(Configurations)                 ...    1
  #(CSFs)                           ...    1
  #(Roots)                          ...    1
    ROOT=0 WEIGHT=    0.500000

BLOCK  2 WEIGHT=   0.5000
  Multiplicity                      ...    4
  #(Configurations)                 ...   21
  #(CSFs)                           ...   24
  #(Roots)                          ...   24
    ROOT=0 WEIGHT=    0.020833
    ROOT=1 WEIGHT=    0.020833
    ROOT=2 WEIGHT=    0.020833
    ROOT=3 WEIGHT=    0.020833
    ROOT=4 WEIGHT=    0.020833
    ROOT=5 WEIGHT=    0.020833
    ROOT=6 WEIGHT=    0.020833
    ROOT=7 WEIGHT=    0.020833
    ROOT=8 WEIGHT=    0.020833
    ROOT=9 WEIGHT=    0.020833
    ROOT=10 WEIGHT=    0.020833
    ROOT=11 WEIGHT=    0.020833
    ROOT=12 WEIGHT=    0.020833
    ROOT=13 WEIGHT=    0.020833
    ROOT=14 WEIGHT=    0.020833
    ROOT=15 WEIGHT=    0.020833
    ROOT=16 WEIGHT=    0.020833
    ROOT=17 WEIGHT=    0.020833
    ROOT=18 WEIGHT=    0.020833
    ROOT=19 WEIGHT=    0.020833
    ROOT=20 WEIGHT=    0.020833
    ROOT=21 WEIGHT=    0.020833
    ROOT=22 WEIGHT=    0.020833
    ROOT=23 WEIGHT=    0.020833

  PrintLevel                        ...    1
  N(GuessMat)                       ...       512
  MaxDim(CI)                        ...        10
  MaxIter(CI)                       ...        64
  Energy Tolerance CI               ...  1.00e-08
  Residual Tolerance CI             ...  1.00e-08
  Shift(CI)                         ...  1.00e-04

INTEGRAL-TRANSFORMATION-STEP:
  Algorithm                         ... RI-MO

ORBITAL-IMPROVEMENT-STEP:
  Algorithm                         ... SuperCI(PT)
  Default Parametrization           ... CAYLEY
  Act-Act rotations                 ... depends on algorithm used

  Note: SuperCI(PT) will ignore FreezeIE, FreezeAct and FreezeGrad. In general Default settings are encouraged.
        In conjunction with ShiftUp, ShiftDn or GradScaling the performance of SuperCI(PT) is less optimal.  

  MaxRot                            ... 2.00e-01 
  Max. no of vectors (DIIS)         ... 15
  DThresh (cut-off) metric          ... 1.00e-06
  Switch step at gradient           ...  3.00e-02 
  Switch step at iteration          ...        50   
  Switch step to                    ... SuperCI(PT)    

SCF-SETTINGS:
  Incremental                       ... off
  RIJCOSX approximation             ... on
  UseFinalGrid                      ... on
  RI-JK approximation               ... off
  AO integral handling              ... DIRECT
  Integral Neglect Thresh           ...  1.00e-10
  Primitive cutoff TCut             ...  1.00e-11
  Energy convergence tolerance      ...  1.00e-07
  Orbital gradient convergence      ...  1.00e-03
  Max. number of iterations         ...        75  

PT2-SETTINGS:
  A PT2 calculation will be performed on top of the CASSCF wave function (PT2 = SC-NEVPT2)   
 CI step strategy                   ... General CI
  D4C handling                      ... on the fly 
  CI truncation for D4C at          ...  1.00e-14
  CI truncation for D3  at          ...  1.00e-14
  Orbitals                          ... canonical for each state 
  Last  frozen  orbital             ... 4
  First deleted orbital             ... 685
  RI Step                           ... store IJV(array) (MC_ONDISK during integral transformation) 

PROPERTIES-SETTINGS:
  Spin orbit coupling               ... true
  GTensor                           ... true
  QDPT diagonal energies            ... NEVPT2 energies 

FINAL ORBITALS:
  Active   Orbitals                 ... natural 
  Internal Orbitals                 ... canonical 
  External Orbitals                 ... canonical 

------------------
CAS-SCF ITERATIONS
------------------


MACRO-ITERATION   1: 
   --- Inactive Energy E0 = -3296.26228644 Eh
CI-ITERATION   0: 
 -3306.908790401   0.000000000000 (    0.00)
   CI-PROBLEM SOLVED
   DENSITIES MADE
CI-ITERATION   0: 
 -3306.772664319   0.000000000000 (    0.00)
 -3306.772395686   0.000000000000
 -3306.771383439   0.000000000000
 -3306.771216390   0.000000000000
 -3306.771095934   0.000000000000
 -3306.770987971   0.000000000000
 -3306.770984994   0.000000000000
 -3306.770721211   0.000000000000
 -3306.770700750   0.000000000000
 -3306.749542351   0.000000000000
 -3306.748549639   0.000000000000
 -3306.748337244   0.000000000000
 -3306.737558457   0.000000000000
 -3306.737365141   0.000000000000
 -3306.737336634   0.000000000000
 -3306.737069060   0.000000000000
 -3306.736892108   0.000000000000
 -3306.678781783   0.000000000000
 -3306.678089016   0.000000000000
 -3306.676818038   0.000000000000
 -3306.676609802   0.000000000000
 -3306.676390144   0.000000000000
 -3306.676167424   0.000000000000
 -3306.675865617   0.000000000000
   CI-PROBLEM SOLVED
   DENSITIES MADE

                 <<<<<<<<<<<<<<<<<<INITIAL CI STATE CHECK>>>>>>>>>>>>>>>>>>

BLOCK  1 MULT= 6 NROOTS= 1 
ROOT   0:  E=   -3306.9087904010 Eh
      1.00000 [     0]: 11111

BLOCK  2 MULT= 4 NROOTS=24 
ROOT   0:  E=   -3306.7726643189 Eh
      0.36927 [     1]: 21101
      0.19204 [    10]: 11111
      0.13462 [    19]: 01121
      0.09237 [     8]: 11201
      0.06390 [     2]: 21011
      0.02981 [    18]: 01211
      0.02476 [     5]: 12101
      0.01969 [    12]: 11021
      0.01885 [    11]: 11102
      0.01594 [     4]: 12110
      0.01100 [    15]: 10121
      0.00974 [     6]: 12011
      0.00964 [     9]: 11120
      0.00377 [     0]: 21110
ROOT   1:  E=   -3306.7723956860 Eh  0.007 eV     59.0 cm**-1
      0.40538 [     5]: 12101
      0.15686 [    15]: 10121
      0.10723 [    10]: 11111
      0.07476 [    17]: 02111
      0.06388 [    11]: 11102
      0.04187 [     9]: 11120
      0.03409 [     4]: 12110
      0.03148 [     3]: 20111
      0.01885 [     1]: 21101
      0.01660 [     7]: 11210
      0.01119 [    13]: 11012
      0.00898 [     6]: 12011
      0.00840 [     2]: 21011
      0.00596 [    16]: 10112
      0.00454 [    20]: 01112
      0.00433 [    19]: 01121
      0.00286 [     8]: 11201
ROOT   2:  E=   -3306.7713834387 Eh  0.035 eV    281.1 cm**-1
      0.59278 [    10]: 11111
      0.06683 [    19]: 01121
      0.06306 [     1]: 21101
      0.05520 [    12]: 11021
      0.05495 [     8]: 11201
      0.04637 [     2]: 21011
      0.04476 [    18]: 01211
      0.01778 [     6]: 12011
      0.01653 [    14]: 10211
      0.01053 [    13]: 11012
      0.01048 [     7]: 11210
      0.00700 [    20]: 01112
      0.00632 [     0]: 21110
ROOT   3:  E=   -3306.7712163905 Eh  0.039 eV    317.8 cm**-1
      0.42491 [    10]: 11111
      0.14233 [    13]: 11012
      0.08838 [     7]: 11210
      0.06916 [     2]: 21011
      0.05540 [    18]: 01211
      0.03427 [    16]: 10112
      0.03426 [    14]: 10211
      0.03175 [     6]: 12011
      0.02827 [    11]: 11102
      0.02163 [     9]: 11120
      0.02070 [     4]: 12110
      0.01879 [    20]: 01112
      0.00990 [     0]: 21110
      0.00525 [     1]: 21101
      0.00424 [    19]: 01121
      0.00422 [     8]: 11201
      0.00335 [    12]: 11021
ROOT   4:  E=   -3306.7710959336 Eh  0.043 eV    344.2 cm**-1
      0.31272 [    10]: 11111
      0.17098 [    13]: 11012
      0.16482 [     7]: 11210
      0.10514 [    20]: 01112
      0.10091 [     0]: 21110
      0.02950 [     8]: 11201
      0.02350 [    12]: 11021
      0.01137 [    14]: 10211
      0.01016 [     2]: 21011
      0.00997 [     6]: 12011
      0.00914 [    18]: 01211
      0.00858 [    11]: 11102
      0.00852 [    19]: 01121
      0.00813 [     9]: 11120
      0.00705 [     1]: 21101
      0.00665 [     4]: 12110
      0.00445 [     5]: 12101
      0.00435 [    15]: 10121
      0.00351 [    16]: 10112
ROOT   5:  E=   -3306.7709879706 Eh  0.046 eV    367.9 cm**-1
      0.16814 [    17]: 02111
      0.16115 [     3]: 20111
      0.12187 [    10]: 11111
      0.06806 [     8]: 11201
      0.06592 [    20]: 01112
      0.06093 [     0]: 21110
      0.05550 [    12]: 11021
      0.04360 [     4]: 12110
      0.03906 [    16]: 10112
      0.03672 [     1]: 21101
      0.03305 [     5]: 12101
      0.03044 [    19]: 01121
      0.02822 [    15]: 10121
      0.02490 [     7]: 11210
      0.02300 [    13]: 11012
      0.01915 [    11]: 11102
      0.01434 [     9]: 11120
      0.00287 [     2]: 21011
ROOT   6:  E=   -3306.7709849944 Eh  0.046 eV    368.6 cm**-1
      0.32882 [    10]: 11111
      0.10977 [     0]: 21110
      0.10974 [    20]: 01112
      0.10087 [    16]: 10112
      0.09659 [     4]: 12110
      0.05038 [    11]: 11102
      0.04102 [     9]: 11120
      0.03940 [     8]: 11201
      0.03798 [     5]: 12101
      0.03269 [    12]: 11021
      0.03246 [    15]: 10121
      0.00702 [     2]: 21011
      0.00570 [    18]: 01211
ROOT   7:  E=   -3306.7707212108 Eh  0.053 eV    426.5 cm**-1
      0.20679 [    10]: 11111
      0.19179 [     6]: 12011
      0.16639 [    14]: 10211
      0.06060 [    11]: 11102
      0.05454 [     9]: 11120
      0.04550 [     0]: 21110
      0.03987 [    20]: 01112
      0.02717 [    18]: 01211
      0.02589 [     2]: 21011
      0.02486 [     7]: 11210
      0.02180 [    13]: 11012
      0.02107 [     4]: 12110
      0.01736 [     1]: 21101
      0.01632 [    16]: 10112
      0.01569 [     3]: 20111
      0.01558 [    19]: 01121
      0.01454 [     8]: 11201
      0.01316 [    12]: 11021
      0.01111 [    17]: 02111
      0.00530 [     5]: 12101
      0.00467 [    15]: 10121
ROOT   8:  E=   -3306.7707007496 Eh  0.053 eV    431.0 cm**-1
      0.24754 [    10]: 11111
      0.11945 [     4]: 12110
      0.10331 [    16]: 10112
      0.08960 [     2]: 21011
      0.07635 [    18]: 01211
      0.06032 [     8]: 11201
      0.05627 [    12]: 11021
      0.05610 [     6]: 12011
      0.05556 [    14]: 10211
      0.03163 [     7]: 11210
      0.02666 [    17]: 02111
      0.02645 [    13]: 11012
      0.02175 [     3]: 20111
      0.01061 [     9]: 11120
      0.01026 [    11]: 11102
      0.00416 [    15]: 10121
      0.00386 [     5]: 12101
ROOT   9:  E=   -3306.7495423505 Eh  0.629 eV   5074.7 cm**-1
      0.24752 [     7]: 11210
      0.21329 [    13]: 11012
      0.10701 [     0]: 21110
      0.08570 [    20]: 01112
      0.05511 [     6]: 12011
      0.05262 [     4]: 12110
      0.04853 [    18]: 01211
      0.04006 [    14]: 10211
      0.03789 [    16]: 10112
      0.03099 [     2]: 21011
      0.03034 [    17]: 02111
      0.02777 [     3]: 20111
      0.00715 [    11]: 11102
      0.00550 [     5]: 12101
      0.00466 [     9]: 11120
      0.00320 [    10]: 11111
ROOT  10:  E=   -3306.7485496390 Eh  0.656 eV   5292.6 cm**-1
      0.31651 [    19]: 01121
      0.15226 [    12]: 11021
      0.12117 [     1]: 21101
      0.06641 [    16]: 10112
      0.06123 [     8]: 11201
      0.04973 [    18]: 01211
      0.04277 [     4]: 12110
      0.03488 [    14]: 10211
      0.03324 [    20]: 01112
      0.02691 [     6]: 12011
      0.02681 [     0]: 21110
      0.01838 [    10]: 11111
      0.01828 [     2]: 21011
      0.00821 [    15]: 10121
      0.00754 [     9]: 11120
      0.00534 [     3]: 20111
      0.00340 [    17]: 02111
      0.00308 [     5]: 12101
      0.00268 [    11]: 11102
ROOT  11:  E=   -3306.7483372435 Eh  0.662 eV   5339.2 cm**-1
      0.32009 [    15]: 10121
      0.11584 [     5]: 12101
      0.08447 [    16]: 10112
      0.06269 [     3]: 20111
      0.05856 [    14]: 10211
      0.04948 [    20]: 01112
      0.04866 [     0]: 21110
      0.04218 [     4]: 12110
      0.04184 [    18]: 01211
      0.03783 [     6]: 12011
      0.02522 [     2]: 21011
      0.02461 [    19]: 01121
      0.01871 [    13]: 11012
      0.01747 [    17]: 02111
      0.01347 [    12]: 11021
      0.01245 [     1]: 21101
      0.00927 [    10]: 11111
      0.00748 [     8]: 11201
      0.00654 [     9]: 11120
      0.00309 [     7]: 11210
ROOT  12:  E=   -3306.7375584572 Eh  0.955 eV   7704.8 cm**-1
      0.54327 [    10]: 11111
      0.16135 [    18]: 01211
      0.15575 [     2]: 21011
      0.02879 [    14]: 10211
      0.02726 [     6]: 12011
      0.01811 [     0]: 21110
      0.01721 [    20]: 01112
      0.00965 [    12]: 11021
      0.00730 [     8]: 11201
      0.00635 [     4]: 12110
      0.00586 [    16]: 10112
      0.00498 [     7]: 11210
      0.00445 [    13]: 11012
      0.00276 [    11]: 11102
ROOT  13:  E=   -3306.7373651405 Eh  0.961 eV   7747.3 cm**-1
      0.26346 [    10]: 11111
      0.16450 [    11]: 11102
      0.11704 [     9]: 11120
      0.07865 [     3]: 20111
      0.07784 [    17]: 02111
      0.05146 [    15]: 10121
      0.04691 [     5]: 12101
      0.03684 [     4]: 12110
      0.03643 [     7]: 11210
      0.03125 [    16]: 10112
      0.02005 [    13]: 11012
      0.01608 [     2]: 21011
      0.01371 [    20]: 01112
      0.01256 [     0]: 21110
      0.00749 [     8]: 11201
      0.00655 [    18]: 01211
      0.00649 [     1]: 21101
      0.00627 [    14]: 10211
      0.00388 [    12]: 11021
ROOT  14:  E=   -3306.7373366336 Eh  0.961 eV   7753.5 cm**-1
      0.34001 [    10]: 11111
      0.11963 [     8]: 11201
      0.07704 [    12]: 11021
      0.06933 [    19]: 01121
      0.05920 [     1]: 21101
      0.04901 [    11]: 11102
      0.04237 [     9]: 11120
      0.03440 [     4]: 12110
      0.03225 [     5]: 12101
      0.03090 [    16]: 10112
      0.02945 [    15]: 10121
      0.02403 [     2]: 21011
      0.02071 [     0]: 21110
      0.01963 [    18]: 01211
      0.01781 [    20]: 01112
      0.01149 [     3]: 20111
      0.01110 [    17]: 02111
      0.00353 [     7]: 11210
      0.00325 [    13]: 11012
      0.00268 [    14]: 10211
ROOT  15:  E=   -3306.7370690601 Eh  0.969 eV   7812.3 cm**-1
      0.16013 [     6]: 12011
      0.11847 [    14]: 10211
      0.07993 [    11]: 11102
      0.07918 [    13]: 11012
      0.07467 [     7]: 11210
      0.07110 [     9]: 11120
      0.04609 [     0]: 21110
      0.04434 [     5]: 12101
      0.03818 [     1]: 21101
      0.03502 [    20]: 01112
      0.03273 [    15]: 10121
      0.03143 [    19]: 01121
      0.02766 [    17]: 02111
      0.02708 [     8]: 11201
      0.02622 [     3]: 20111
      0.02424 [    10]: 11111
      0.02360 [     4]: 12110
      0.02303 [    12]: 11021
      0.01500 [     2]: 21011
      0.01379 [    16]: 10112
      0.00813 [    18]: 01211
ROOT  16:  E=   -3306.7368921081 Eh  0.973 eV   7851.1 cm**-1
      0.26083 [    10]: 11111
      0.12319 [    17]: 02111
      0.12247 [     3]: 20111
      0.08570 [     4]: 12110
      0.07485 [     0]: 21110
      0.07182 [    16]: 10112
      0.06194 [    20]: 01112
      0.05627 [     8]: 11201
      0.04798 [    12]: 11021
      0.02720 [     6]: 12011
      0.01924 [    14]: 10211
      0.01390 [     2]: 21011
      0.01146 [     1]: 21101
      0.00622 [    18]: 01211
      0.00422 [     9]: 11120
      0.00369 [    19]: 01121
      0.00282 [    11]: 11102
      0.00275 [     7]: 11210
ROOT  17:  E=   -3306.6787817825 Eh  2.555 eV  20604.8 cm**-1
      0.30346 [    12]: 11021
      0.25805 [     8]: 11201
      0.09240 [     9]: 11120
      0.07729 [    11]: 11102
      0.04501 [    15]: 10121
      0.04456 [    19]: 01121
      0.03745 [     5]: 12101
      0.03584 [     1]: 21101
      0.03533 [     2]: 21011
      0.03234 [    18]: 01211
      0.00778 [     7]: 11210
      0.00766 [    13]: 11012
      0.00380 [     0]: 21110
      0.00335 [    14]: 10211
      0.00329 [    17]: 02111
      0.00329 [     3]: 20111
      0.00321 [     6]: 12011
      0.00318 [    20]: 01112
ROOT  18:  E=   -3306.6780890160 Eh  2.574 eV  20756.9 cm**-1
      0.32633 [     9]: 11120
      0.24740 [    11]: 11102
      0.07704 [    19]: 01121
      0.06281 [     0]: 21110
      0.06082 [     1]: 21101
      0.05972 [    12]: 11021
      0.05851 [    20]: 01112
      0.04667 [     8]: 11201
      0.01394 [     2]: 21011
      0.01331 [    18]: 01211
      0.00896 [     5]: 12101
      0.00873 [    15]: 10121
      0.00317 [     4]: 12110
      0.00284 [     3]: 20111
      0.00260 [    16]: 10112
ROOT  19:  E=   -3306.6768180375 Eh  2.608 eV  21035.8 cm**-1
      0.23394 [    18]: 01211
      0.21252 [     2]: 21011
      0.11663 [    19]: 01121
      0.09536 [     1]: 21101
      0.05444 [    20]: 01112
      0.04179 [    14]: 10211
      0.04130 [     0]: 21110
      0.03898 [     6]: 12011
      0.03596 [    13]: 11012
      0.03399 [     7]: 11210
      0.01993 [     9]: 11120
      0.01951 [    11]: 11102
      0.01622 [    15]: 10121
      0.01490 [     5]: 12101
      0.01088 [    17]: 02111
      0.00524 [     3]: 20111
      0.00376 [    16]: 10112
      0.00298 [     4]: 12110
ROOT  20:  E=   -3306.6766098016 Eh  2.614 eV  21081.5 cm**-1
      0.21215 [    15]: 10121
      0.15197 [    14]: 10211
      0.14432 [     5]: 12101
      0.12021 [     6]: 12011
      0.06472 [     9]: 11120
      0.05518 [    18]: 01211
      0.05077 [    11]: 11102
      0.04830 [     2]: 21011
      0.04298 [    16]: 10112
      0.03637 [    20]: 01112
      0.03420 [     4]: 12110
      0.02960 [     0]: 21110
      0.00435 [    19]: 01121
ROOT  21:  E=   -3306.6763901439 Eh  2.620 eV  21129.7 cm**-1
      0.18110 [     3]: 20111
      0.18012 [    17]: 02111
      0.15028 [    20]: 01112
      0.13540 [     0]: 21110
      0.06778 [    14]: 10211
      0.05295 [     6]: 12011
      0.03923 [     2]: 21011
      0.03813 [    18]: 01211
      0.02709 [     9]: 11120
      0.02514 [    11]: 11102
      0.02408 [    16]: 10112
      0.02286 [     4]: 12110
      0.01031 [    19]: 01121
      0.00994 [     1]: 21101
      0.00682 [    12]: 11021
      0.00664 [     8]: 11201
      0.00604 [    13]: 11012
      0.00593 [     7]: 11210
      0.00515 [     5]: 12101
      0.00477 [    15]: 10121
ROOT  22:  E=   -3306.6761674240 Eh  2.626 eV  21178.6 cm**-1
      0.27616 [    16]: 10112
      0.25152 [     4]: 12110
      0.07418 [     3]: 20111
      0.06355 [    17]: 02111
      0.04233 [    12]: 11021
      0.03643 [     7]: 11210
      0.03533 [     8]: 11201
      0.03427 [    13]: 11012
      0.03337 [    19]: 01121
      0.03333 [    18]: 01211
      0.02801 [     2]: 21011
      0.02553 [     1]: 21101
      0.01909 [    14]: 10211
      0.01560 [     0]: 21110
      0.01559 [     6]: 12011
      0.01388 [    20]: 01112
ROOT  23:  E=   -3306.6758656171 Eh  2.634 eV  21244.9 cm**-1
      0.17800 [     7]: 11210
      0.16584 [     3]: 20111
      0.16439 [    13]: 11012
      0.16300 [    17]: 02111
      0.11994 [    14]: 10211
      0.10353 [     6]: 12011
      0.02328 [    15]: 10121
      0.02257 [     5]: 12101
      0.01831 [     0]: 21110
      0.01819 [    20]: 01112
      0.01198 [     9]: 11120
      0.01068 [    11]: 11102

                 <<<<<<<<<<<<<<<<<<INITIAL CI STATE CHECK>>>>>>>>>>>>>>>>>>

   E(CAS)= -3306.821343599 Eh DE=    0.000000e+00
   --- Energy gap subspaces: Ext-Act = 0.111   Act-Int = 0.061
   N(occ)=  1.00000 1.00000 1.00000 1.00000 1.00000
   ||g|| =     6.563099e-04 Max(G)=   -9.371747e-05 Rot=167,161
                     ---- THE CAS-SCF GRADIENT HAS CONVERGED ----
                            --- FINALIZING ORBITALS ---
                    ---- DOING ONE FINAL ITERATION FOR PRINTING ----
   --- Forming Natural Orbitals
   --- Canonicalize Internal Space
   --- Canonicalize External Space

MACRO-ITERATION   2: 
   --- Inactive Energy E0 = -3296.26228644 Eh
   --- All densities will be recomputed
CI-ITERATION   0: 
 -3306.908790400   0.000000000000 (    0.00)
   CI-PROBLEM SOLVED
   DENSITIES MADE
CI-ITERATION   0: 
 -3306.772664318   0.000000000000 (    0.00)
 -3306.772395686   0.000000000000
 -3306.771383438   0.000000000000
 -3306.771216389   0.000000000000
 -3306.771095933   0.000000000000
 -3306.770987970   0.000000000000
 -3306.770984993   0.000000000000
 -3306.770721210   0.000000000000
 -3306.770700748   0.000000000000
 -3306.749542350   0.000000000000
 -3306.748549638   0.000000000000
 -3306.748337242   0.000000000000
 -3306.737558456   0.000000000000
 -3306.737365139   0.000000000000
 -3306.737336633   0.000000000000
 -3306.737069059   0.000000000000
 -3306.736892107   0.000000000000
 -3306.678781781   0.000000000000
 -3306.678089015   0.000000000000
 -3306.676818036   0.000000000000
 -3306.676609800   0.000000000000
 -3306.676390143   0.000000000000
 -3306.676167423   0.000000000000
 -3306.675865616   0.000000000000
   CI-PROBLEM SOLVED
   DENSITIES MADE
   E(CAS)= -3306.821343598 Eh DE=    1.157332e-09
   --- Energy gap subspaces: Ext-Act = 0.113   Act-Int = 0.062
   N(occ)=  1.00000 1.00000 1.00000 1.00000 1.00000
   ||g|| =     6.563100e-04 Max(G)=   -9.371747e-05 Rot=167,161
--------------
CASSCF RESULTS
--------------

Final CASSCF energy       : -3306.821343598 Eh  -89983.1834 eV

----------------
ORBITAL ENERGIES
----------------

  NO   OCC          E(Eh)            E(eV) 
   0   2.0000    -240.564405     -6546.0903 
   1   2.0000     -29.137353      -792.8677 
   2   2.0000     -24.842635      -676.0025 
   3   2.0000     -24.842513      -675.9991 
   4   2.0000     -24.842335      -675.9943 
   5   2.0000      -4.720610      -128.4543 
   6   2.0000      -4.720454      -128.4501 
   7   2.0000      -4.720224      -128.4438 
   8   2.0000      -4.720185      -128.4428 
   9   2.0000      -4.719566      -128.4259 
  10   2.0000      -4.719462      -128.4231 
  11   2.0000      -4.714960      -128.3006 
  12   2.0000      -4.714791      -128.2960 
  13   2.0000      -4.714153      -128.2786 
  14   2.0000      -4.714090      -128.2769 
  15   2.0000      -4.711636      -128.2101 
  16   2.0000      -4.711571      -128.2084 
  17   2.0000      -4.711479      -128.2059 
  18   2.0000      -4.711336      -128.2020 
  19   2.0000      -4.709399      -128.1493 
  20   2.0000      -4.709311      -128.1469 
  21   2.0000      -3.843426      -104.5849 
  22   2.0000      -2.759113       -75.0793 
  23   2.0000      -2.759003       -75.0763 
  24   2.0000      -2.758785       -75.0704 
  25   2.0000      -2.758729       -75.0688 
  26   2.0000      -2.758116       -75.0521 
  27   2.0000      -2.758046       -75.0503 
  28   2.0000      -2.757150       -75.0259 
  29   2.0000      -2.757058       -75.0234 
  30   2.0000      -2.756168       -74.9991 
  31   2.0000      -2.756093       -74.9971 
  32   2.0000      -2.756057       -74.9961 
  33   2.0000      -2.755967       -74.9937 
  34   2.0000      -2.755693       -74.9862 
  35   2.0000      -2.754832       -74.9628 
  36   2.0000      -2.754597       -74.9564 
  37   2.0000      -2.753930       -74.9382 
  38   2.0000      -2.753552       -74.9280 
  39   2.0000      -2.753157       -74.9172 
  40   2.0000      -2.753113       -74.9160 
  41   2.0000      -2.752582       -74.9016 
  42   2.0000      -2.752248       -74.8925 
  43   2.0000      -2.751659       -74.8765 
  44   2.0000      -2.750782       -74.8526 
  45   2.0000      -2.750716       -74.8508 
  46   2.0000      -2.750447       -74.8435 
  47   2.0000      -2.749810       -74.8261 
  48   2.0000      -2.749076       -74.8062 
  49   2.0000      -2.748957       -74.8029 
  50   2.0000      -2.748886       -74.8010 
  51   2.0000      -2.748072       -74.7788 
  52   2.0000      -2.748020       -74.7774 
  53   2.0000      -2.747470       -74.7625 
  54   2.0000      -2.747370       -74.7597 
  55   2.0000      -2.747166       -74.7542 
  56   2.0000      -2.746627       -74.7395 
  57   2.0000      -2.746393       -74.7331 
  58   2.0000      -2.746276       -74.7300 
  59   2.0000      -2.746099       -74.7251 
  60   2.0000      -2.745966       -74.7215 
  61   2.0000      -2.745847       -74.7183 
  62   2.0000      -2.744848       -74.6911 
  63   2.0000      -2.744593       -74.6842 
  64   2.0000      -2.744386       -74.6785 
  65   2.0000      -2.744069       -74.6699 
  66   2.0000      -2.743295       -74.6488 
  67   2.0000      -2.743140       -74.6446 
  68   2.0000      -2.742701       -74.6327 
  69   2.0000      -2.742494       -74.6271 
  70   2.0000      -2.513157       -68.3865 
  71   2.0000      -2.512064       -68.3567 
  72   2.0000      -2.511789       -68.3493 
  73   2.0000      -0.585293       -15.9266 
  74   2.0000      -0.562287       -15.3006 
  75   2.0000      -0.558726       -15.2037 
  76   2.0000      -0.558554       -15.1990 
  77   2.0000      -0.553151       -15.0520 
  78   2.0000      -0.551765       -15.0143 
  79   2.0000      -0.551188       -14.9986 
  80   2.0000      -0.548942       -14.9375 
  81   2.0000      -0.548575       -14.9275 
  82   2.0000      -0.548161       -14.9162 
  83   2.0000      -0.546777       -14.8786 
  84   2.0000      -0.545794       -14.8518 
  85   2.0000      -0.545302       -14.8384 
  86   2.0000      -0.543885       -14.7999 
  87   2.0000      -0.543726       -14.7955 
  88   2.0000      -0.542739       -14.7687 
  89   2.0000      -0.539973       -14.6934 
  90   2.0000      -0.538201       -14.6452 
  91   2.0000      -0.537883       -14.6365 
  92   2.0000      -0.535959       -14.5842 
  93   2.0000      -0.532610       -14.4931 
  94   2.0000      -0.530757       -14.4426 
  95   2.0000      -0.528960       -14.3937 
  96   2.0000      -0.526883       -14.3372 
  97   2.0000      -0.525277       -14.2935 
  98   2.0000      -0.523483       -14.2447 
  99   2.0000      -0.519719       -14.1423 
 100   2.0000      -0.515723       -14.0335 
 101   2.0000      -0.513136       -13.9632 
 102   2.0000      -0.509893       -13.8749 
 103   2.0000      -0.507809       -13.8182 
 104   2.0000      -0.506863       -13.7925 
 105   2.0000      -0.500597       -13.6219 
 106   2.0000      -0.497795       -13.5457 
 107   2.0000      -0.497454       -13.5364 
 108   2.0000      -0.493338       -13.4244 
 109   2.0000      -0.492120       -13.3913 
 110   2.0000      -0.490780       -13.3548 
 111   2.0000      -0.486940       -13.2503 
 112   2.0000      -0.481059       -13.0903 
 113   2.0000      -0.477525       -12.9941 
 114   2.0000      -0.473893       -12.8953 
 115   2.0000      -0.472361       -12.8536 
 116   2.0000      -0.470336       -12.7985 
 117   2.0000      -0.468774       -12.7560 
 118   2.0000      -0.465616       -12.6701 
 119   2.0000      -0.463111       -12.6019 
 120   2.0000      -0.461191       -12.5496 
 121   2.0000      -0.460452       -12.5295 
 122   2.0000      -0.460421       -12.5287 
 123   2.0000      -0.456039       -12.4094 
 124   2.0000      -0.454751       -12.3744 
 125   2.0000      -0.454535       -12.3685 
 126   2.0000      -0.451553       -12.2874 
 127   2.0000      -0.451130       -12.2759 
 128   2.0000      -0.448785       -12.2121 
 129   2.0000      -0.447937       -12.1890 
 130   2.0000      -0.446583       -12.1522 
 131   2.0000      -0.445782       -12.1304 
 132   2.0000      -0.444408       -12.0930 
 133   2.0000      -0.442748       -12.0478 
 134   2.0000      -0.440080       -11.9752 
 135   2.0000      -0.439849       -11.9689 
 136   2.0000      -0.437631       -11.9086 
 137   2.0000      -0.433427       -11.7941 
 138   2.0000      -0.432712       -11.7747 
 139   2.0000      -0.431979       -11.7548 
 140   2.0000      -0.430412       -11.7121 
 141   2.0000      -0.427068       -11.6211 
 142   2.0000      -0.425937       -11.5903 
 143   2.0000      -0.422527       -11.4975 
 144   2.0000      -0.421475       -11.4689 
 145   2.0000      -0.421254       -11.4629 
 146   2.0000      -0.419679       -11.4200 
 147   2.0000      -0.416179       -11.3248 
 148   2.0000      -0.414889       -11.2897 
 149   2.0000      -0.406098       -11.0505 
 150   2.0000      -0.402178       -10.9438 
 151   2.0000      -0.401584       -10.9277 
 152   2.0000      -0.401386       -10.9223 
 153   2.0000      -0.393100       -10.6968 
 154   2.0000      -0.380938       -10.3659 
 155   2.0000      -0.375527       -10.2186 
 156   2.0000      -0.365638        -9.9495 
 157   2.0000      -0.260256        -7.0819 
 158   2.0000      -0.257284        -7.0010 
 159   2.0000      -0.241736        -6.5780 
 160   2.0000      -0.235484        -6.4078 
 161   2.0000      -0.223183        -6.0731 
 162   1.0000      -0.158372        -4.3095 
 163   1.0000      -0.159981        -4.3533 
 164   1.0000      -0.160730        -4.3737 
 165   1.0000      -0.158622        -4.3163 
 166   1.0000      -0.159352        -4.3362 
 167   0.0000      -0.045055        -1.2260 
 168   0.0000      -0.010450        -0.2844 
 169   0.0000      -0.005110        -0.1391 
 170   0.0000       0.001977         0.0538 
 171   0.0000       0.006150         0.1674 
 172   0.0000       0.007209         0.1962 
 173   0.0000       0.010645         0.2897 
 174   0.0000       0.012253         0.3334 
 175   0.0000       0.028800         0.7837 
 176   0.0000       0.029437         0.8010 
 177   0.0000       0.035136         0.9561 
 178   0.0000       0.068128         1.8539 
 179   0.0000       0.076482         2.0812 
 180   0.0000       0.087262         2.3745 
 181   0.0000       0.090578         2.4648 
 182   0.0000       0.095714         2.6045 
 183   0.0000       0.099809         2.7159 
 184   0.0000       0.100104         2.7240 
 185   0.0000       0.103290         2.8107 
 186   0.0000       0.108560         2.9541 
 187   0.0000       0.113514         3.0889 
 188   0.0000       0.121949         3.3184 
 189   0.0000       0.123420         3.3584 
 190   0.0000       0.125280         3.4090 
 191   0.0000       0.127766         3.4767 
 192   0.0000       0.132748         3.6122 
 193   0.0000       0.135475         3.6865 
 194   0.0000       0.145597         3.9619 
 195   0.0000       0.147748         4.0204 
 196   0.0000       0.149190         4.0597 
 197   0.0000       0.153501         4.1770 
 198   0.0000       0.154796         4.2122 
 199   0.0000       0.163372         4.4456 
 200   0.0000       0.173168         4.7121 
 201   0.0000       0.173940         4.7332 
 202   0.0000       0.177419         4.8278 
 203   0.0000       0.178486         4.8568 
 204   0.0000       0.179675         4.8892 
 205   0.0000       0.182880         4.9764 
 206   0.0000       0.183347         4.9891 
 207   0.0000       0.185682         5.0527 
 208   0.0000       0.188891         5.1400 
 209   0.0000       0.195711         5.3256 
 210   0.0000       0.198367         5.3978 
 211   0.0000       0.200756         5.4628 
 212   0.0000       0.203069         5.5258 
 213   0.0000       0.208649         5.6776 
 214   0.0000       0.221985         6.0405 
 215   0.0000       0.229966         6.2577 
 216   0.0000       0.233325         6.3491 
 217   0.0000       0.238608         6.4929 
 218   0.0000       0.239942         6.5292 
 219   0.0000       0.242434         6.5970 
 220   0.0000       0.247194         6.7265 
 221   0.0000       0.251420         6.8415 
 222   0.0000       0.265118         7.2142 
 223   0.0000       0.267481         7.2785 
 224   0.0000       0.277348         7.5470 
 225   0.0000       0.285309         7.7636 
 226   0.0000       0.293051         7.9743 
 227   0.0000       0.296223         8.0606 
 228   0.0000       0.299431         8.1479 
 229   0.0000       0.304693         8.2911 
 230   0.0000       0.318156         8.6575 
 231   0.0000       0.336102         9.1458 
 232   0.0000       0.348613         9.4862 
 233   0.0000       0.356955         9.7132 
 234   0.0000       0.361774         9.8444 
 235   0.0000       0.365641         9.9496 
 236   0.0000       0.368395        10.0245 
 237   0.0000       0.370359        10.0780 
 238   0.0000       0.378584        10.3018 
 239   0.0000       0.386917        10.5286 
 240   0.0000       0.391168        10.6442 
 241   0.0000       0.401316        10.9204 
 242   0.0000       0.417157        11.3514 
 243   0.0000       0.420499        11.4424 
 244   0.0000       0.420811        11.4508 
 245   0.0000       0.421811        11.4781 
 246   0.0000       0.429323        11.6825 
 247   0.0000       0.429633        11.6909 
 248   0.0000       0.432933        11.7807 
 249   0.0000       0.446072        12.1382 
 250   0.0000       0.446463        12.1489 
 251   0.0000       0.448948        12.2165 
 252   0.0000       0.451699        12.2914 
 253   0.0000       0.462578        12.5874 
 254   0.0000       0.462943        12.5973 
 255   0.0000       0.475478        12.9384 
 256   0.0000       0.480027        13.0622 
 257   0.0000       0.480470        13.0742 
 258   0.0000       0.484553        13.1854 
 259   0.0000       0.486009        13.2250 
 260   0.0000       0.489158        13.3107 
 261   0.0000       0.498507        13.5651 
 262   0.0000       0.502469        13.6729 
 263   0.0000       0.505241        13.7483 
 264   0.0000       0.507733        13.8161 
 265   0.0000       0.511208        13.9107 
 266   0.0000       0.518207        14.1011 
 267   0.0000       0.521645        14.1947 
 268   0.0000       0.525300        14.2942 
 269   0.0000       0.528653        14.3854 
 270   0.0000       0.532390        14.4871 
 271   0.0000       0.536356        14.5950 
 272   0.0000       0.539593        14.6831 
 273   0.0000       0.549521        14.9532 
 274   0.0000       0.557178        15.1616 
 275   0.0000       0.560682        15.2569 
 276   0.0000       0.563837        15.3428 
 277   0.0000       0.564805        15.3691 
 278   0.0000       0.571148        15.5417 
 279   0.0000       0.577636        15.7183 
 280   0.0000       0.581839        15.8326 
 281   0.0000       0.587981        15.9998 
 282   0.0000       0.592466        16.1218 
 283   0.0000       0.593324        16.1452 
 284   0.0000       0.597517        16.2593 
 285   0.0000       0.603520        16.4226 
 286   0.0000       0.608452        16.5568 
 287   0.0000       0.609881        16.5957 
 288   0.0000       0.632100        17.2003 
 289   0.0000       0.632298        17.2057 
 290   0.0000       0.633310        17.2332 
 291   0.0000       0.634972        17.2785 
 292   0.0000       0.640064        17.4170 
 293   0.0000       0.649901        17.6847 
 294   0.0000       0.651172        17.7193 
 295   0.0000       0.655437        17.8354 
 296   0.0000       0.661112        17.9898 
 297   0.0000       0.664492        18.0817 
 298   0.0000       0.668818        18.1995 
 299   0.0000       0.670264        18.2388 
 300   0.0000       0.674998        18.3676 
 301   0.0000       0.679552        18.4916 
 302   0.0000       0.683196        18.5907 
 303   0.0000       0.685233        18.6461 
 304   0.0000       0.689313        18.7572 
 305   0.0000       0.690044        18.7771 
 306   0.0000       0.691126        18.8065 
 307   0.0000       0.697907        18.9910 
 308   0.0000       0.698065        18.9953 
 309   0.0000       0.703072        19.1316 
 310   0.0000       0.709509        19.3067 
 311   0.0000       0.721897        19.6438 
 312   0.0000       0.721990        19.6463 
 313   0.0000       0.723377        19.6841 
 314   0.0000       0.725759        19.7489 
 315   0.0000       0.729925        19.8623 
 316   0.0000       0.740032        20.1373 
 317   0.0000       0.742391        20.2015 
 318   0.0000       0.745362        20.2823 
 319   0.0000       0.750738        20.4286 
 320   0.0000       0.756424        20.5833 
 321   0.0000       0.762614        20.7518 
 322   0.0000       0.763931        20.7876 
 323   0.0000       0.773883        21.0584 
 324   0.0000       0.780150        21.2290 
 325   0.0000       0.782963        21.3055 
 326   0.0000       0.785104        21.3638 
 327   0.0000       0.806786        21.9538 
 328   0.0000       0.918710        24.9994 
 329   0.0000       0.931355        25.3435 
 330   0.0000       0.947971        25.7956 
 331   0.0000       0.965521        26.2732 
 332   0.0000       0.975360        26.5409 
 333   0.0000       0.976512        26.5722 
 334   0.0000       0.989955        26.9381 
 335   0.0000       0.997378        27.1400 
 336   0.0000       1.003164        27.2975 
 337   0.0000       1.004422        27.3317 
 338   0.0000       1.021835        27.8055 
 339   0.0000       1.022211        27.8158 
 340   0.0000       1.024803        27.8863 
 341   0.0000       1.030698        28.0467 
 342   0.0000       1.051952        28.6251 
 343   0.0000       1.062846        28.9215 
 344   0.0000       1.065671        28.9984 
 345   0.0000       1.075329        29.2612 
 346   0.0000       1.081016        29.4159 
 347   0.0000       1.088058        29.6076 
 348   0.0000       1.104910        30.0661 
 349   0.0000       1.105873        30.0923 
 350   0.0000       1.114211        30.3192 
 351   0.0000       1.128628        30.7115 
 352   0.0000       1.129477        30.7346 
 353   0.0000       1.149260        31.2730 
 354   0.0000       1.154832        31.4246 
 355   0.0000       1.164237        31.6805 
 356   0.0000       1.165222        31.7073 
 357   0.0000       1.180140        32.1133 
 358   0.0000       1.188488        32.3404 
 359   0.0000       1.189208        32.3600 
 360   0.0000       1.204596        32.7787 
 361   0.0000       1.205413        32.8009 
 362   0.0000       1.219034        33.1716 
 363   0.0000       1.229006        33.4429 
 364   0.0000       1.230169        33.4746 
 365   0.0000       1.234547        33.5937 
 366   0.0000       1.236749        33.6537 
 367   0.0000       1.253793        34.1174 
 368   0.0000       1.258072        34.2339 
 369   0.0000       1.273172        34.6448 
 370   0.0000       1.276071        34.7237 
 371   0.0000       1.309757        35.6403 
 372   0.0000       1.312681        35.7199 
 373   0.0000       1.354261        36.8513 
 374   0.0000       1.368651        37.2429 
 375   0.0000       1.473335        40.0915 
 376   0.0000       1.500073        40.8191 
 377   0.0000       1.509658        41.0799 
 378   0.0000       1.528590        41.5951 
 379   0.0000       1.546976        42.0953 
 380   0.0000       1.572283        42.7840 
 381   0.0000       1.586703        43.1764 
 382   0.0000       1.591090        43.2958 
 383   0.0000       1.600273        43.5456 
 384   0.0000       1.601316        43.5740 
 385   0.0000       1.612586        43.8807 
 386   0.0000       1.622767        44.1577 
 387   0.0000       1.624815        44.2135 
 388   0.0000       1.627793        44.2945 
 389   0.0000       1.637457        44.5575 
 390   0.0000       1.647102        44.8199 
 391   0.0000       1.654235        45.0140 
 392   0.0000       1.655080        45.0370 
 393   0.0000       1.660410        45.1820 
 394   0.0000       1.664872        45.3035 
 395   0.0000       1.670332        45.4521 
 396   0.0000       1.686595        45.8946 
 397   0.0000       1.693328        46.0778 
 398   0.0000       1.699562        46.2474 
 399   0.0000       1.708578        46.4928 
 400   0.0000       1.710861        46.5549 
 401   0.0000       1.714665        46.6584 
 402   0.0000       1.735374        47.2219 
 403   0.0000       1.740883        47.3718 
 404   0.0000       1.744315        47.4652 
 405   0.0000       1.758109        47.8406 
 406   0.0000       1.760779        47.9132 
 407   0.0000       1.763585        47.9896 
 408   0.0000       1.771192        48.1966 
 409   0.0000       1.771510        48.2052 
 410   0.0000       1.776105        48.3303 
 411   0.0000       1.779465        48.4217 
 412   0.0000       1.781901        48.4880 
 413   0.0000       1.784467        48.5578 
 414   0.0000       1.790342        48.7177 
 415   0.0000       1.794791        48.8387 
 416   0.0000       1.797309        48.9073 
 417   0.0000       1.799971        48.9797 
 418   0.0000       1.803559        49.0773 
 419   0.0000       1.812168        49.3116 
 420   0.0000       1.813042        49.3354 
 421   0.0000       1.817154        49.4473 
 422   0.0000       1.817469        49.4558 
 423   0.0000       1.820952        49.5506 
 424   0.0000       1.825458        49.6732 
 425   0.0000       1.828117        49.7456 
 426   0.0000       1.828424        49.7539 
 427   0.0000       1.829170        49.7742 
 428   0.0000       1.831895        49.8484 
 429   0.0000       1.835028        49.9336 
 430   0.0000       1.839670        50.0600 
 431   0.0000       1.844697        50.1967 
 432   0.0000       1.845983        50.2318 
 433   0.0000       1.847643        50.2769 
 434   0.0000       1.850594        50.3572 
 435   0.0000       1.854890        50.4741 
 436   0.0000       1.856656        50.5222 
 437   0.0000       1.857699        50.5505 
 438   0.0000       1.861910        50.6651 
 439   0.0000       1.862406        50.6786 
 440   0.0000       1.862446        50.6797 
 441   0.0000       1.864035        50.7230 
 442   0.0000       1.865881        50.7732 
 443   0.0000       1.867075        50.8057 
 444   0.0000       1.867170        50.8083 
 445   0.0000       1.869327        50.8670 
 446   0.0000       1.870671        50.9035 
 447   0.0000       1.873575        50.9826 
 448   0.0000       1.874204        50.9997 
 449   0.0000       1.875588        51.0373 
 450   0.0000       1.877632        51.0930 
 451   0.0000       1.878620        51.1199 
 452   0.0000       1.879392        51.1409 
 453   0.0000       1.881512        51.1985 
 454   0.0000       1.882851        51.2350 
 455   0.0000       1.883137        51.2428 
 456   0.0000       1.884853        51.2895 
 457   0.0000       1.884964        51.2925 
 458   0.0000       1.887106        51.3508 
 459   0.0000       1.889985        51.4291 
 460   0.0000       1.891432        51.4685 
 461   0.0000       1.892397        51.4948 
 462   0.0000       1.894804        51.5603 
 463   0.0000       1.895287        51.5734 
 464   0.0000       1.895573        51.5812 
 465   0.0000       1.896177        51.5976 
 466   0.0000       1.896547        51.6077 
 467   0.0000       1.899087        51.6768 
 468   0.0000       1.900258        51.7086 
 469   0.0000       1.902318        51.7647 
 470   0.0000       1.902743        51.7763 
 471   0.0000       1.904690        51.8293 
 472   0.0000       1.906069        51.8668 
 473   0.0000       1.906683        51.8835 
 474   0.0000       1.907152        51.8962 
 475   0.0000       1.909476        51.9595 
 476   0.0000       1.911422        52.0124 
 477   0.0000       1.913999        52.0826 
 478   0.0000       1.916205        52.1426 
 479   0.0000       1.917920        52.1893 
 480   0.0000       1.919905        52.2433 
 481   0.0000       1.922743        52.3205 
 482   0.0000       1.924366        52.3647 
 483   0.0000       1.927442        52.4484 
 484   0.0000       1.929939        52.5163 
 485   0.0000       1.934670        52.6450 
 486   0.0000       1.935087        52.6564 
 487   0.0000       1.937845        52.7314 
 488   0.0000       1.938888        52.7598 
 489   0.0000       1.941429        52.8290 
 490   0.0000       1.943078        52.8738 
 491   0.0000       1.946248        52.9601 
 492   0.0000       1.947546        52.9954 
 493   0.0000       1.948223        53.0138 
 494   0.0000       1.949877        53.0589 
 495   0.0000       1.950990        53.0891 
 496   0.0000       1.955462        53.2108 
 497   0.0000       1.957017        53.2531 
 498   0.0000       1.961437        53.3734 
 499   0.0000       1.962247        53.3954 
 500   0.0000       1.965692        53.4892 
 501   0.0000       1.966807        53.5195 
 502   0.0000       1.967272        53.5322 
 503   0.0000       1.968653        53.5698 
 504   0.0000       1.978599        53.8404 
 505   0.0000       1.982082        53.9352 
 506   0.0000       1.982380        53.9433 
 507   0.0000       1.983630        53.9773 
 508   0.0000       1.984277        53.9949 
 509   0.0000       1.988336        54.1054 
 510   0.0000       1.991242        54.1844 
 511   0.0000       1.995018        54.2872 
 512   0.0000       1.996481        54.3270 
 513   0.0000       2.000881        54.4468 
 514   0.0000       2.003667        54.5226 
 515   0.0000       2.006019        54.5865 
 516   0.0000       2.009768        54.6886 
 517   0.0000       2.013420        54.7880 
 518   0.0000       2.015102        54.8337 
 519   0.0000       2.022637        55.0388 
 520   0.0000       2.024312        55.0843 
 521   0.0000       2.026168        55.1348 
 522   0.0000       2.027077        55.1596 
 523   0.0000       2.032137        55.2973 
 524   0.0000       2.043880        55.6168 
 525   0.0000       2.044233        55.6264 
 526   0.0000       2.051819        55.8328 
 527   0.0000       2.057179        55.9787 
 528   0.0000       2.060760        56.0761 
 529   0.0000       2.065485        56.2047 
 530   0.0000       2.073782        56.4305 
 531   0.0000       2.085757        56.7563 
 532   0.0000       2.090049        56.8731 
 533   0.0000       2.095162        57.0123 
 534   0.0000       2.098264        57.0967 
 535   0.0000       2.119164        57.6654 
 536   0.0000       2.123101        57.7725 
 537   0.0000       2.123241        57.7763 
 538   0.0000       2.123736        57.7898 
 539   0.0000       2.137756        58.1713 
 540   0.0000       2.141839        58.2824 
 541   0.0000       2.142937        58.3123 
 542   0.0000       2.160852        58.7998 
 543   0.0000       2.168278        59.0019 
 544   0.0000       2.178999        59.2936 
 545   0.0000       2.182600        59.3916 
 546   0.0000       2.183956        59.4285 
 547   0.0000       2.194308        59.7102 
 548   0.0000       2.198383        59.8211 
 549   0.0000       2.202409        59.9306 
 550   0.0000       2.205900        60.0256 
 551   0.0000       2.210247        60.1439 
 552   0.0000       2.214673        60.2643 
 553   0.0000       2.219756        60.4026 
 554   0.0000       2.227479        60.6128 
 555   0.0000       2.235865        60.8410 
 556   0.0000       2.243165        61.0396 
 557   0.0000       2.245132        61.0931 
 558   0.0000       2.253720        61.3268 
 559   0.0000       2.255619        61.3785 
 560   0.0000       2.268441        61.7274 
 561   0.0000       2.269520        61.7568 
 562   0.0000       2.281856        62.0925 
 563   0.0000       2.289063        62.2886 
 564   0.0000       2.303154        62.6720 
 565   0.0000       2.306982        62.7762 
 566   0.0000       2.344434        63.7953 
 567   0.0000       2.350316        63.9554 
 568   0.0000       2.362853        64.2965 
 569   0.0000       2.416124        65.7461 
 570   0.0000       2.519502        68.5591 
 571   0.0000       2.535212        68.9866 
 572   0.0000       2.550459        69.4015 
 573   0.0000       2.661034        72.4104 
 574   0.0000       2.712341        73.8065 
 575   0.0000       2.745150        74.6993 
 576   0.0000       2.755955        74.9934 
 577   0.0000       2.828163        76.9582 
 578   0.0000       2.864063        77.9351 
 579   0.0000       2.885588        78.5208 
 580   0.0000       2.899965        78.9121 
 581   0.0000       2.925001        79.5933 
 582   0.0000       2.938837        79.9698 
 583   0.0000       2.959273        80.5259 
 584   0.0000       2.984824        81.2212 
 585   0.0000       2.999086        81.6093 
 586   0.0000       3.002402        81.6995 
 587   0.0000       3.011961        81.9596 
 588   0.0000       3.027667        82.3870 
 589   0.0000       3.028990        82.4230 
 590   0.0000       3.088910        84.0535 
 591   0.0000       3.089878        84.0798 
 592   0.0000       3.763866       102.4200 
 593   0.0000       3.777679       102.7959 
 594   0.0000       3.778172       102.8093 
 595   0.0000       3.779699       102.8508 
 596   0.0000       3.782421       102.9249 
 597   0.0000       3.787233       103.0559 
 598   0.0000       3.794184       103.2450 
 599   0.0000       3.802050       103.4590 
 600   0.0000       4.021360       109.4268 
 601   0.0000       4.027759       109.6009 
 602   0.0000       4.080196       111.0278 
 603   0.0000       4.147020       112.8461 
 604   0.0000       4.195769       114.1727 
 605   0.0000      24.654457       670.8819 
 606   0.0000      24.739043       673.1836 
 607   0.0000      24.959054       679.1704 
 608   0.0000      25.143370       684.1859 
 609   0.0000      25.195304       685.5991 
 610   0.0000      25.330275       689.2718 
 611   0.0000      25.360105       690.0836 
 612   0.0000      25.594803       696.4700 
 613   0.0000      25.712393       699.6698 
 614   0.0000      25.809423       702.3101 
 615   0.0000      25.872252       704.0198 
 616   0.0000      26.003703       707.5967 
 617   0.0000      26.130051       711.0348 
 618   0.0000      26.156580       711.7567 
 619   0.0000      26.190047       712.6674 
 620   0.0000      26.249711       714.2909 
 621   0.0000      26.462713       720.0870 
 622   0.0000      26.464600       720.1384 
 623   0.0000      26.508157       721.3236 
 624   0.0000      26.583387       723.3707 
 625   0.0000      26.620039       724.3681 
 626   0.0000      26.758800       728.1440 
 627   0.0000      26.778695       728.6853 
 628   0.0000      26.843786       730.4566 
[...]
 3 96   42744.0    234.0   0.000000000   0.00000   0.00000   0.00001   0.00000
 3 97   42744.0    234.0   0.000000000   0.00000   0.00000   0.00001   0.00001
 3 98   42837.9    233.4   0.000000000   0.00000   0.00000   0.00002   0.00001
 3 99   42837.9    233.4   0.000000000   0.00000   0.00000   0.00001   0.00000
 3 100   42842.2    233.4   0.000000000   0.00000   0.00000   0.00000   0.00000
 3 101   42842.2    233.4   0.000000000   0.00000   0.00000   0.00001   0.00000
 4  5       0.0      0.0   0.000000000   0.00000   0.00000   0.00000   0.00000
 4  6   25699.9    389.1   0.000000000   0.00000   0.00030   0.00015   0.00016
 4  7   25699.9    389.1   0.000000000   0.00000   0.00025   0.00013   0.00021
 4  8   25702.8    389.1   0.000000000   0.00000   0.00005   0.00002   0.00002
 4  9   25702.8    389.1   0.000000000   0.00000   0.00009   0.00004   0.00006
 4 10   25816.1    387.4   0.000000000   0.00000   0.00024   0.00012   0.00012
 4 11   25816.1    387.4   0.000000000   0.00000   0.00021   0.00010   0.00022
 4 12   25817.6    387.3   0.000000000   0.00000   0.00020   0.00010   0.00028
 4 13   25817.6    387.3   0.000000001   0.00000   0.00055   0.00027   0.00035
 4 14   26453.2    378.0   0.000000000   0.00000   0.00010   0.00018   0.00010
 4 15   26453.2    378.0   0.000000000   0.00000   0.00009   0.00017   0.00001
 4 16   26455.4    378.0   0.000000000   0.00000   0.00003   0.00009   0.00003
 4 17   26455.4    378.0   0.000000000   0.00000   0.00001   0.00002   0.00003
 4 18   26476.3    377.7   0.000000000   0.00000   0.00013   0.00003   0.00008
 4 19   26476.3    377.7   0.000000000   0.00000   0.00013   0.00004   0.00006
 4 20   26479.3    377.7   0.000000000   0.00000   0.00038   0.00012   0.00018
 4 21   26479.3    377.7   0.000000001   0.00000   0.00050   0.00015   0.00030
 4 22   26543.8    376.7   0.000000000   0.00000   0.00010   0.00002   0.00002
 4 23   26543.8    376.7   0.000000000   0.00000   0.00018   0.00015   0.00007
 4 24   26545.7    376.7   0.000000000   0.00000   0.00008   0.00011   0.00004
 4 25   26545.7    376.7   0.000000000   0.00000   0.00010   0.00008   0.00009
 4 26   26552.0    376.6   0.000000001   0.00000   0.00038   0.00049   0.00032
 4 27   26552.0    376.6   0.000000000   0.00000   0.00012   0.00014   0.00008
 4 28   26553.7    376.6   0.000000001   0.00000   0.00034   0.00045   0.00027
 4 29   26553.7    376.6   0.000000000   0.00000   0.00009   0.00013   0.00012
 4 30   26563.2    376.5   0.000000001   0.00000   0.00036   0.00052   0.00031
 4 31   26563.2    376.5   0.000000000   0.00000   0.00022   0.00033   0.00024
 4 32   26566.6    376.4   0.000000001   0.00000   0.00031   0.00043   0.00025
 4 33   26566.6    376.4   0.000000001   0.00000   0.00040   0.00055   0.00037
 4 34   26635.1    375.4   0.000000001   0.00000   0.00047   0.00010   0.00024
 4 35   26635.1    375.4   0.000000000   0.00000   0.00023   0.00006   0.00017
 4 36   26638.6    375.4   0.000000000   0.00000   0.00010   0.00003   0.00008
 4 37   26638.6    375.4   0.000000000   0.00000   0.00013   0.00002   0.00005
 4 38   26646.9    375.3   0.000000000   0.00000   0.00009   0.00007   0.00009
 4 39   26646.9    375.3   0.000000000   0.00000   0.00006   0.00004   0.00001
 4 40   26651.3    375.2   0.000000000   0.00000   0.00032   0.00012   0.00033
 4 41   26651.3    375.2   0.000000000   0.00000   0.00035   0.00012   0.00018
 4 42   29173.6    342.8   0.000000000   0.00000   0.00005   0.00010   0.00006
 4 43   29173.6    342.8   0.000000000   0.00000   0.00004   0.00007   0.00004
 4 44   29190.1    342.6   0.000000000   0.00000   0.00004   0.00003   0.00003
 4 45   29190.1    342.6   0.000000000   0.00000   0.00005   0.00003   0.00003
 4 46   29702.3    336.7   0.000000000   0.00000   0.00002   0.00001   0.00002
 4 47   29702.3    336.7   0.000000000   0.00000   0.00001   0.00006   0.00003
 4 48   29713.7    336.5   0.000000000   0.00000   0.00007   0.00003   0.00004
 4 49   29713.7    336.5   0.000000000   0.00000   0.00006   0.00002   0.00004
 4 50   29761.5    336.0   0.000000000   0.00000   0.00005   0.00001   0.00005
 4 51   29761.5    336.0   0.000000000   0.00000   0.00005   0.00001   0.00005
 4 52   29794.8    335.6   0.000000000   0.00000   0.00013   0.00007   0.00006
 4 53   29794.8    335.6   0.000000000   0.00000   0.00009   0.00005   0.00010
 4 54   31520.2    317.3   0.000000002   0.00000   0.00031   0.00062   0.00036
 4 55   31520.2    317.3   0.000000001   0.00000   0.00030   0.00059   0.00026
 4 56   31548.9    317.0   0.000000000   0.00000   0.00005   0.00019   0.00007
 4 57   31548.9    317.0   0.000000000   0.00000   0.00009   0.00031   0.00014
 4 58   31581.7    316.6   0.000000000   0.00000   0.00003   0.00011   0.00009
 4 59   31581.7    316.6   0.000000000   0.00000   0.00011   0.00025   0.00014
 4 60   31597.5    316.5   0.000000000   0.00000   0.00008   0.00018   0.00008
 4 61   31597.5    316.5   0.000000000   0.00000   0.00008   0.00034   0.00017
 4 62   31628.9    316.2   0.000000000   0.00000   0.00007   0.00008   0.00004
 4 63   31628.9    316.2   0.000000000   0.00000   0.00006   0.00004   0.00004
 4 64   31659.2    315.9   0.000000000   0.00000   0.00005   0.00008   0.00002
 4 65   31659.2    315.9   0.000000000   0.00000   0.00012   0.00020   0.00013
 4 66   31699.6    315.5   0.000000000   0.00000   0.00019   0.00009   0.00012
 4 67   31699.6    315.5   0.000000000   0.00000   0.00006   0.00009   0.00004
 4 68   31724.4    315.2   0.000000000   0.00000   0.00009   0.00011   0.00004
 4 69   31724.4    315.2   0.000000000   0.00000   0.00005   0.00013   0.00008
 4 70   31753.3    314.9   0.000000000   0.00000   0.00008   0.00003   0.00008
 4 71   31753.3    314.9   0.000000000   0.00000   0.00006   0.00004   0.00002
 4 72   31772.4    314.7   0.000000000   0.00000   0.00019   0.00021   0.00012
 4 73   31772.4    314.7   0.000000000   0.00000   0.00010   0.00014   0.00019
 4 74   41763.5    239.4   0.000000000   0.00000   0.00001   0.00000   0.00000
 4 75   41763.5    239.4   0.000000000   0.00000   0.00001   0.00000   0.00000
 4 76   41766.5    239.4   0.000000000   0.00000   0.00000   0.00000   0.00000
 4 77   41766.5    239.4   0.000000000   0.00000   0.00000   0.00000   0.00000
 4 78   42053.6    237.8   0.000000000   0.00000   0.00000   0.00000   0.00000
 4 79   42053.6    237.8   0.000000000   0.00000   0.00000   0.00000   0.00000
 4 80   42056.1    237.8   0.000000000   0.00000   0.00000   0.00000   0.00000
 4 81   42056.1    237.8   0.000000000   0.00000   0.00000   0.00000   0.00000
 4 82   42485.8    235.4   0.000000000   0.00000   0.00000   0.00001   0.00001
 4 83   42485.8    235.4   0.000000000   0.00000   0.00000   0.00000   0.00000
 4 84   42487.5    235.4   0.000000000   0.00000   0.00000   0.00001   0.00000
 4 85   42487.5    235.4   0.000000000   0.00000   0.00000   0.00001   0.00000
 4 86   42643.5    234.5   0.000000000   0.00000   0.00002   0.00001   0.00001
 4 87   42643.5    234.5   0.000000000   0.00000   0.00001   0.00000   0.00001
 4 88   42649.6    234.5   0.000000000   0.00000   0.00001   0.00000   0.00001
 4 89   42649.6    234.5   0.000000000   0.00000   0.00001   0.00001   0.00000
 4 90   42658.4    234.4   0.000000000   0.00000   0.00001   0.00000   0.00001
 4 91   42658.4    234.4   0.000000000   0.00000   0.00000   0.00000   0.00000
 4 92   42667.8    234.4   0.000000000   0.00000   0.00001   0.00001   0.00001
 4 93   42667.8    234.4   0.000000000   0.00000   0.00002   0.00001   0.00001
 4 94   42736.0    234.0   0.000000000   0.00000   0.00000   0.00000   0.00000
 4 95   42736.0    234.0   0.000000000   0.00000   0.00000   0.00000   0.00000
 4 96   42743.9    234.0   0.000000000   0.00000   0.00001   0.00000   0.00000
 4 97   42743.9    234.0   0.000000000   0.00000   0.00000   0.00000   0.00000
 4 98   42837.8    233.4   0.000000000   0.00000   0.00000   0.00000   0.00000
 4 99   42837.8    233.4   0.000000000   0.00000   0.00000   0.00001   0.00001
 4 100   42842.1    233.4   0.000000000   0.00000   0.00000   0.00003   0.00001
 4 101   42842.1    233.4   0.000000000   0.00000   0.00000   0.00003   0.00001
 5  6   25699.9    389.1   0.000000000   0.00000   0.00025   0.00013   0.00021
 5  7   25699.9    389.1   0.000000000   0.00000   0.00030   0.00015   0.00016
 5  8   25702.8    389.1   0.000000000   0.00000   0.00009   0.00004   0.00006
 5  9   25702.8    389.1   0.000000000   0.00000   0.00005   0.00002   0.00002
 5 10   25816.1    387.4   0.000000000   0.00000   0.00021   0.00010   0.00022
 5 11   25816.1    387.4   0.000000000   0.00000   0.00024   0.00012   0.00012
 5 12   25817.6    387.3   0.000000001   0.00000   0.00055   0.00027   0.00035
 5 13   25817.6    387.3   0.000000000   0.00000   0.00020   0.00010   0.00028
 5 14   26453.2    378.0   0.000000000   0.00000   0.00009   0.00017   0.00001
 5 15   26453.2    378.0   0.000000000   0.00000   0.00010   0.00018   0.00010
 5 16   26455.4    378.0   0.000000000   0.00000   0.00001   0.00002   0.00003
 5 17   26455.4    378.0   0.000000000   0.00000   0.00003   0.00009   0.00003
 5 18   26476.3    377.7   0.000000000   0.00000   0.00013   0.00004   0.00006
 5 19   26476.3    377.7   0.000000000   0.00000   0.00013   0.00003   0.00008
 5 20   26479.3    377.7   0.000000001   0.00000   0.00050   0.00015   0.00030
 5 21   26479.3    377.7   0.000000000   0.00000   0.00038   0.00012   0.00018
 5 22   26543.8    376.7   0.000000000   0.00000   0.00018   0.00015   0.00007
 5 23   26543.8    376.7   0.000000000   0.00000   0.00010   0.00002   0.00002
 5 24   26545.7    376.7   0.000000000   0.00000   0.00010   0.00008   0.00009
 5 25   26545.7    376.7   0.000000000   0.00000   0.00008   0.00011   0.00004
 5 26   26552.0    376.6   0.000000000   0.00000   0.00012   0.00014   0.00008
 5 27   26552.0    376.6   0.000000001   0.00000   0.00038   0.00049   0.00032
 5 28   26553.7    376.6   0.000000000   0.00000   0.00009   0.00013   0.00012
 5 29   26553.7    376.6   0.000000001   0.00000   0.00034   0.00045   0.00027
 5 30   26563.2    376.5   0.000000000   0.00000   0.00022   0.00033   0.00024
 5 31   26563.2    376.5   0.000000001   0.00000   0.00036   0.00052   0.00031
 5 32   26566.6    376.4   0.000000001   0.00000   0.00040   0.00055   0.00037
 5 33   26566.6    376.4   0.000000001   0.00000   0.00031   0.00043   0.00025
 5 34   26635.1    375.4   0.000000000   0.00000   0.00023   0.00006   0.00017
 5 35   26635.1    375.4   0.000000001   0.00000   0.00047   0.00010   0.00024
 5 36   26638.6    375.4   0.000000000   0.00000   0.00013   0.00002   0.00005
 5 37   26638.6    375.4   0.000000000   0.00000   0.00010   0.00003   0.00008
 5 38   26646.9    375.3   0.000000000   0.00000   0.00006   0.00004   0.00001
 5 39   26646.9    375.3   0.000000000   0.00000   0.00009   0.00007   0.00009
 5 40   26651.3    375.2   0.000000000   0.00000   0.00035   0.00012   0.00018
 5 41   26651.3    375.2   0.000000000   0.00000   0.00032   0.00012   0.00033
 5 42   29173.6    342.8   0.000000000   0.00000   0.00004   0.00007   0.00004
 5 43   29173.6    342.8   0.000000000   0.00000   0.00005   0.00010   0.00006
 5 44   29190.1    342.6   0.000000000   0.00000   0.00005   0.00003   0.00003
 5 45   29190.1    342.6   0.000000000   0.00000   0.00004   0.00003   0.00003
 5 46   29702.3    336.7   0.000000000   0.00000   0.00001   0.00006   0.00003
 5 47   29702.3    336.7   0.000000000   0.00000   0.00002   0.00001   0.00002
 5 48   29713.7    336.5   0.000000000   0.00000   0.00006   0.00002   0.00004
 5 49   29713.7    336.5   0.000000000   0.00000   0.00007   0.00003   0.00004
 5 50   29761.5    336.0   0.000000000   0.00000   0.00005   0.00001   0.00005
 5 51   29761.5    336.0   0.000000000   0.00000   0.00005   0.00001   0.00005
 5 52   29794.8    335.6   0.000000000   0.00000   0.00009   0.00005   0.00010
 5 53   29794.8    335.6   0.000000000   0.00000   0.00013   0.00007   0.00006
 5 54   31520.2    317.3   0.000000001   0.00000   0.00030   0.00059   0.00026
 5 55   31520.2    317.3   0.000000002   0.00000   0.00031   0.00062   0.00036
 5 56   31548.9    317.0   0.000000000   0.00000   0.00009   0.00031   0.00014
 5 57   31548.9    317.0   0.000000000   0.00000   0.00005   0.00019   0.00007
 5 58   31581.7    316.6   0.000000000   0.00000   0.00011   0.00025   0.00014
 5 59   31581.7    316.6   0.000000000   0.00000   0.00003   0.00011   0.00009
 5 60   31597.5    316.5   0.000000000   0.00000   0.00008   0.00034   0.00017
 5 61   31597.5    316.5   0.000000000   0.00000   0.00008   0.00018   0.00008
 5 62   31628.9    316.2   0.000000000   0.00000   0.00006   0.00004   0.00004
 5 63   31628.9    316.2   0.000000000   0.00000   0.00007   0.00008   0.00004
 5 64   31659.2    315.9   0.000000000   0.00000   0.00012   0.00020   0.00013
 5 65   31659.2    315.9   0.000000000   0.00000   0.00005   0.00008   0.00002
 5 66   31699.6    315.5   0.000000000   0.00000   0.00006   0.00009   0.00004
 5 67   31699.6    315.5   0.000000000   0.00000   0.00019   0.00009   0.00012
 5 68   31724.4    315.2   0.000000000   0.00000   0.00005   0.00013   0.00008
 5 69   31724.4    315.2   0.000000000   0.00000   0.00009   0.00011   0.00004
 5 70   31753.3    314.9   0.000000000   0.00000   0.00006   0.00004   0.00002
 5 71   31753.3    314.9   0.000000000   0.00000   0.00008   0.00003   0.00008
 5 72   31772.4    314.7   0.000000000   0.00000   0.00010   0.00014   0.00019
 5 73   31772.4    314.7   0.000000000   0.00000   0.00019   0.00021   0.00012
 5 74   41763.5    239.4   0.000000000   0.00000   0.00001   0.00000   0.00000
 5 75   41763.5    239.4   0.000000000   0.00000   0.00001   0.00000   0.00000
 5 76   41766.5    239.4   0.000000000   0.00000   0.00000   0.00000   0.00000
 5 77   41766.5    239.4   0.000000000   0.00000   0.00000   0.00000   0.00000
 5 78   42053.6    237.8   0.000000000   0.00000   0.00000   0.00000   0.00000
 5 79   42053.6    237.8   0.000000000   0.00000   0.00000   0.00000   0.00000
 5 80   42056.1    237.8   0.000000000   0.00000   0.00000   0.00000   0.00000
 5 81   42056.1    237.8   0.000000000   0.00000   0.00000   0.00000   0.00000
 5 82   42485.8    235.4   0.000000000   0.00000   0.00000   0.00000   0.00000
 5 83   42485.8    235.4   0.000000000   0.00000   0.00000   0.00001   0.00001
 5 84   42487.5    235.4   0.000000000   0.00000   0.00000   0.00001   0.00000
 5 85   42487.5    235.4   0.000000000   0.00000   0.00000   0.00001   0.00000
 5 86   42643.5    234.5   0.000000000   0.00000   0.00001   0.00000   0.00001
 5 87   42643.5    234.5   0.000000000   0.00000   0.00002   0.00001   0.00001
 5 88   42649.6    234.5   0.000000000   0.00000   0.00001   0.00001   0.00000
 5 89   42649.6    234.5   0.000000000   0.00000   0.00001   0.00000   0.00001
 5 90   42658.4    234.4   0.000000000   0.00000   0.00000   0.00000   0.00000
 5 91   42658.4    234.4   0.000000000   0.00000   0.00001   0.00000   0.00001
 5 92   42667.8    234.4   0.000000000   0.00000   0.00002   0.00001   0.00001
 5 93   42667.8    234.4   0.000000000   0.00000   0.00001   0.00001   0.00001
 5 94   42736.0    234.0   0.000000000   0.00000   0.00000   0.00000   0.00000
 5 95   42736.0    234.0   0.000000000   0.00000   0.00000   0.00000   0.00000
 5 96   42743.9    234.0   0.000000000   0.00000   0.00000   0.00000   0.00000
 5 97   42743.9    234.0   0.000000000   0.00000   0.00001   0.00000   0.00000
 5 98   42837.8    233.4   0.000000000   0.00000   0.00000   0.00001   0.00001
 5 99   42837.8    233.4   0.000000000   0.00000   0.00000   0.00000   0.00000
 5 100   42842.1    233.4   0.000000000   0.00000   0.00000   0.00003   0.00001
 5 101   42842.1    233.4   0.000000000   0.00000   0.00000   0.00003   0.00001

------------------------------------------------------------------------------
                           SOC CORRECTED DIPOLE MOMENTS
------------------------------------------------------------------------------
      TX        TY        TZ           |T|
   (Debye)   (Debye)   (Debye)      (Debye)
------------------------------------------------------------------------------
 -14.71902  -8.11569 -30.71908     35.01680

--------------
CASSCF TIMINGS
--------------

Total time                       ...    12956.6 sec
Sum of individual times          ...    12973.2 sec (100.1%)

Calculation of AO operators
   F(Core) operator              ...       96.1 sec (  0.7%)
   G(Act) operator               ...       85.3 sec (  0.7%)
   J(AO) operators               ...        0.0 sec (  0.0%)
Calculation of MO transformed quantities
   J(MO) operators               ...       12.1 sec (  0.1%)
   (pq|rs) integrals             ...        0.0 sec (  0.0%)
   AO->MO one electron integrals ...        0.3 sec (  0.0%)
Configuration interaction steps
   CI-setup phase                ...        0.0 sec (  0.0%)
   CI-solution phase             ...        0.0 sec (  0.0%)
   Generation of densities       ...        0.0 sec (  0.0%)
Orbital improvement steps
   Orbital gradient              ...        0.0 sec (  0.0%)
PT2 
   NEVPT2 time                   ...    12707.8 sec ( 98.1%)
Properties                       ...       36.8 sec (  0.3%)
   SOC integral calculation      ...       34.6 sec (  0.3%)
   SSC RMEs (incl. integrals)    ...        0.0 sec (  0.0%)
   SOC RMEs                      ...        0.0 sec (  0.0%)

Maximum memory used throughout the entire CASSCF-calculation: 2367.6 MB

-------------------------   --------------------
FINAL SINGLE POINT ENERGY     -3314.822559854742
-------------------------   --------------------


                            ***************************************
                            *     ORCA property calculations      *
                            ***************************************

                                    ---------------------
                                    Active property flags
                                    ---------------------
   (+) Dipole Moment


------------------------------------------------------------------------------
                       ORCA ELECTRIC PROPERTIES CALCULATION
------------------------------------------------------------------------------

Dipole Moment Calculation                       ... on
Quadrupole Moment Calculation                   ... off
Polarizability Calculation                      ... off
GBWName                                         ... nevpt2.gbw
Electron density                                ... nevpt2.scfp
The origin for moment calculation is the CENTER OF MASS  = (13.263489, 13.915959 14.159693)

-------------
DIPOLE MOMENT
-------------
                                X             Y             Z
Electronic contribution:      5.82785       3.21479      12.16728
Nuclear contribution   :     -5.79079      -3.19290     -12.08557
                        -----------------------------------------
Total Dipole Moment    :      0.03707       0.02189       0.08170
                        -----------------------------------------
Magnitude (a.u.)       :      0.09235
Magnitude (Debye)      :      0.23474



--------------------
Rotational spectrum 
--------------------
 
Rotational constants in cm-1:     0.000898     0.000834     0.000783 
Rotational constants in MHz :    26.919457    25.009302    23.465459 

 Dipole components along the rotational axes: 
x,y,z [a.u.] :    -0.000471     0.092333     0.001771 
x,y,z [Debye]:    -0.001198     0.234691     0.004503 

 

Timings for individual modules:

Sum of individual times         ...    13003.496 sec (= 216.725 min)
GTO integral calculation        ...       21.976 sec (=   0.366 min)   0.2 %
SCF iterations                  ...       19.203 sec (=   0.320 min)   0.1 %
CASSCF iterations               ...    12962.318 sec (= 216.039 min)  99.7 %
                             ****ORCA TERMINATED NORMALLY****
TOTAL RUN TIME: 0 days 3 hours 36 minutes 47 seconds 95 msec
