
                                 *****************
                                 * O   R   C   A *
                                 *****************

                                            #,                                       
                                            ###                                      
                                            ####                                     
                                            #####                                    
                                            ######                                   
                                           ########,                                 
                                     ,,################,,,,,                         
                               ,,#################################,,                 
                          ,,##########################################,,             
                       ,#########################################, ''#####,          
                    ,#############################################,,   '####,        
                  ,##################################################,,,,####,       
                ,###########''''           ''''###############################       
              ,#####''   ,,,,##########,,,,          '''####'''          '####       
            ,##' ,,,,###########################,,,                        '##       
           ' ,,###''''                  '''############,,,                           
         ,,##''                                '''############,,,,        ,,,,,,###''
      ,#''                                            '''#######################'''  
     '                                                          ''''####''''         
             ,#######,   #######,   ,#######,      ##                                
            ,#'     '#,  ##    ##  ,#'     '#,    #''#        ######   ,####,        
            ##       ##  ##   ,#'  ##            #'  '#       #        #'  '#        
            ##       ##  #######   ##           ,######,      #####,   #    #        
            '#,     ,#'  ##    ##  '#,     ,#' ,#      #,         ##   #,  ,#        
             '#######'   ##     ##  '#######'  #'      '#     #####' # '####'        



                  #######################################################
                  #                        -***-                        #
                  #          Department of theory and spectroscopy      #
                  #    Directorship and core code : Frank Neese         #
                  #        Max Planck Institute fuer Kohlenforschung    #
                  #                Kaiser Wilhelm Platz 1               #
                  #                 D-45470 Muelheim/Ruhr               #
                  #                      Germany                        #
                  #                                                     #
                  #                  All rights reserved                #
                  #                        -***-                        #
                  #######################################################


                         Program Version 5.0.3 -  RELEASE  -


 With contributions from (in alphabetic order):
   Daniel Aravena         : Magnetic Suceptibility
   Michael Atanasov       : Ab Initio Ligand Field Theory (pilot matlab implementation)
   Alexander A. Auer      : GIAO ZORA, VPT2 properties, NMR spectrum
   Ute Becker             : Parallelization
   Giovanni Bistoni       : ED, misc. LED, open-shell LED, HFLD
   Martin Brehm           : Molecular dynamics
   Dmytro Bykov           : SCF Hessian
   Vijay G. Chilkuri      : MRCI spin determinant printing, contributions to CSF-ICE
   Dipayan Datta          : RHF DLPNO-CCSD density
   Achintya Kumar Dutta   : EOM-CC, STEOM-CC
   Dmitry Ganyushin       : Spin-Orbit,Spin-Spin,Magnetic field MRCI
   Miquel Garcia          : C-PCM and meta-GGA Hessian, CC/C-PCM, Gaussian charge scheme
   Yang Guo               : DLPNO-NEVPT2, F12-NEVPT2, CIM, IAO-localization
   Andreas Hansen         : Spin unrestricted coupled pair/coupled cluster methods
   Benjamin Helmich-Paris : MC-RPA, TRAH-SCF, COSX integrals
   Lee Huntington         : MR-EOM, pCC
   Robert Izsak           : Overlap fitted RIJCOSX, COSX-SCS-MP3, EOM
   Marcus Kettner         : VPT2
   Christian Kollmar      : KDIIS, OOCD, Brueckner-CCSD(T), CCSD density, CASPT2, CASPT2-K
   Simone Kossmann        : Meta GGA functionals, TD-DFT gradient, OOMP2, MP2 Hessian
   Martin Krupicka        : Initial AUTO-CI
   Lucas Lang             : DCDCAS
   Marvin Lechner         : AUTO-CI (C++ implementation), FIC-MRCC
   Dagmar Lenk            : GEPOL surface, SMD
   Dimitrios Liakos       : Extrapolation schemes; Compound Job, initial MDCI parallelization
   Dimitrios Manganas     : Further ROCIS development; embedding schemes
   Dimitrios Pantazis     : SARC Basis sets
   Anastasios Papadopoulos: AUTO-CI, single reference methods and gradients
   Taras Petrenko         : DFT Hessian,TD-DFT gradient, ASA, ECA, R-Raman, ABS, FL, XAS/XES, NRVS
   Peter Pinski           : DLPNO-MP2, DLPNO-MP2 Gradient
   Christoph Reimann      : Effective Core Potentials
   Marius Retegan         : Local ZFS, SOC
   Christoph Riplinger    : Optimizer, TS searches, QM/MM, DLPNO-CCSD(T), (RO)-DLPNO pert. Triples
   Tobias Risthaus        : Range-separated hybrids, TD-DFT gradient, RPA, STAB
   Michael Roemelt        : Original ROCIS implementation
   Masaaki Saitow         : Open-shell DLPNO-CCSD energy and density
   Barbara Sandhoefer     : DKH picture change effects
   Avijit Sen             : IP-ROCIS
   Kantharuban Sivalingam : CASSCF convergence, NEVPT2, FIC-MRCI
   Bernardo de Souza      : ESD, SOC TD-DFT
   Georgi Stoychev        : AutoAux, RI-MP2 NMR, DLPNO-MP2 response
   Willem Van den Heuvel  : Paramagnetic NMR
   Boris Wezisla          : Elementary symmetry handling
   Frank Wennmohs         : Technical directorship


 We gratefully acknowledge several colleagues who have allowed us to
 interface, adapt or use parts of their codes:
   Stefan Grimme, W. Hujo, H. Kruse, P. Pracht,  : VdW corrections, initial TS optimization,
                  C. Bannwarth, S. Ehlert          DFT functionals, gCP, sTDA/sTD-DF
   Ed Valeev, F. Pavosevic, A. Kumar             : LibInt (2-el integral package), F12 methods
   Garnet Chan, S. Sharma, J. Yang, R. Olivares  : DMRG
   Ulf Ekstrom                                   : XCFun DFT Library
   Mihaly Kallay                                 : mrcc  (arbitrary order and MRCC methods)
   Jiri Pittner, Ondrej Demel                    : Mk-CCSD
   Frank Weinhold                                : gennbo (NPA and NBO analysis)
   Christopher J. Cramer and Donald G. Truhlar   : smd solvation model
   Lars Goerigk                                  : TD-DFT with DH, B97 family of functionals
   V. Asgeirsson, H. Jonsson                     : NEB implementation
   FAccTs GmbH                                   : IRC, NEB, NEB-TS, DLPNO-Multilevel, CI-OPT
                                                   MM, QMMM, 2- and 3-layer-ONIOM, Crystal-QMMM,
                                                   LR-CPCM, SF, NACMEs, symmetry and pop. for TD-DFT,
                                                   nearIR, NL-DFT gradient (VV10), updates on ESD,
                                                   ML-optimized integration grids
   S Lehtola, MJT Oliveira, MAL Marques          : LibXC Library
   Liviu Ungur et al                             : ANISO software


 Your calculation uses the libint2 library for the computation of 2-el integrals
 For citations please refer to: http://libint.valeyev.net

 Your ORCA version has been built with support for libXC version: 5.1.0
 For citations please refer to: https://tddft.org/programs/libxc/

 This ORCA versions uses:
   CBLAS   interface :  Fast vector & matrix operations
   LAPACKE interface :  Fast linear algebra routines
   SCALAPACK package :  Parallel linear algebra routines
   Shared memory     :  Shared parallel matrices
   BLAS/LAPACK       :  OpenBLAS 0.3.15  USE64BITINT DYNAMIC_ARCH NO_AFFINITY Haswell SINGLE_THREADED
        Core in use  :  Haswell
   Copyright (c) 2011-2014, The OpenBLAS Project




***************************************
The coordinates will be read from file: 0.xyz
***************************************


================================================================================

cite the ECPs for Au [Def2-ECP] as follows:
Ce-Yb(ecp-28): M. Dolg, H. Stoll, H.Preuss, J. Chem. Phys., 1989, 90, 1730-1734.
Y-Cd(ecp-28), Hf-Hg(ecp-46): D. Andrae,U. Haeussermann, M. Dolg, H. Stoll, H. Preuss, Theor. Chim. Acta, 1990, 77, 123-141.
In-Sb(ecp-28), Tl-Bi(ecp-46): B. Metz, H. Stoll, M. Dolg, J. Chem. Phys., 2000, 113, 2563-2569.
Te-Xe(ecp-28), Po-Rn(ecp-46): K. A. Peterson, D. Figgen, E. Goll, H. Stoll, M. Dolg, J. Chem. Phys., 2003, 119, 11113-11123.
Rb(ecp-28), Cs(ecp-46): T. Leininger, A. Nicklass, W. Kuechle, H. Stoll, M. Dolg, A. Bergner, Chem. Phys. Lett., 1996, 255, 274-280.
Sr(ecp-28), Ba(ecp-46): M. Kaupp, P. V. Schleyer, H. Stoll and H. Preuss, J. Chem. Phys., 1991, 94, 1360-1366.
La(ecp-46): M. Dolg, H. Stoll, A. Savin, H. Preuss, Theor. Chim. Acta, 1989, 75, 173-194.
Lu(ecp-28): X. Cao, M. Dolg, J. Chem. Phys., 2001, 115, 7348-7355.

ECP parameters for Au [Def2-ECP] have been obtained from:
TURBOMOLE (7.0.2)

----- Orbital basis set information -----
Your calculation utilizes the basis: def2-TZVP
   F. Weigend and R. Ahlrichs, Phys. Chem. Chem. Phys. 7, 3297 (2005).

----- AuxJ basis set information -----
Your calculation utilizes the auxiliary basis: def2/J
   F. Weigend, Phys. Chem. Chem. Phys. 8, 1057 (2006).

================================================================================
                                        WARNINGS
                       Please study these warnings very carefully!
================================================================================


WARNING: your system is open-shell and RHF/RKS was chosen
  ===> : WILL SWITCH to UHF/UKS


WARNING: Geometry Optimization
  ===> : Switching off AutoStart
         For restart on a previous wavefunction, please use MOREAD

INFO   : the flag for use of the SHARK integral package has been found!

================================================================================
                                       INPUT FILE
================================================================================
NAME = pbe.inp
|  1> %pal nprocs 1 end 
|  2> 
|  3> !PBE def2-TZVP OPT UNO
|  4> !SLOWCONV KDIIS 
|  5> 
|  6> %geom maxiter 300 end
|  7> 
|  8> *xyzfile 0 5 0.xyz                           ****END OF INPUT****
================================================================================

                       *****************************
                       * Geometry Optimization Run *
                       *****************************

Geometry optimization settings:
Update method            Update   .... BFGS
Choice of coordinates    CoordSys .... Z-matrix Internals
Initial Hessian          InHess   .... Almoef's Model

Convergence Tolerances:
Energy Change            TolE     ....  5.0000e-06 Eh
Max. Gradient            TolMAXG  ....  3.0000e-04 Eh/bohr
RMS Gradient             TolRMSG  ....  1.0000e-04 Eh/bohr
Max. Displacement        TolMAXD  ....  4.0000e-03 bohr
RMS Displacement         TolRMSD  ....  2.0000e-03 bohr
Strict Convergence                ....  False
------------------------------------------------------------------------------
                        ORCA OPTIMIZATION COORDINATE SETUP
------------------------------------------------------------------------------

The optimization will be done in new redundant internal coordinates
Making redundant internal coordinates   ...  (new redundants) done
Evaluating the initial hessian          ...  (Almloef) done
Evaluating the coordinates              ...  done
Calculating the B-matrix                .... done
Calculating the G-matrix                .... done
Diagonalizing the G-matrix              .... done
The first mode is                       ....  390
The number of degrees of freedom        ....   45

    -----------------------------------------------------------------
                    Redundant Internal Coordinates


    -----------------------------------------------------------------
         Definition                    Initial Value    Approx d2E/dq
    -----------------------------------------------------------------
      1. B(Au  2,Au  0)                  2.8230         0.006261   
      2. B(Au  2,Au  1)                  2.8459         0.005756   
      3. B(Au  3,Au  1)                  2.8458         0.005759   
      4. B(Au  4,Au  3)                  2.8454         0.005767   
      5. B(Au  4,Au  1)                  2.8456         0.005762   
      6. B(Au  4,Au  0)                  2.8230         0.006260   
      7. B(Au  4,Au  2)                  2.8454         0.005766   
      8. B(Au  5,Au  2)                  2.8231         0.006259   
      9. B(Au  6,Au  1)                  2.8460         0.005753   
     10. B(Au  6,Au  2)                  2.8453         0.005769   
     11. B(Au  6,Au  5)                  2.8233         0.006255   
     12. B(Au  7,Au  6)                  2.8451         0.005774   
     13. B(Au  7,Au  3)                  2.8452         0.005771   
     14. B(Au  7,Au  1)                  2.8461         0.005753   
     15. B(Au 10,Au  4)                  2.8232         0.006257   
     16. B(Au 10,Au  3)                  2.8234         0.006252   
     17. B(Au 13,Au  7)                  2.8232         0.006257   
     18. B(Au 13,Au  3)                  2.8231         0.006259   
     19. B(Au 15,Au  6)                  2.8232         0.006256   
     20. B(Au 15,Au  7)                  2.8232         0.006257   
     21. B(Cr 16,Au 12)                  2.6282         0.093117   
     22. B(Cr 16,Au 11)                  2.6280         0.093170   
     23. B(Cr 16,Au  8)                  2.6279         0.093212   
     24. B(Cr 16,Au 15)                  2.8246         0.045247   
     25. B(Cr 16,Au 10)                  2.8245         0.045264   
     26. B(Cr 16,Au 14)                  2.6282         0.093123   
     27. B(Cr 16,Au 13)                  2.8246         0.045245   
     28. B(Cr 16,Au  9)                  2.6280         0.093177   
     29. B(Cr 16,Au  5)                  2.8246         0.045252   
     30. B(Cr 16,Au  0)                  2.8246         0.045254   
     31. A(Au  4,Au  0,Cr 16)          103.7455         0.171990   
     32. A(Au  2,Au  0,Au  4)           60.5255         0.136292   
     33. A(Au  2,Au  0,Cr 16)          103.7456         0.171990   
     34. A(Au  3,Au  1,Au  4)           59.9932         0.134543   
     35. A(Au  3,Au  1,Au  7)           59.9829         0.134527   
     36. A(Au  2,Au  1,Au  7)          107.9596         0.134521   
     37. A(Au  3,Au  1,Au  6)          107.9602         0.134527   
     38. A(Au  4,Au  1,Au  6)          107.9690         0.134532   
     39. A(Au  2,Au  1,Au  6)           59.9841         0.134521   
     40. A(Au  4,Au  1,Au  7)          107.9681         0.134532   
     41. A(Au  6,Au  1,Au  7)           59.9768         0.134516   
     42. A(Au  2,Au  1,Au  4)           59.9921         0.134537   
     43. A(Au  2,Au  1,Au  3)          107.9741         0.134532   
     44. A(Au  5,Au  2,Au  6)           59.7441         0.135423   
     45. A(Au  1,Au  2,Au  6)           60.0103         0.134549   
     46. A(Au  1,Au  2,Au  5)          108.6651         0.135399   
     47. A(Au  0,Au  2,Au  1)          108.6534         0.135401   
     48. A(Au  0,Au  2,Au  6)          109.4476         0.135424   
     49. A(Au  4,Au  2,Au  6)          107.9950         0.134568   
     50. A(Au  0,Au  2,Au  4)           59.7374         0.135420   
     51. A(Au  4,Au  2,Au  5)          109.4457         0.135418   
     52. A(Au  0,Au  2,Au  5)           62.2910         0.136290   
     53. A(Au  1,Au  2,Au  4)           59.9987         0.134545   
     54. A(Au  4,Au  3,Au  7)          107.9988         0.134574   
     55. A(Au 10,Au  3,Au 13)           62.2888         0.136274   
     56. A(Au  1,Au  3,Au 10)          108.6546         0.135392   
     57. A(Au  1,Au  3,Au  4)           60.0009         0.134552   
     58. A(Au  1,Au  3,Au  7)           60.0138         0.134560   
     59. A(Au  7,Au  3,Au 13)           59.7429         0.135426   
     60. A(Au  7,Au  3,Au 10)          109.4462         0.135415   
     61. A(Au  4,Au  3,Au 13)          109.4444         0.135418   
     62. A(Au  4,Au  3,Au 10)           59.7367         0.135406   
     63. A(Au  1,Au  3,Au 13)          108.6667         0.135404   
     64. A(Au  1,Au  4,Au 10)          108.6651         0.135407   
     65. A(Au  2,Au  4,Au 10)          109.4446         0.135414   
     66. A(Au  2,Au  4,Au  3)          107.9978         0.134564   
     67. A(Au  1,Au  4,Au  3)           60.0059         0.134557   
     68. A(Au  0,Au  4,Au  2)           59.7372         0.135419   
     69. A(Au  0,Au  4,Au  1)          108.6616         0.135412   
     70. A(Au  1,Au  4,Au  2)           60.0092         0.134556   
     71. A(Au  0,Au  4,Au  3)          109.4470         0.135421   
     72. A(Au  0,Au  4,Au 10)           62.2885         0.136286   
     73. A(Au  3,Au  4,Au 10)           59.7446         0.135415   
     74. A(Au  2,Au  5,Cr 16)          103.7441         0.171986   
     75. A(Au  2,Au  5,Au  6)           60.5191         0.136280   
     76. A(Au  6,Au  5,Cr 16)          103.7409         0.171972   
     77. A(Au  2,Au  6,Au  7)          108.0044         0.134582   
     78. A(Au  1,Au  6,Au 15)          108.6633         0.135388   
     79. A(Au  1,Au  6,Au  5)          108.6555         0.135386   
     80. A(Au  1,Au  6,Au  2)           60.0056         0.134544   
     81. A(Au  7,Au  6,Au 15)           59.7432         0.135426   
     82. A(Au  5,Au  6,Au 15)           62.2881         0.136274   
     83. A(Au  2,Au  6,Au 15)          109.4455         0.135417   
     84. A(Au  5,Au  6,Au  7)          109.4481         0.135424   
     85. A(Au  1,Au  6,Au  7)           60.0118         0.134554   
     86. A(Au  2,Au  6,Au  5)           59.7369         0.135415   
     87. A(Au  1,Au  7,Au  3)           60.0034         0.134549   
     88. A(Au  6,Au  7,Au 15)           59.7444         0.135427   
     89. A(Au  6,Au  7,Au 13)          109.4492         0.135428   
     90. A(Au  3,Au  7,Au  6)          108.0040         0.134587   
     91. A(Au  1,Au  7,Au  6)           60.0115         0.134553   
     92. A(Au 13,Au  7,Au 15)           62.2879         0.136279   
     93. A(Au  3,Au  7,Au 15)          109.4483         0.135423   
     94. A(Au  1,Au  7,Au 15)          108.6641         0.135389   
     95. A(Au  3,Au  7,Au 13)           59.7403         0.135423   
     96. A(Au  1,Au  7,Au 13)          108.6562         0.135389   
     97. A(Au  3,Au 10,Au  4)           60.5187         0.136272   
     98. A(Au  3,Au 10,Cr 16)          103.7398         0.171968   
     99. A(Au  4,Au 10,Cr 16)          103.7433         0.171984   
    100. A(Au  3,Au 13,Cr 16)          103.7445         0.171981   
    101. A(Au  3,Au 13,Au  7)           60.5168         0.136283   
    102. A(Au  7,Au 13,Cr 16)          103.7419         0.171976   
    103. A(Au  6,Au 15,Au  7)           60.5124         0.136277   
    104. A(Au  6,Au 15,Cr 16)          103.7414         0.171973   
    105. A(Au  7,Au 15,Cr 16)          103.7419         0.171976   
    106. A(Au 12,Cr 16,Au 14)           65.0435         0.290895   
    107. A(Au 11,Cr 16,Au 14)          120.9011         0.290921   
    108. A(Au  5,Cr 16,Au 12)          116.1591         0.260470   
    109. A(Au  9,Cr 16,Au 14)           65.0494         0.290925   
    110. A(Au  8,Cr 16,Au 14)          120.9076         0.290942   
    111. A(Au 10,Cr 16,Au 11)           62.7127         0.260502   
    112. A(Au  0,Cr 16,Au 10)           62.2528         0.234642   
    113. A(Au  5,Cr 16,Au 14)           62.7106         0.260472   
    114. A(Au  0,Cr 16,Au 14)          116.1666         0.260474   
    115. A(Au  9,Cr 16,Au 11)          120.9072         0.290948   
    116. A(Au 12,Cr 16,Au 13)           62.7096         0.260464   
    117. A(Au 11,Cr 16,Au 13)           62.7101         0.260486   
    118. A(Au  8,Cr 16,Au 11)           65.0493         0.290966   
    119. A(Au  8,Cr 16,Au  9)           65.0518         0.290969   
    120. A(Au  5,Cr 16,Au  8)          116.1664         0.260510   
    121. A(Au 10,Cr 16,Au 13)           62.2562         0.234635   
    122. A(Au  8,Cr 16,Au 13)          116.1639         0.260504   
    123. A(Au  0,Cr 16,Au 11)          116.1679         0.260494   
    124. A(Au  5,Cr 16,Au 13)          113.5270         0.234627   
    125. A(Au 14,Cr 16,Au 15)           62.7057         0.260468   
    126. A(Au  0,Cr 16,Au 13)          113.5259         0.234628   
    127. A(Au  9,Cr 16,Au 10)          116.1655         0.260505   
    128. A(Au  5,Cr 16,Au  9)           62.7103         0.260495   
    129. A(Au 13,Cr 16,Au 15)           62.2525         0.234623   
    130. A(Au 12,Cr 16,Au 15)           62.7050         0.260466   
    131. A(Au 11,Cr 16,Au 12)           65.0480         0.290919   
    132. A(Au 11,Cr 16,Au 15)          116.1587         0.260488   
    133. A(Au 10,Cr 16,Au 15)          113.5307         0.234637   
    134. A(Au 10,Cr 16,Au 12)          116.1651         0.260480   
    135. A(Au  8,Cr 16,Au 10)           62.7104         0.260520   
    136. A(Au  9,Cr 16,Au 15)          116.1612         0.260491   
    137. A(Au  5,Cr 16,Au 15)           62.2548         0.234628   
    138. A(Au  9,Cr 16,Au 12)          120.9018         0.290922   
    139. A(Au  0,Cr 16,Au 15)          113.5272         0.234630   
    140. A(Au 13,Cr 16,Au 14)          116.1576         0.260466   
    141. A(Au  8,Cr 16,Au 12)          120.9050         0.290939   
    142. A(Au  5,Cr 16,Au 10)          113.5294         0.234640   
    143. A(Au  0,Cr 16,Au  9)           62.7162         0.260497   
    144. A(Au  0,Cr 16,Au  8)           62.7168         0.260512   
    145. A(Au  0,Cr 16,Au  5)           62.2533         0.234634   
    146. D(Au  0,Au  2,Au  1,Au  7)    -64.8031         0.001501   
    147. D(Au  0,Au  2,Au  1,Au  3)     -1.3998         0.001501   
    148. D(Au  5,Au  2,Au  0,Au  4)   -137.8863         0.001501   
    149. D(Au  5,Au  2,Au  1,Au  3)     64.7736         0.001501   
    150. D(Au  4,Au  2,Au  1,Au  6)   -138.1666         0.001501   
    151. D(Au  4,Au  2,Au  0,Cr 16)     98.2057         0.001501   
    152. D(Au  4,Au  2,Au  1,Au  3)    -37.3910         0.001501   
    153. D(Au  5,Au  2,Au  0,Cr 16)    -39.6807         0.001501   
    154. D(Au  0,Au  2,Au  1,Au  4)     35.9912         0.001501   
    155. D(Au  0,Au  2,Au  1,Au  6)   -102.1754         0.001501   
    156. D(Au  6,Au  2,Au  1,Au  3)    100.7756         0.001501   
    157. D(Au  5,Au  2,Au  1,Au  6)    -36.0020         0.001501   
    158. D(Au  6,Au  2,Au  0,Cr 16)     -1.7740         0.001501   
    159. D(Au  1,Au  2,Au  0,Cr 16)     62.1041         0.001501   
    160. D(Au  6,Au  2,Au  0,Au  4)    -99.9797         0.001501   
    161. D(Au  6,Au  2,Au  1,Au  4)    138.1666         0.001501   
    162. D(Au  5,Au  2,Au  1,Au  7)      1.3703         0.001501   
    163. D(Au  6,Au  2,Au  1,Au  7)     37.3723         0.001501   
    164. D(Au  1,Au  2,Au  0,Au  4)    -36.1016         0.001501   
    165. D(Au  4,Au  2,Au  1,Au  7)   -100.7943         0.001501   
    166. D(Au  5,Au  2,Au  1,Au  4)    102.1646         0.001501   
    167. D(Au 10,Au  3,Au  1,Au  7)    102.1740         0.001501   
    168. D(Au 10,Au  3,Au  1,Au  6)     64.8042         0.001501   
    169. D(Au  4,Au  3,Au  1,Au  6)    100.7953         0.001501   
    170. D(Au 13,Au  3,Au  1,Au  2)    -64.7722         0.001501   
    171. D(Au 10,Au  3,Au  1,Au  4)    -35.9912         0.001501   
    172. D(Au 10,Au  3,Au  1,Au  2)      1.3994         0.001501   
    173. D(Au  4,Au  3,Au  1,Au  7)    138.1651         0.001501   
    174. D(Au  4,Au  3,Au  1,Au  2)     37.3905         0.001501   
    175. D(Au  7,Au  3,Au  1,Au  2)   -100.7746         0.001501   
    176. D(Au  7,Au  3,Au  1,Au  4)   -138.1651         0.001501   
    177. D(Au  7,Au  3,Au  1,Au  6)    -37.3698         0.001501   
    178. D(Au 13,Au  3,Au  1,Au  6)     -1.3674         0.001501   
    179. D(Au 13,Au  3,Au  1,Au  7)     36.0025         0.001501   
    180. D(Au 13,Au  3,Au  1,Au  4)   -102.1627         0.001501   
    181. D(Au 10,Au  4,Au  2,Au  1)    100.8428         0.001501   
    182. D(Au  3,Au  4,Au  1,Au  6)   -100.7803         0.001501   
    183. D(Au  0,Au  4,Au  2,Au  6)    102.4609         0.001501   
    184. D(Au 10,Au  4,Au  2,Au  0)    -39.0185         0.001501   
    185. D(Au  3,Au  4,Au  1,Au  7)    -37.3828         0.001501   
    186. D(Au  2,Au  4,Au  1,Au  7)    100.7798         0.001501   
    187. D(Au 10,Au  4,Au  2,Au  5)      0.0031         0.001501   
    188. D(Au 10,Au  4,Au  1,Au  7)     -1.3858         0.001501   
    189. D(Au 10,Au  4,Au  1,Au  6)    -64.7832         0.001501   
    190. D(Au  0,Au  4,Au  2,Au  5)     39.0216         0.001501   
    191. D(Au 10,Au  4,Au  1,Au  3)     35.9971         0.001501   
    192. D(Au 10,Au  4,Au  1,Au  2)   -102.1656         0.001501   
    193. D(Au  2,Au  4,Au  1,Au  6)     37.3824         0.001501   
    194. D(Au  3,Au  4,Au  1,Au  2)   -138.1627         0.001501   
    195. D(Au  0,Au  4,Au  1,Au  7)     64.7867         0.001501   
    196. D(Au 10,Au  4,Au  2,Au  6)     63.4424         0.001501   
    197. D(Au  0,Au  4,Au  1,Au  2)    -35.9932         0.001501   
    198. D(Au  0,Au  4,Au  1,Au  3)    102.1695         0.001501   
    199. D(Au  2,Au  4,Au  1,Au  3)    138.1627         0.001501   
    200. D(Au  1,Au  4,Au  0,Au  2)     36.1081         0.001501   
    201. D(Au  0,Au  4,Au  2,Au  1)    139.8613         0.001501   
    202. D(Au  1,Au  4,Au  3,Au 10)    139.8613         0.001501   
    203. D(Au 10,Au  4,Au  3,Au  1)   -139.8613         0.001501   
    204. D(Au 10,Au  4,Au  3,Au  7)   -102.4572         0.001501   
    205. D(Au  0,Au  4,Au  1,Au  6)      1.3892         0.001501   
    206. D(Au  3,Au  4,Au  2,Au  1)     37.4025         0.001501   
    207. D(Au  2,Au  4,Au  3,Au 13)     63.4388         0.001501   
    208. D(Au 10,Au  4,Au  0,Cr 16)     39.6824         0.001501   
    209. D(Au  3,Au  4,Au  2,Au  5)    -63.4371         0.001501   
    210. D(Au  2,Au  4,Au  0,Cr 16)    -98.2059         0.001501   
    211. D(Au  2,Au  4,Au  3,Au 10)    102.4574         0.001501   
    212. D(Au  3,Au  4,Au  0,Cr 16)      1.7773         0.001501   
    213. D(Au 10,Au  4,Au  3,Au 13)    -39.0187         0.001501   
    214. D(Au  2,Au  4,Au  3,Au  1)    -37.4039         0.001501   
    215. D(Au  1,Au  4,Au  2,Au  6)    -37.4004         0.001501   
    216. D(Au  1,Au  4,Au  2,Au  0)   -139.8613         0.001501   
    217. D(Au  0,Au  4,Au  3,Au  7)    -63.4325         0.001501   
    218. D(Au  2,Au  4,Au  3,Au  7)      0.0002         0.001501   
    219. D(Au  0,Au  4,Au  3,Au  1)   -100.8366         0.001501   
    220. D(Au  1,Au  4,Au  0,Cr 16)    -62.0978         0.001501   
    221. D(Au  1,Au  4,Au  2,Au  5)   -100.8396         0.001501   
    222. D(Au  0,Au  4,Au  3,Au 10)     39.0247         0.001501   
    223. D(Au  3,Au  4,Au  2,Au  6)      0.0021         0.001501   
    224. D(Au  1,Au  4,Au  3,Au 13)    100.8427         0.001501   
    225. D(Au  0,Au  4,Au  3,Au 13)      0.0061         0.001501   
    226. D(Au  3,Au  4,Au  2,Au  0)   -102.4588         0.001501   
    227. D(Au  1,Au  4,Au  3,Au  7)     37.4041         0.001501   
    228. D(Au  3,Au  4,Au  0,Au  2)     99.9832         0.001501   
    229. D(Au 10,Au  4,Au  0,Au  2)    137.8883         0.001501   
    230. D(Au  6,Au  5,Au  2,Au  1)     36.1145         0.001501   
    231. D(Au  6,Au  5,Au  2,Au  0)    137.8802         0.001501   
    232. D(Cr 16,Au  5,Au  2,Au  1)    -62.0856         0.001501   
    233. D(Cr 16,Au  5,Au  2,Au  6)    -98.2001         0.001501   
    234. D(Cr 16,Au  5,Au  2,Au  4)      1.7823         0.001501   
    235. D(Cr 16,Au  5,Au  2,Au  0)     39.6801         0.001501   
    236. D(Au  6,Au  5,Au  2,Au  4)     99.9824         0.001501   
    237. D(Au  7,Au  6,Au  2,Au  0)     63.4288         0.001501   
    238. D(Au 15,Au  6,Au  5,Au  2)   -137.8911         0.001501   
    239. D(Au  7,Au  6,Au  2,Au  4)     -0.0036         0.001501   
    240. D(Au  2,Au  6,Au  5,Cr 16)     98.2055         0.001501   
    241. D(Au  1,Au  6,Au  2,Au  4)     37.3953         0.001501   
    242. D(Au 15,Au  6,Au  2,Au  1)   -100.8393         0.001501   
    243. D(Au  1,Au  6,Au  2,Au  5)    139.8553         0.001501   
    244. D(Au 15,Au  6,Au  2,Au  0)     -0.0116         0.001501   
    245. D(Au  7,Au  6,Au  2,Au  1)    -37.3989         0.001501   
    246. D(Au  1,Au  6,Au  2,Au  0)    100.8277         0.001501   
    247. D(Au  7,Au  6,Au  2,Au  5)    102.4565         0.001501   
    248. D(Au  5,Au  6,Au  2,Au  1)   -139.8553         0.001501   
    249. D(Au  1,Au  6,Au  5,Cr 16)     62.0954         0.001501   
    250. D(Au  7,Au  6,Au  5,Au  2)    -99.9904         0.001501   
    251. D(Au  5,Au  6,Au  2,Au  4)   -102.4601         0.001501   
    252. D(Au  5,Au  6,Au  2,Au  0)    -39.0277         0.001501   
    253. D(Au  1,Au  6,Au  5,Au  2)    -36.1101         0.001501   
    254. D(Au 15,Au  6,Au  1,Au  7)    -36.0050         0.001501   
    255. D(Au 15,Au  6,Au  5,Cr 16)    -39.6856         0.001501   
    256. D(Au 15,Au  6,Au  1,Au  3)      1.3675         0.001501   
    257. D(Au 15,Au  6,Au  1,Au  2)    102.1668         0.001501   
    258. D(Au 15,Au  6,Au  2,Au  5)     39.0161         0.001501   
    259. D(Au 15,Au  6,Au  2,Au  4)    -63.4440         0.001501   
    260. D(Au 15,Au  6,Au  1,Au  4)     64.7810         0.001501   
    261. D(Au  7,Au  6,Au  1,Au  4)    100.7860         0.001501   
    262. D(Au  7,Au  6,Au  1,Au  3)     37.3725         0.001501   
    263. D(Au  7,Au  6,Au  1,Au  2)    138.1719         0.001501   
    264. D(Au  7,Au  6,Au  5,Cr 16)     -1.7849         0.001501   
    265. D(Au  5,Au  6,Au  1,Au  4)     -1.3893         0.001501   
    266. D(Au  5,Au  6,Au  1,Au  3)    -64.8027         0.001501   
    267. D(Au  5,Au  6,Au  1,Au  2)     35.9966         0.001501   
    268. D(Au  2,Au  6,Au  1,Au  7)   -138.1719         0.001501   
    269. D(Au  2,Au  6,Au  1,Au  4)    -37.3859         0.001501   
    270. D(Au  2,Au  6,Au  1,Au  3)   -100.7994         0.001501   
    271. D(Au  5,Au  6,Au  1,Au  7)   -102.1753         0.001501   
    272. D(Au  3,Au  7,Au  1,Au  2)    100.7994         0.001501   
    273. D(Au  1,Au  7,Au  6,Au 15)    139.8509         0.001501   
    274. D(Au  1,Au  7,Au  6,Au  2)     37.3961         0.001501   
    275. D(Au 15,Au  7,Au  6,Au  1)   -139.8509         0.001501   
    276. D(Au 15,Au  7,Au  6,Au  5)    -39.0207         0.001501   
    277. D(Au 15,Au  7,Au  6,Au  2)   -102.4548         0.001501   
    278. D(Au 13,Au  7,Au  6,Au  1)   -100.8304         0.001501   
    279. D(Au 13,Au  7,Au  6,Au 15)     39.0205         0.001501   
    280. D(Au 13,Au  7,Au  6,Au  5)     -0.0002         0.001501   
    281. D(Au  3,Au  7,Au  6,Au  1)    -37.3925         0.001501   
    282. D(Au  3,Au  7,Au  6,Au 15)    102.4585         0.001501   
    283. D(Au  3,Au  7,Au  6,Au  5)     63.4378         0.001501   
    284. D(Au  1,Au  7,Au  3,Au 13)   -139.8547         0.001501   
    285. D(Au  1,Au  7,Au  3,Au 10)   -100.8307         0.001501   
    286. D(Au  1,Au  7,Au  3,Au  4)    -37.3984         0.001501   
    287. D(Au  6,Au  7,Au  3,Au 13)   -102.4587         0.001501   
    288. D(Au  6,Au  7,Au  3,Au 10)    -63.4346         0.001501   
    289. D(Au  6,Au  7,Au  3,Au  4)     -0.0024         0.001501   
    290. D(Au 15,Au  7,Au  3,Au  1)    100.8382         0.001501   
    291. D(Au 15,Au  7,Au  3,Au 13)    -39.0165         0.001501   
    292. D(Au 15,Au  7,Au  3,Au 10)      0.0076         0.001501   
    293. D(Au 15,Au  7,Au  3,Au  4)     63.4398         0.001501   
    294. D(Au 13,Au  7,Au  3,Au  1)    139.8547         0.001501   
    295. D(Au  6,Au  7,Au  3,Au  1)     37.3960         0.001501   
    296. D(Au  6,Au  7,Au  1,Au  4)   -100.7875         0.001501   
    297. D(Au 15,Au  7,Au  1,Au  2)     -1.3698         0.001501   
    298. D(Au 15,Au  7,Au  1,Au  6)     36.0058         0.001501   
    299. D(Au  3,Au  7,Au  6,Au  2)      0.0037         0.001501   
    300. D(Au 15,Au  7,Au  1,Au  4)    -64.7818         0.001501   
    301. D(Au 15,Au  7,Au  1,Au  3)   -102.1692         0.001501   
    302. D(Au 13,Au  7,Au  3,Au  4)    102.4563         0.001501   
    303. D(Au 13,Au  7,Au  6,Au  2)    -63.4343         0.001501   
    304. D(Au  6,Au  7,Au  1,Au  3)   -138.1749         0.001501   
    305. D(Au 13,Au  7,Au  1,Au  6)    102.1761         0.001501   
    306. D(Au 13,Au  7,Au  1,Au  4)      1.3886         0.001501   
    307. D(Au 13,Au  7,Au  3,Au 10)     39.0241         0.001501   
    308. D(Au 13,Au  7,Au  1,Au  3)    -35.9988         0.001501   
    309. D(Au 13,Au  7,Au  1,Au  2)     64.8006         0.001501   
    310. D(Au  3,Au  7,Au  1,Au  6)    138.1749         0.001501   
    311. D(Au  1,Au  7,Au  6,Au  5)    100.8302         0.001501   
    312. D(Au  3,Au  7,Au  1,Au  4)     37.3874         0.001501   
    313. D(Au  6,Au  7,Au  1,Au  2)    -37.3756         0.001501   
    314. D(Au  3,Au 10,Au  4,Au  1)    -36.1074         0.001501   
    315. D(Au  3,Au 10,Au  4,Au  2)    -99.9864         0.001501   
    316. D(Au  3,Au 10,Au  4,Au  0)   -137.8821         0.001501   
    317. D(Cr 16,Au 10,Au  4,Au  1)     62.0918         0.001501   
    318. D(Cr 16,Au 10,Au  4,Au  3)     98.1992         0.001501   
    319. D(Cr 16,Au 10,Au  4,Au  2)     -1.7872         0.001501   
    320. D(Cr 16,Au 10,Au  4,Au  0)    -39.6829         0.001501   
    321. D(Au  4,Au 10,Au  3,Au  1)     36.1028         0.001501   
    322. D(Au  4,Au 10,Au  3,Au  7)     99.9846         0.001501   
    323. D(Au  4,Au 10,Au  3,Au 13)    137.8882         0.001501   
    324. D(Cr 16,Au 10,Au  3,Au  1)    -62.1024         0.001501   
    325. D(Cr 16,Au 10,Au  3,Au  7)      1.7795         0.001501   
    326. D(Cr 16,Au 10,Au  3,Au 13)     39.6830         0.001501   
    327. D(Cr 16,Au 10,Au  3,Au  4)    -98.2051         0.001501   
    328. D(Au  3,Au 13,Au  7,Au  1)     36.1099         0.001501   
    329. D(Au  3,Au 13,Au  7,Au  6)     99.9903         0.001501   
    330. D(Au  3,Au 13,Au  7,Au 15)    137.8914         0.001501   
    331. D(Cr 16,Au 13,Au  7,Au  1)    -62.0952         0.001501   
    332. D(Cr 16,Au 13,Au  7,Au  6)      1.7851         0.001501   
    333. D(Cr 16,Au 13,Au  7,Au 15)     39.6863         0.001501   
    334. D(Cr 16,Au 13,Au  7,Au  3)    -98.2051         0.001501   
    335. D(Au  7,Au 13,Au  3,Au  1)    -36.1169         0.001501   
    336. D(Au  7,Au 13,Au  3,Au 10)   -137.8828         0.001501   
    337. D(Au  7,Au 13,Au  3,Au  4)    -99.9872         0.001501   
    338. D(Cr 16,Au 13,Au  3,Au  1)     62.0838         0.001501   
    339. D(Cr 16,Au 13,Au  3,Au  7)     98.2006         0.001501   
    340. D(Cr 16,Au 13,Au  3,Au 10)    -39.6821         0.001501   
    341. D(Cr 16,Au 13,Au  3,Au  4)     -1.7866         0.001501   
    342. D(Au  6,Au 15,Au  7,Au  1)    -36.1186         0.001501   
    343. D(Au  6,Au 15,Au  7,Au 13)   -137.8873         0.001501   
    344. D(Au  6,Au 15,Au  7,Au  3)    -99.9918         0.001501   
    345. D(Cr 16,Au 15,Au  7,Au  6)     98.2007         0.001501   
    346. D(Cr 16,Au 15,Au  7,Au 13)    -39.6865         0.001501   
    347. D(Cr 16,Au 15,Au  7,Au  3)     -1.7911         0.001501   
    348. D(Au  7,Au 15,Au  6,Au  1)     36.1185         0.001501   
    349. D(Au  7,Au 15,Au  6,Au  5)    137.8868         0.001501   
    350. D(Au  7,Au 15,Au  6,Au  2)     99.9934         0.001501   
    351. D(Cr 16,Au 15,Au  7,Au  1)     62.0821         0.001501   
    352. D(Cr 16,Au 15,Au  6,Au  1)    -62.0831         0.001501   
    353. D(Cr 16,Au 15,Au  6,Au  7)    -98.2016         0.001501   
    354. D(Cr 16,Au 15,Au  6,Au  5)     39.6852         0.001501   
    355. D(Cr 16,Au 15,Au  6,Au  2)      1.7918         0.001501   
    356. D(Au 12,Cr 16,Au 10,Au  3)    -72.9905         0.001511   
    357. D(Au 12,Cr 16,Au 10,Au  4)   -135.4892         0.001511   
    358. D(Au 11,Cr 16,Au 10,Au  3)   -111.5169         0.001511   
    359. D(Au  9,Cr 16,Au 10,Au  3)    135.4971         0.001511   
    360. D(Au  9,Cr 16,Au 10,Au  4)     72.9984         0.001511   
    361. D(Au  8,Cr 16,Au 10,Au  3)    174.0266         0.001511   
    362. D(Au  5,Cr 16,Au 10,Au  3)     65.5712         0.001511   
    363. D(Au  5,Cr 16,Au 10,Au  4)      3.0725         0.001511   
    364. D(Au  0,Cr 16,Au 10,Au  3)    102.1710         0.001511   
    365. D(Au  0,Cr 16,Au 10,Au  4)     39.6723         0.001511   
    366. D(Au 15,Cr 16,Au  5,Au  6)     39.6766         0.001511   
    367. D(Au 15,Cr 16,Au  5,Au  2)    102.1759         0.001511   
    368. D(Au 14,Cr 16,Au  5,Au  6)    111.5181         0.001511   
    369. D(Au 13,Cr 16,Au  5,Au  6)      3.0718         0.001511   
    370. D(Au 13,Cr 16,Au  5,Au  2)     65.5711         0.001511   
    371. D(Au 12,Cr 16,Au  5,Au  6)     72.9942         0.001511   
    372. D(Au 10,Cr 16,Au  5,Au  6)    -65.5700         0.001511   
    373. D(Au 10,Cr 16,Au  5,Au  2)     -3.0707         0.001511   
    374. D(Au  9,Cr 16,Au  5,Au  6)   -174.0244         0.001511   
    375. D(Au  9,Cr 16,Au  5,Au  2)   -111.5251         0.001511   
    376. D(Au  8,Cr 16,Au  5,Au  6)   -135.4963         0.001511   
    377. D(Au  8,Cr 16,Au  5,Au  2)    -72.9970         0.001511   
    378. D(Au  0,Cr 16,Au  5,Au  6)   -102.1697         0.001511   
    379. D(Au 12,Cr 16,Au  5,Au  2)    135.4936         0.001511   
    380. D(Au  0,Cr 16,Au  5,Au  2)    -39.6704         0.001511   
    381. D(Au 15,Cr 16,Au  0,Au  4)     65.5718         0.001511   
    382. D(Au 15,Cr 16,Au  0,Au  2)      3.0649         0.001511   
    383. D(Au 14,Cr 16,Au  5,Au  2)    174.0174         0.001511   
    384. D(Au 14,Cr 16,Au  0,Au  4)    135.4919         0.001511   
    385. D(Au 14,Cr 16,Au  0,Au  2)     72.9850         0.001511   
    386. D(Au 13,Cr 16,Au  0,Au  4)     -3.0648         0.001511   
    387. D(Au 13,Cr 16,Au  0,Au  2)    -65.5717         0.001511   
    388. D(Au 11,Cr 16,Au  0,Au  4)    -72.9899         0.001511   
    389. D(Au 11,Cr 16,Au  0,Au  2)   -135.4968         0.001511   
    390. D(Au 10,Cr 16,Au  0,Au  4)    -39.6751         0.001511   
    391. D(Au  8,Cr 16,Au 10,Au  4)    111.5279         0.001511   
    392. D(Au 10,Cr 16,Au  0,Au  2)   -102.1820         0.001511   
    393. D(Au  9,Cr 16,Au  0,Au  4)    174.0238         0.001511   
    394. D(Au  9,Cr 16,Au  0,Au  2)    111.5169         0.001511   
    395. D(Au 11,Cr 16,Au 10,Au  4)   -174.0155         0.001511   
    396. D(Au  8,Cr 16,Au  0,Au  4)   -111.5206         0.001511   
    397. D(Au  8,Cr 16,Au  0,Au  2)   -174.0275         0.001511   
    398. D(Au  5,Cr 16,Au  0,Au  4)    102.1784         0.001511   
    399. D(Au 13,Cr 16,Au 10,Au  4)   -102.1702         0.001511   
    400. D(Au  5,Cr 16,Au  0,Au  2)     39.6715         0.001511   
    401. D(Au 14,Cr 16,Au 15,Au  6)   -111.5268         0.001511   
    402. D(Au 14,Cr 16,Au 15,Au  7)   -174.0189         0.001511   
    403. D(Au 13,Cr 16,Au 15,Au  6)    102.1696         0.001511   
    404. D(Au 12,Cr 16,Au 15,Au  6)    174.0188         0.001511   
    405. D(Au 12,Cr 16,Au 15,Au  7)    111.5266         0.001511   
    406. D(Au 11,Cr 16,Au 15,Au  6)    135.4941         0.001511   
    407. D(Au 10,Cr 16,Au 15,Au  6)     65.5669         0.001511   
    408. D(Au 10,Cr 16,Au 15,Au  7)      3.0748         0.001511   
    409. D(Au  9,Cr 16,Au 15,Au  6)    -73.0023         0.001511   
    410. D(Au  5,Cr 16,Au 15,Au  6)    -39.6775         0.001511   
    411. D(Au  5,Cr 16,Au 15,Au  7)   -102.1697         0.001511   
    412. D(Au  0,Cr 16,Au 15,Au  6)     -3.0716         0.001511   
    413. D(Au  0,Cr 16,Au 15,Au  7)    -65.5637         0.001511   
    414. D(Au 15,Cr 16,Au 13,Au  7)    -39.6777         0.001511   
    415. D(Au 15,Cr 16,Au 13,Au  3)   -102.1748         0.001511   
    416. D(Au 14,Cr 16,Au 13,Au  7)    -72.9951         0.001511   
    417. D(Au 14,Cr 16,Au 13,Au  3)   -135.4923         0.001511   
    418. D(Au 12,Cr 16,Au 13,Au  7)   -111.5197         0.001511   
    419. D(Au 12,Cr 16,Au 13,Au  3)   -174.0168         0.001511   
    420. D(Au 11,Cr 16,Au 13,Au  7)    174.0240         0.001511   
    421. D(Au 11,Cr 16,Au 13,Au  3)    111.5269         0.001511   
    422. D(Au 10,Cr 16,Au 13,Au  7)    102.1745         0.001511   
    423. D(Au  9,Cr 16,Au 15,Au  7)   -135.4945         0.001511   
    424. D(Au 10,Cr 16,Au 13,Au  3)     39.6774         0.001511   
    425. D(Au  8,Cr 16,Au 13,Au  7)    135.4972         0.001511   
    426. D(Au  8,Cr 16,Au 13,Au  3)     73.0001         0.001511   
    427. D(Au 11,Cr 16,Au 15,Au  7)     73.0020         0.001511   
    428. D(Au  5,Cr 16,Au 13,Au  7)     -3.0720         0.001511   
    429. D(Au  5,Cr 16,Au 13,Au  3)    -65.5691         0.001511   
    430. D(Au  0,Cr 16,Au 13,Au  7)     65.5655         0.001511   
    431. D(Au 13,Cr 16,Au 15,Au  7)     39.6774         0.001511   
    432. D(Au  0,Cr 16,Au 13,Au  3)      3.0684         0.001511   
    433. D(Au 15,Cr 16,Au 10,Au  3)     -3.0702         0.001511   
    434. D(Au 15,Cr 16,Au 10,Au  4)    -65.5689         0.001511   
    435. D(Au 13,Cr 16,Au 10,Au  3)    -39.6715         0.001511   
    -----------------------------------------------------------------

Number of atoms                         .... 17
Number of degrees of freedom            .... 435

         *************************************************************
         *                GEOMETRY OPTIMIZATION CYCLE   1            *
         *************************************************************
---------------------------------
CARTESIAN COORDINATES (ANGSTROEM)
---------------------------------
  Au     8.766087    5.972625    9.092579
  Au     8.093040   10.127437   10.961417
  Au     9.890545    7.927667   10.790489
  Au     5.853324    9.562558    9.299213
  Au     7.081655    7.473161   10.789815
  Au    10.869688    7.764239    8.147702
  Au    10.397818   10.297916    9.300415
  Au     7.902930   11.308109    8.378800
  Au     7.511659    4.883043    6.786420
  Au    10.301365    5.334442    6.787167
  Au     6.205297    7.009335    8.146487
  Au     6.291651    6.958069    5.306022
  Au     8.327319    8.692009    4.391798
  Au     6.726156    9.442079    6.617123
  Au    10.805419    7.688595    5.307174
  Au     9.608911    9.908540    6.617755
  Cr     8.553772    7.288431    6.602223

----------------------------
CARTESIAN COORDINATES (A.U.)
----------------------------
  NO LB      ZA    FRAG     MASS         X           Y           Z
   0 Au   19.0000*   0   196.966   16.565503   11.286626   17.182483
   1 Au   19.0000*   0   196.966   15.293629   19.138082   20.714076
   2 Au   19.0000*   0   196.966   18.690422   14.981119   20.391070
   3 Au   19.0000*   0   196.966   11.061179   18.070616   17.572966
   4 Au   19.0000*   0   196.966   13.382389   14.122228   20.389795
   5 Au   19.0000*   0   196.966   20.540733   14.672285   15.396925
   6 Au   19.0000*   0   196.966   19.649028   19.460241   17.575237
   7 Au   19.0000*   0   196.966   14.934374   21.369228   15.833637
   8 Au   19.0000*   0   196.966   14.194979    9.227613   12.824475
   9 Au   19.0000*   0   196.966   19.466759   10.080635   12.825887
  10 Au   19.0000*   0   196.966   11.726313   13.245724   15.394629
  11 Au   19.0000*   0   196.966   11.889498   13.148845   10.026928
  12 Au   19.0000*   0   196.966   15.736353   16.425517    8.299295
  13 Au   19.0000*   0   196.966   12.710592   17.842944   12.504551
  14 Au   19.0000*   0   196.966   20.419283   14.529339   10.029106
  15 Au   19.0000*   0   196.966   18.158211   18.724427   12.505744
  16 Cr   24.0000    0    52.000   16.164286   13.773139   12.476394
* core charge reduced due to ECP

--------------------------------
INTERNAL COORDINATES (ANGSTROEM)
--------------------------------
 Au     0   0   0     0.000000000000     0.00000000     0.00000000
 Au     1   0   0     4.605215540136     0.00000000     0.00000000
 Au     1   2   0     2.823029445298    35.83936030     0.00000000
 Au     2   1   3     2.845758272201    72.47674541   178.60371762
 Au     1   2   3     2.823035372446    35.83298660   118.81061350
 Au     3   1   2     2.823075467359    62.29103559   258.21527123
 Au     6   3   1     2.823283239008    60.51905601   137.88020400
 Au     7   6   3     2.845053143454   109.44809488   260.00960584
 Au     1   2   3     2.842383632662   127.63253700   200.52503129
 Au     9   1   2     2.825990302742    60.19115493   116.21878887
 Au     5   1   2     2.823175325371    62.28848302   101.78021557
 Au     9   1   2     2.825904135539   109.51736631    16.15229587
 Au    12   9   1     2.826003797395   108.00030453    63.93495603
 Au     4   2   1     2.823111019008   108.66665355   294.37529576
 Au    13  12   9     2.825903850625   108.00042658     0.00000000
 Au     8   7   6     2.823197548424    59.74443813   320.97934543
 Cr     9   1   2     2.627892724255    62.02929317    49.63136158

---------------------------
INTERNAL COORDINATES (A.U.)
---------------------------
 Au     0   0   0     0.000000000000     0.00000000     0.00000000
 Au     1   0   0     8.702596158535     0.00000000     0.00000000
 Au     1   2   0     5.334752519609    35.83936030     0.00000000
 Au     2   1   3     5.377703777801    72.47674541   178.60371762
 Au     1   2   3     5.334763720296    35.83298660   118.81061350
 Au     3   1   2     5.334839488700    62.29103559   258.21527123
 Au     6   3   1     5.335232120215    60.51905601   137.88020400
 Au     7   6   3     5.376371277580   109.44809488   260.00960584
 Au     1   2   3     5.371326633271   127.63253700   200.52503129
 Au     9   1   2     5.340347729300    60.19115493   116.21878887
 Au     5   1   2     5.335028192995    62.28848302   101.78021557
 Au     9   1   2     5.340184896884   109.51736631    16.15229587
 Au    12   9   1     5.340373230498   108.00030453    63.93495603
 Au     4   2   1     5.334906671581   108.66665355   294.37529576
 Au    13  12   9     5.340184358475   108.00042658     0.00000000
 Au     8   7   6     5.335070188479    59.74443813   320.97934543
 Cr     9   1   2     4.965997558165    62.02929317    49.63136158

---------------------
BASIS SET INFORMATION
---------------------
There are 2 groups of distinct atoms

 Group   1 Type Au  : 8s7p6d1f contracted to 6s4p3d1f pattern {311111/4111/411/1}
 Group   2 Type Cr  : 17s11p7d1f contracted to 6s4p4d1f pattern {842111/6311/4111/1}

Atom   0Au   basis set group =>   1
Atom   1Au   basis set group =>   1
Atom   2Au   basis set group =>   1
Atom   3Au   basis set group =>   1
Atom   4Au   basis set group =>   1
Atom   5Au   basis set group =>   1
Atom   6Au   basis set group =>   1
Atom   7Au   basis set group =>   1
Atom   8Au   basis set group =>   1
Atom   9Au   basis set group =>   1
Atom  10Au   basis set group =>   1
Atom  11Au   basis set group =>   1
Atom  12Au   basis set group =>   1
Atom  13Au   basis set group =>   1
Atom  14Au   basis set group =>   1
Atom  15Au   basis set group =>   1
Atom  16Cr   basis set group =>   2
---------------------------------
AUXILIARY/J BASIS SET INFORMATION
---------------------------------
There are 2 groups of distinct atoms

 Group   1 Type Au  : 11s5p5d3f3g contracted to 8s5p5d2f3g pattern {41111111/11111/11111/21/111}
 Group   2 Type Cr  : 19s5p5d3f3g contracted to 8s5p5d2f3g pattern {121111111/11111/11111/21/111}

Atom   0Au   basis set group =>   1
Atom   1Au   basis set group =>   1
Atom   2Au   basis set group =>   1
Atom   3Au   basis set group =>   1
Atom   4Au   basis set group =>   1
Atom   5Au   basis set group =>   1
Atom   6Au   basis set group =>   1
Atom   7Au   basis set group =>   1
Atom   8Au   basis set group =>   1
Atom   9Au   basis set group =>   1
Atom  10Au   basis set group =>   1
Atom  11Au   basis set group =>   1
Atom  12Au   basis set group =>   1
Atom  13Au   basis set group =>   1
Atom  14Au   basis set group =>   1
Atom  15Au   basis set group =>   1
Atom  16Cr   basis set group =>   2
-------------------------
ECP PARAMETER INFORMATION
-------------------------

 Group 1, Type Au ECP Def2-ECP (replacing 60 core electrons, lmax=3)

Atom   0Au   ECP group =>   1
Atom   1Au   ECP group =>   1
Atom   2Au   ECP group =>   1
Atom   3Au   ECP group =>   1
Atom   4Au   ECP group =>   1
Atom   5Au   ECP group =>   1
Atom   6Au   ECP group =>   1
Atom   7Au   ECP group =>   1
Atom   8Au   ECP group =>   1
Atom   9Au   ECP group =>   1
Atom  10Au   ECP group =>   1
Atom  11Au   ECP group =>   1
Atom  12Au   ECP group =>   1
Atom  13Au   ECP group =>   1
Atom  14Au   ECP group =>   1
Atom  15Au   ECP group =>   1

------------------------------------------------------------------------------
                           ORCA GTO INTEGRAL CALCULATION
                           -- RI-GTO INTEGRALS CHOSEN --
------------------------------------------------------------------------------
------------------------------------------------------------------------------
                   ___                                                        
                  /   \      - P O W E R E D   B Y -                         
                 /     \                                                     
                 |  |  |   _    _      __       _____    __    __             
                 |  |  |  | |  | |    /  \     |  _  \  |  |  /  |          
                  \  \/   | |  | |   /    \    | | | |  |  | /  /          
                 / \  \   | |__| |  /  /\  \   | |_| |  |  |/  /          
                |  |  |   |  __  | /  /__\  \  |    /   |      \           
                |  |  |   | |  | | |   __   |  |    \   |  |\   \          
                \     /   | |  | | |  |  |  |  | |\  \  |  | \   \       
                 \___/    |_|  |_| |__|  |__|  |_| \__\ |__|  \__/        
                                                                              
                      - O R C A' S   B I G   F R I E N D -                    
                                      &                                       
                       - I N T E G R A L  F E E D E R -                       
                                                                              
 v1 FN, 2020, v2 2021                                                         
------------------------------------------------------------------------------


Reading SHARK input file pbe.SHARKINP.tmp ... ok
----------------------
SHARK INTEGRAL PACKAGE
----------------------

Number of atoms                             ...     17
Number of basis functions                   ...    685
Number of shells                            ...    239
Maximum angular momentum                    ...      3
Integral batch strategy                     ... SHARK/LIBINT Hybrid
RI-J (if used) integral strategy            ... SPLIT-RIJ (Revised 2003 algorithm where possible)
Printlevel                                  ...      1
Contraction scheme used                     ... SEGMENTED contraction
Coulomb Range Separation                    ... NOT USED
Exchange Range Separation                   ... NOT USED
Finite Nucleus Model                        ... NOT USED
Auxiliary Coulomb fitting basis             ... AVAILABLE
   # of basis functions in Aux-J            ...   1513
   # of shells in Aux-J                     ...    391
   Maximum angular momentum in Aux-J        ...      4
Auxiliary J/K fitting basis                 ... NOT available
Auxiliary Correlation fitting basis         ... NOT available
Auxiliary 'external' fitting basis          ... NOT available
Integral threshold                          ...     2.500000e-11
Primitive cut-off                           ...     2.500000e-12
Primitive pair pre-selection threshold      ...     2.500000e-12

Calculating pre-screening integrals         ... done (  0.4 sec) Dimension = 239
Organizing shell pair data                  ... done (  0.4 sec)
Shell pair information
Total number of shell pairs                 ...     28680
Shell pairs after pre-screening             ...     22476
Total number of primitive shell pairs       ...     75765
Primitive shell pairs kept                  ...     42548
          la=0 lb=0:   3527 shell pairs
          la=1 lb=0:   5162 shell pairs
          la=1 lb=1:   1916 shell pairs
          la=2 lb=0:   4480 shell pairs
          la=2 lb=1:   3170 shell pairs
          la=2 lb=2:   1302 shell pairs
          la=3 lb=0:   1146 shell pairs
          la=3 lb=1:    879 shell pairs
          la=3 lb=2:    777 shell pairs
          la=3 lb=3:    117 shell pairs

Calculating one electron integrals          ... done (  0.1 sec)
Calculating ECP integrals                   ... done ( 12.3 sec)
Calculating RI/J V-Matrix + Cholesky decomp.... done (  0.1 sec)
Calculating Nuclear repulsion               ... done (  0.0 sec) ENN=   6863.987159930899 Eh

SHARK setup successfully completed in  16.0 seconds

Maximum memory used throughout the entire GTOINT-calculation: 629.0 MB
-------------------------------------------------------------------------------
                                 ORCA SCF
-------------------------------------------------------------------------------

------------
SCF SETTINGS
------------
Hamiltonian:
 Density Functional     Method          .... DFT(GTOs)
 Exchange Functional    Exchange        .... PBE
   PBE kappa parameter   XKappa         ....  0.804000
   PBE mue parameter    XMuePBE         ....  0.219520
 Correlation Functional Correlation     .... PBE
   PBE beta parameter  CBetaPBE         ....  0.066725
 LDA part of GGA corr.  LDAOpt          .... PW91-LDA
 Gradients option       PostSCFGGA      .... off
   Density functional embedding theory  .... OFF
   NL short-range parameter             ....  6.400000
 RI-approximation to the Coulomb term is turned on
   Number of AuxJ basis functions       .... 1513


General Settings:
 Integral files         IntName         .... pbe
 Hartree-Fock type      HFTyp           .... UHF
 Total Charge           Charge          ....    0
 Multiplicity           Mult            ....    5
 Number of Electrons    NEL             ....  328
 Basis Dimension        Dim             ....  685
 Nuclear Repulsion      ENuc            ....   6863.9871599309 Eh

Convergence Acceleration:
 DIIS                   CNVDIIS         .... off
 Trust-Rad. Augm. Hess. CNVTRAH         .... auto
   Auto Start mean grad. ratio tolernc. ....  1.125000
   Auto Start start iteration           ....    20
   Auto Start num. interpolation iter.  ....    10
   Max. Number of Micro iterations      ....    16
   Max. Number of Macro iterations      .... Maxiter - #DIIS iter
   Number of Davidson start vectors     ....     2
   Converg. threshold I  (grad. norm)   ....   1.000e-05
   Converg. threshold II (energy diff.) ....   1.000e-08
   Grad. Scal. Fac. for Micro threshold ....   0.100
   Minimum threshold for Micro iter.    ....   0.010
   NR start threshold (gradient norm)   ....   0.001
   Initial trust radius                 ....   0.400
   Minimum AH scaling param. (alpha)    ....   1.000
   Maximum AH scaling param. (alpha)    .... 1000.000
   Orbital update algorithm             .... Taylor
   White noise on init. David. guess    .... on
   Maximum white noise                  ....   0.010
   Quad. conv. algorithm                .... NR
 SOSCF                  CNVSOSCF        .... off
 Level Shifting         CNVShift        .... off
 Zerner damping         CNVZerner       .... off
 Static damping         CNVDamp         .... off
 Fernandez-Rico         CNVRico         .... off

SCF Procedure:
 Maximum # iterations   MaxIter         ....   125
 SCF integral mode      SCFMode         .... Direct
   Integral package                     .... SHARK and LIBINT hybrid scheme
 Reset frequency        DirectResetFreq ....    20
 Integral Threshold     Thresh          ....  2.500e-11 Eh
 Primitive CutOff       TCut            ....  2.500e-12 Eh

Convergence Tolerance:
 Convergence Check Mode ConvCheckMode   .... Total+1el-Energy
 Convergence forced     ConvForced      .... 0
 Energy Change          TolE            ....  1.000e-08 Eh
 1-El. energy change                    ....  1.000e-05 Eh


Diagonalization of the overlap matrix:
Smallest eigenvalue                        ... 6.213e-05
Time for diagonalization                   ...    0.058 sec
Threshold for overlap eigenvalues          ... 1.000e-08
Number of eigenvalues below threshold      ... 0
Time for construction of square roots      ...    0.030 sec
Total time needed                          ...    0.089 sec

Time for model grid setup =    1.532 sec

------------------------------
INITIAL GUESS: MODEL POTENTIAL
------------------------------
Loading Hartree-Fock densities                     ... done
  calling /media/Programs/ORCA501/orca pbe_atom79.inp > pbe_atom79.out in order to generate an atomic fitting density for atom 0 (Au with ECP) on-the-fly... 
    atom 0 (Au), assumed electronic state with S=2: 1s2 2s2 2p6 3s2 3p6 4s2 3d10 4p6 5s2 4d10 5p6 6s1 4f14 5d10           ... done
Calculating cut-offs                               ... done
Initializing the effective Hamiltonian             ... done
Setting up the integral package (SHARK)            ... done
Starting the Coulomb interaction                   ... done (   3.2 sec)
Reading the grid                                   ... done
Mapping shells                                     ... done
Starting the XC term evaluation                    ... done (   3.5 sec)
  promolecular density results
     # of electrons  =   1288.015595062
     EX              =  -5900.379127545
     EC              =    -78.540295975
     EX+EC           =  -5978.919423520
Transforming the Hamiltonian                       ... done (   0.0 sec)
Diagonalizing the Hamiltonian                      ... done (   0.1 sec)
Back transforming the eigenvectors                 ... done (   0.0 sec)
Now organizing SCF variables                       ... done
                      ------------------
                      INITIAL GUESS DONE (   8.9 sec)
                      ------------------
-------------------
DFT GRID GENERATION
-------------------

General Integration Accuracy     IntAcc      ... 4.388
Radial Grid Type                 RadialGrid  ... OptM3 with GC (2021)
Angular Grid (max. ang.)         AngularGrid ... 4 (Lebedev-302)
Angular grid pruning method      GridPruning ... 4 (adaptive)
Weight generation scheme         WeightScheme... Becke
Basis function cutoff            BFCut       ... 1.0000e-11
Integration weight cutoff        WCut        ... 1.0000e-14
Angular grids for H and He will be reduced by one unit
Partially contracted basis set               ... off
Rotationally invariant grid construction     ... off

Total number of grid points                  ...   187127
Total number of batches                      ...     2931
Average number of points per batch           ...       63
Average number of grid points per atom       ...    11007
Time for grid setup =    3.637 sec

--------------
SCF ITERATIONS
--------------
ITER       Energy         Delta-E        Max-DP      RMS-DP      [F,P]   Gradient Norm
               ***  Starting incremental Fock matrix formation  ***
                             ****Resetting KDIIS****
                             ****Turning on KDIIS(Cayley)****
  0  -3214.9695854100   0.000000000000 0.51783709  0.00211637  0.4469185   0.223401314
  1  -3216.3614449284  -1.391859518391 1.29699317  0.00328012  0.3997199   0.169318589
  2  -3216.9894525015  -0.628007573110 0.22214811  0.00161841  0.3158033   0.125925470
  3  -3217.2780054248  -0.288552923319 0.37875444  0.00174985  0.1838364   0.073175935
  4  -3217.3422140233  -0.064208598480 0.30382525  0.00058895  0.0662140   0.023471468
  5  -3217.3986312732  -0.056417249908 0.49621016  0.00092517  0.0414965   0.007049075
  6  -3217.4169900543  -0.018358781085 0.97090326  0.00154580  0.0477218   0.007367981
  7  -3217.4372801879  -0.020290133587 0.30191166  0.00053799  0.0525180   0.008600256
  8  -3217.4458733039  -0.008593115993 0.17372857  0.00047253  0.0218075   0.007198848
  9  -3217.4615701196  -0.015696815752 0.04618740  0.00017194  0.0334831   0.004582487
 10  -3217.4671144383  -0.005544318665 0.10736939  0.00024962  0.0349475   0.003107300
 11  -3217.4746883524  -0.007573914143 0.07371222  0.00031087  0.0348670   0.002465250
 12  -3217.4858339504  -0.011145597925 0.38423328  0.00064046  0.0270677   0.003120367
 13  -3217.4947597288  -0.008925778439 0.43137245  0.00095140  0.0244054   0.004746192
 14  -3217.4980725636  -0.003312834804 0.37113492  0.00074460  0.0217247   0.006382215
 15  -3217.4985056524  -0.000433088742 0.07894121  0.00026615  0.0173244   0.006121059
 16  -3217.5043812889  -0.005875636551 0.04815558  0.00013965  0.0076246   0.002569759
 17  -3217.5041115251   0.000269763834 0.09594208  0.00019050  0.0077711   0.002609133
 18  -3217.5058411159  -0.001729590863 0.03137586  0.00007856  0.0028908   0.000586770
 19  -3217.5059198269  -0.000078710952 0.02992512  0.00005764  0.0018461   0.001145782
               *** Restarting incremental Fock matrix formation ***
                             ****Resetting KDIIS****
 20  -3217.5061086861  -0.000188859196 0.00234697  0.00000616  0.0015250   0.000491958
 21  -3217.5061289294  -0.000020243327 0.00470566  0.00000883  0.0013639   0.000357688
 22  -3217.5061459680  -0.000017038594 0.00829008  0.00001617  0.0012396   0.000290007
 23  -3217.5061720387  -0.000026070682 0.02133512  0.00005636  0.0011351   0.000214065
 24  -3217.5062229922  -0.000050953516 0.04798012  0.00007944  0.0005822   0.000336776
 25  -3217.5062681067  -0.000045114487 0.00148162  0.00000741  0.0003399   0.000078258
 26  -3217.5062664882   0.000001618443 0.00528221  0.00001102  0.0003878   0.000162204
 27  -3217.5062710411  -0.000004552826 0.00118066  0.00000326  0.0003007   0.000042440
 28  -3217.5062717810  -0.000000739961 0.00122589  0.00000468  0.0001453   0.000045537
 29  -3217.5062727533  -0.000000972228 0.00104660  0.00000394  0.0002719   0.000057776
 30  -3217.5062734699  -0.000000716666 0.00325376  0.00000482  0.0000842   0.000029961
 31  -3217.5062733882   0.000000081686 0.00069110  0.00000384  0.0000913   0.000043002
 32  -3217.5062738936  -0.000000505337 0.00087710  0.00000195  0.0000560   0.000019345
 33  -3217.5062739039  -0.000000010350 0.00072160  0.00000157  0.0000471   0.000023780
 34  -3217.5062739193  -0.000000015416 0.00068273  0.00000125  0.0000606   0.000020533
 35  -3217.5062739155   0.000000003800 0.00011781  0.00000063  0.0000367   0.000016383
 36  -3217.5062739142   0.000000001390 0.00092098  0.00000165  0.0000487   0.000010255
 37  -3217.5062739013   0.000000012838 0.00022483  0.00000051  0.0000327   0.000012817
 38  -3217.5062739324  -0.000000031055 0.00019525  0.00000073  0.0000274   0.000006547
 39  -3217.5062739193   0.000000013044 0.00202364  0.00000267  0.0000312   0.000008997
               *** Restarting incremental Fock matrix formation ***
                             ****Resetting KDIIS****
 40  -3217.5062741566  -0.000000237304 0.00030851  0.00000046  0.0000227   0.000007648

 WARNING: the maximum gradient error descreased on average only by a factor   1.1
          during the last 20 iterations

                      *** Initiating the TRAH-SCF procedure ***

                    *** KDIIS BlockDiag ( 0.149 sec) ***

TRAH GRID
---------

General Integration Accuracy     IntAcc      ... 3.467
Radial Grid Type                 RadialGrid  ... OptM3 with GC (2021)
Angular Grid (max. ang.)         AngularGrid ... 1 (Lebedev-50)
Angular grid pruning method      GridPruning ... 4 (adaptive)
Weight generation scheme         WeightScheme... Becke
Basis function cutoff            BFCut       ... 1.0000e-11
Integration weight cutoff        WCut        ... 1.0000e-14
Angular grids for H and He will be reduced by one unit
Partially contracted basis set               ... off
Rotationally invariant grid construction     ... off

Total number of grid points                  ...    80611
Total number of batches                      ...     1269
Average number of points per batch           ...       63
Average number of grid points per atom       ...     4742

 --------------------------------------------------------------------------------------------
   Iter.        energy            ||Error||_2        Shift      TRadius  Mac/Mic        Rej.
 --------------------------------------------------------------------------------------------
    0      -3217.506274162633     8.754057e-05                     0.400 (TRAH MAcro)   No
WARNING : small    HOMO - LUMO gap : (op = alpha) 0.004942
    0     dE    -1.722835e-09     1.667468e-04    -1.7343e-09      0.000 (TRAH MIcro)
    0     dE    -4.950043e-08     1.639650e-04    -4.9500e-08      0.001 (TRAH MIcro)
    0     dE    -5.968620e-08     1.382079e-04    -5.9686e-08      0.002 (TRAH MIcro)
    0     dE    -6.560318e-08     8.818968e-05    -6.5603e-08      0.002 (TRAH MIcro)
    0     dE    -7.092798e-08     5.496100e-05    -7.0928e-08      0.002 (TRAH MIcro)
    0     dE    -7.437805e-08     6.515021e-05    -7.4378e-08      0.003 (TRAH MIcro)
    0     dE    -8.131001e-08     1.153087e-04    -8.1309e-08      0.004 (TRAH MIcro)
    0     dE    -9.544825e-08     2.710727e-04    -9.5443e-08      0.008 (TRAH MIcro)
    0     dE    -1.538798e-07     2.783214e-04    -1.5380e-07      0.023 (TRAH MIcro)
    0     dE    -3.538022e-07     7.504771e-04    -3.5166e-07      0.078 (TRAH MIcro)
    0     dE    -2.128592e-06     1.949252e-03    -3.9190e-06      0.400 (TRAH MIcro)
    0     dE    -3.526181e-06     7.666860e-04    -1.2915e-05      0.398 (TRAH MIcro)
    0     dE    -3.758248e-06     2.841580e-04    -1.4177e-05      0.400 (TRAH MIcro)
    0     dE    -3.798298e-06     1.635791e-04    -1.4429e-05      0.400 (TRAH MIcro)
 ---------------------------------
          TRAH Step control 
 ---------------------------------
  predicted energy change = -0.000004
  actual energy  change   = 0.000046
  energy change ratio     = -12.085905
  old trust radius        = 0.400000
  new trust radius        = 0.280000
  reject step?            =  1
    1      -3217.506274162633     0.000000e+00                     0.280 (TRAH MAcro)  Yes
    2      -3217.506274162635     8.754057e-05                           (NR   MAcro)
WARNING : small    HOMO - LUMO gap : (op = alpha) 0.004942
    2     dE    -4.005471e-08     1.634667e-04                           (NR   MIcro)
    2     dE    -6.084178e-08     1.224966e-04                           (NR   MIcro)
    2     dE    -6.471323e-08     9.483555e-05                           (NR   MIcro)
    2     dE    -6.954086e-08     5.977083e-05                           (NR   MIcro)
    2     dE    -7.374051e-08     6.233077e-05                           (NR   MIcro)
    2     dE    -7.809439e-08     9.241365e-05                           (NR   MIcro)
    2     dE    -8.762568e-08     1.477130e-04                           (NR   MIcro)
    2     dE    -1.336720e-07     2.337918e-04                           (NR   MIcro)
    2     dE    -2.778729e-07     5.241904e-04                           (NR   MIcro)
    2     dE    -6.061946e-05     5.834337e-02                           (NR   MIcro)
    2     dE     3.036835e-06     1.439534e-03                           (NR   MIcro)
    2     dE     2.413639e-06     5.808465e-04                           (NR   MIcro)
    2     dE     2.265457e-06     3.016484e-04                           (NR   MIcro)
    2     dE     2.214690e-06     1.340074e-04                           (NR   MIcro)
    2     dE     2.205908e-06     6.829288e-05                           (NR   MIcro)
    3      -3217.505972242887     2.180094e-02                     0.280 (TRAH MAcro)   No
WARNING : small    HOMO - LUMO gap : (op = alpha) 0.005876
    3     dE    -1.439608e-04     1.875936e-02    -1.4395e-04      0.007 (TRAH MIcro)
    3     dE    -2.566901e-04     7.464410e-03    -2.5648e-04      0.029 (TRAH MIcro)
    3     dE    -2.858366e-04     4.092017e-03    -2.8543e-04      0.038 (TRAH MIcro)
    3     dE    -2.944160e-04     2.859934e-03    -2.9394e-04      0.040 (TRAH MIcro)
    3     dE    -2.969653e-04     2.091474e-03    -2.9647e-04      0.041 (TRAH MIcro)
    4      -3217.506269921218     2.077795e-03                     0.336 (TRAH MAcro)   No
WARNING : small    HOMO - LUMO gap : (op = alpha) 0.004930
    4     dE    -9.754368e-07     4.111142e-03    -9.7544e-07      0.000 (TRAH MIcro)
    4     dE    -1.706308e-06     2.014793e-03    -1.7063e-06      0.002 (TRAH MIcro)
    4     dE    -2.246917e-06     7.730324e-04    -2.2469e-06      0.003 (TRAH MIcro)
    4     dE    -2.527359e-06     5.736236e-04    -2.5273e-06      0.003 (TRAH MIcro)
    4     dE    -2.626108e-06     2.670931e-04    -2.6261e-06      0.004 (TRAH MIcro)
    4     dE    -2.647871e-06     1.144672e-04    -2.6478e-06      0.004 (TRAH MIcro)
    5      -3217.506272569535     1.145134e-04                           (NR   MAcro)
WARNING : small    HOMO - LUMO gap : (op = alpha) 0.004936
    5     dE    -3.681735e-09     7.310085e-05                           (NR   MIcro)
    5     dE    -6.936977e-09     4.457116e-05                           (NR   MIcro)
    5     dE    -7.909799e-09     3.050246e-05                           (NR   MIcro)
    5     dE    -8.315012e-09     2.264409e-05                           (NR   MIcro)
    5     dE    -8.896674e-09     2.689664e-05                           (NR   MIcro)
    5     dE    -9.727962e-09     3.503157e-05                           (NR   MIcro)
    5     dE    -1.091619e-08     5.442661e-05                           (NR   MIcro)
    5     dE    -2.604140e-08     2.048507e-04                           (NR   MIcro)
    5     dE    -4.201500e-07     2.927715e-03                           (NR   MIcro)
    5     dE     4.295951e-08     1.379261e-04                           (NR   MIcro)
    5     dE     3.743259e-08     5.586257e-05                           (NR   MIcro)
    5     dE     3.614773e-08     2.753967e-05                           (NR   MIcro)
    5     dE     3.584830e-08     1.245608e-05                           (NR   MIcro)
    5     dE     3.577404e-08     5.746470e-06                           (NR   MIcro)
    5     dE     3.575786e-08     3.325151e-06                           (NR   MIcro)
    6      -3217.506272499703     5.694136e-05                           (NR   MAcro)
WARNING : small    HOMO - LUMO gap : (op = alpha) 0.004939
    6     dE    -1.722056e-09     2.914706e-05                           (NR   MIcro)
    6     dE    -2.256627e-09     2.736234e-05                           (NR   MIcro)
    6     dE    -2.713599e-09     2.146795e-05                           (NR   MIcro)
    6     dE    -3.034512e-09     1.865063e-05                           (NR   MIcro)
    6     dE    -3.423661e-09     2.193654e-05                           (NR   MIcro)
    6     dE    -4.411637e-09     4.708234e-05                           (NR   MIcro)
    6     dE    -1.106675e-08     1.237430e-04                           (NR   MIcro)
    6     dE    -2.502741e-08     2.173859e-04                           (NR   MIcro)
    6     dE     1.345334e-07     6.786609e-04                           (NR   MIcro)
    6     dE     4.165378e-08     9.360149e-05                           (NR   MIcro)
    6     dE     3.714114e-08     5.357930e-05                           (NR   MIcro)
    6     dE     3.559289e-08     1.586391e-05                           (NR   MIcro)
    6     dE     3.549213e-08     9.947713e-06                           (NR   MIcro)
    6     dE     3.543741e-08     5.501067e-06                           (NR   MIcro)
    6     dE     3.542169e-08     2.658586e-06                           (NR   MIcro)
    7      -3217.506272436136     7.014161e-05                           (NR   MAcro)
WARNING : small    HOMO - LUMO gap : (op = alpha) 0.004940
    7     dE    -2.481448e-09     3.495253e-05                           (NR   MIcro)
    7     dE    -3.114133e-09     3.002449e-05                           (NR   MIcro)
    7     dE    -3.577884e-09     2.110143e-05                           (NR   MIcro)
    7     dE    -3.819605e-09     1.497629e-05                           (NR   MIcro)
    7     dE    -3.996148e-09     1.159787e-05                           (NR   MIcro)
    7     dE    -4.222096e-09     2.005383e-05                           (NR   MIcro)
    7     dE    -5.350398e-09     4.563041e-05                           (NR   MIcro)
    7     dE    -7.031352e-09     6.473334e-05                           (NR   MIcro)
    7     dE    -1.806278e-08     1.617529e-04                           (NR   MIcro)
    7     dE     7.560292e-08     4.008332e-04                           (NR   MIcro)
    7     dE     3.293920e-08     1.193640e-04                           (NR   MIcro)
    7     dE     2.623377e-08     3.029153e-05                           (NR   MIcro)
    7     dE     2.586450e-08     1.828358e-05                           (NR   MIcro)
    7     dE     2.568522e-08     1.042955e-05                           (NR   MIcro)
    7     dE     2.562806e-08     5.130800e-06                           (NR   MIcro)
    8      -3217.506272390171     8.337133e-05                           (NR   MAcro)
WARNING : small    HOMO - LUMO gap : (op = alpha) 0.004941
    8     dE    -3.425210e-09     4.111764e-05                           (NR   MIcro)
    8     dE    -4.205545e-09     3.416030e-05                           (NR   MIcro)
    8     dE    -4.757869e-09     2.282951e-05                           (NR   MIcro)
    8     dE    -4.991584e-09     1.465126e-05                           (NR   MIcro)
    8     dE    -5.102885e-09     7.364201e-06                           (NR   MIcro)
    8     dE    -5.148522e-09     6.669930e-06                           (NR   MIcro)
    8     dE    -5.248872e-09     1.160292e-05                           (NR   MIcro)
    8     dE    -5.358331e-09     1.513046e-05                           (NR   MIcro)
    8     dE    -5.810280e-09     2.780739e-05                           (NR   MIcro)
    8     dE    -8.381203e-09     6.490714e-05                           (NR   MIcro)
    8     dE    -2.015110e-08     1.935784e-04                           (NR   MIcro)
    8     dE     2.628240e-08     1.285135e-04                           (NR   MIcro)
    8     dE     2.074327e-08     6.477134e-05                           (NR   MIcro)
    8     dE     1.865973e-08     3.446678e-05                           (NR   MIcro)
    8     dE     1.804296e-08     1.609753e-05                           (NR   MIcro)
    9      -3217.506272358646     1.754414e-04                           (NR   MAcro)
WARNING : small    HOMO - LUMO gap : (op = alpha) 0.004947
    9     dE    -1.468649e-08     8.350213e-05                           (NR   MIcro)
    9     dE    -1.780082e-08     6.551651e-05                           (NR   MIcro)
    9     dE    -1.957581e-08     4.397069e-05                           (NR   MIcro)
    9     dE    -2.037608e-08     2.749277e-05                           (NR   MIcro)
    9     dE    -2.070650e-08     1.182877e-05                           (NR   MIcro)
    9     dE    -2.076401e-08     5.835408e-06                           (NR   MIcro)
    9     dE    -2.078599e-08     3.110317e-06                           (NR   MIcro)
    9     dE    -2.079108e-08     2.152019e-06                           (NR   MIcro)
    9     dE    -2.079527e-08     1.401902e-06                           (NR   MIcro)
    9     dE    -2.079823e-08     1.629721e-06                           (NR   MIcro)
    9     dE    -2.080328e-08     2.884489e-06                           (NR   MIcro)
    9     dE    -2.084427e-08     7.748536e-06                           (NR   MIcro)
    9     dE    -2.089664e-08     1.008751e-05                           (NR   MIcro)
    9     dE    -2.102190e-08     1.354036e-05                           (NR   MIcro)
    9     dE    -2.120352e-08     1.178649e-05                           (NR   MIcro)
   10      -3217.506272381020     1.182430e-05                           (NR   MAcro)
WARNING : small    HOMO - LUMO gap : (op = alpha) 0.004935
   10     dE    -6.266234e-11     6.000333e-06                           (NR   MIcro)
   10     dE    -8.564553e-11     4.318514e-06                           (NR   MIcro)
   10     dE    -9.351758e-11     3.636774e-06                           (NR   MIcro)
   10     dE    -1.032820e-10     2.793270e-06                           (NR   MIcro)
   10     dE    -1.106272e-10     2.740026e-06                           (NR   MIcro)
   10     dE    -1.341169e-10     6.423791e-06                           (NR   MIcro)
   10     dE    -2.019446e-10     1.126536e-05                           (NR   MIcro)
   10     dE    -4.136126e-10     2.004541e-05                           (NR   MIcro)
   10     dE    -9.809966e-10     3.562449e-05                           (NR   MIcro)
   10     dE    -2.621977e-09     4.040174e-05                           (NR   MIcro)
   10     dE    -4.071053e-09     3.452542e-05                           (NR   MIcro)
   10     dE    -4.868822e-09     1.950773e-05                           (NR   MIcro)
   10     dE    -5.044611e-09     9.796658e-06                           (NR   MIcro)
   10     dE    -5.098645e-09     4.877337e-06                           (NR   MIcro)
   10     dE    -5.110398e-09     2.795849e-06                           (NR   MIcro)
   11      -3217.506272398056     5.221131e-05                           (NR   MAcro)
WARNING : small    HOMO - LUMO gap : (op = alpha) 0.004938
   11     dE    -1.455334e-09     2.745684e-05                           (NR   MIcro)
   11     dE    -1.834870e-09     2.400146e-05                           (NR   MIcro)
   11     dE    -2.131679e-09     1.604535e-05                           (NR   MIcro)
   11     dE    -2.255443e-09     1.064924e-05                           (NR   MIcro)
   11     dE    -2.325042e-09     6.549052e-06                           (NR   MIcro)
   11     dE    -2.377536e-09     8.354870e-06                           (NR   MIcro)
   11     dE    -2.536292e-09     1.622544e-05                           (NR   MIcro)
   11     dE    -2.738240e-09     2.175916e-05                           (NR   MIcro)
   11     dE    -3.590565e-09     3.619633e-05                           (NR   MIcro)
   11     dE    -6.155738e-09     5.145292e-05                           (NR   MIcro)
   11     dE    -9.149163e-09     6.068955e-05                           (NR   MIcro)
   11     dE    -1.206623e-08     2.489564e-05                           (NR   MIcro)
   11     dE    -1.236057e-08     1.413857e-05                           (NR   MIcro)
[...]
 300( 0) :     0.471316 a.u.    12.825 eV
 301( 0) :     0.475362 a.u.    12.935 eV
 302( 0) :     0.476221 a.u.    12.959 eV
 303( 0) :     0.478156 a.u.    13.011 eV
 304( 0) :     0.478924 a.u.    13.032 eV
 305( 0) :     0.479916 a.u.    13.059 eV
 306( 0) :     0.492031 a.u.    13.389 eV
 307( 0) :     0.493864 a.u.    13.439 eV
 308( 0) :     0.496608 a.u.    13.513 eV
 309( 0) :     0.497967 a.u.    13.550 eV
 310( 0) :     0.501292 a.u.    13.641 eV
 311( 0) :     0.504101 a.u.    13.717 eV
 312( 0) :     0.505415 a.u.    13.753 eV
 313( 0) :     0.515753 a.u.    14.034 eV
 314( 0) :     0.520936 a.u.    14.175 eV
 315( 0) :     0.521378 a.u.    14.187 eV
 316( 0) :     0.523180 a.u.    14.236 eV
 317( 0) :     0.524096 a.u.    14.261 eV
 318( 0) :     0.524317 a.u.    14.267 eV
 319( 0) :     0.524504 a.u.    14.272 eV
 320( 0) :     0.524991 a.u.    14.286 eV
 321( 0) :     0.526314 a.u.    14.322 eV
 322( 0) :     0.539482 a.u.    14.680 eV
 323( 0) :     0.541336 a.u.    14.730 eV
 324( 0) :     0.571638 a.u.    15.555 eV
 325( 0) :     0.572543 a.u.    15.580 eV
 326( 0) :     0.575777 a.u.    15.668 eV
 327( 0) :     0.583242 a.u.    15.871 eV
 328( 0) :     0.592072 a.u.    16.111 eV
 329( 0) :     0.596372 a.u.    16.228 eV
 330( 0) :     0.611077 a.u.    16.628 eV
 331( 0) :     0.612425 a.u.    16.665 eV
 332( 0) :     0.661469 a.u.    17.999 eV
 333( 0) :     0.663336 a.u.    18.050 eV
 334( 0) :     0.676450 a.u.    18.407 eV
 335( 0) :     0.681292 a.u.    18.539 eV
 336( 0) :     0.704054 a.u.    19.158 eV
 337( 0) :     0.706484 a.u.    19.224 eV
 338( 0) :     0.712055 a.u.    19.376 eV
 339( 0) :     0.713792 a.u.    19.423 eV
 340( 0) :     0.715137 a.u.    19.460 eV
 341( 0) :     0.718336 a.u.    19.547 eV
 342( 0) :     0.722504 a.u.    19.660 eV
 343( 0) :     0.729997 a.u.    19.864 eV
 344( 0) :     0.730675 a.u.    19.883 eV
 345( 0) :     0.734329 a.u.    19.982 eV
 346( 0) :     0.747458 a.u.    20.339 eV
 347( 0) :     0.778691 a.u.    21.189 eV
 348( 0) :     0.780873 a.u.    21.249 eV
 349( 0) :     0.782915 a.u.    21.304 eV
 350( 0) :     0.785232 a.u.    21.367 eV
 351( 0) :     0.800506 a.u.    21.783 eV
 352( 0) :     0.801387 a.u.    21.807 eV
 353( 0) :     0.839438 a.u.    22.842 eV
 354( 0) :     0.865733 a.u.    23.558 eV
 355( 0) :     0.867582 a.u.    23.608 eV
 356( 0) :     0.871929 a.u.    23.726 eV
 357( 0) :     0.874144 a.u.    23.787 eV
 358( 0) :     0.879857 a.u.    23.942 eV
 359( 0) :     0.886019 a.u.    24.110 eV
 360( 0) :     0.896376 a.u.    24.392 eV
 361( 0) :     0.897748 a.u.    24.429 eV
 362( 0) :     0.908203 a.u.    24.713 eV
 363( 0) :     0.913968 a.u.    24.870 eV
 364( 0) :     0.920526 a.u.    25.049 eV
 365( 0) :     0.931437 a.u.    25.346 eV
 366( 0) :     0.932058 a.u.    25.363 eV
 367( 0) :     0.954839 a.u.    25.982 eV
 368( 0) :     0.956106 a.u.    26.017 eV
 369( 0) :     0.962298 a.u.    26.185 eV
 370( 0) :     0.967588 a.u.    26.329 eV
 371( 0) :     0.985396 a.u.    26.814 eV
 372( 0) :     0.986795 a.u.    26.852 eV
 373( 0) :     0.991564 a.u.    26.982 eV
 374( 0) :     1.012766 a.u.    27.559 eV
 375( 0) :     1.020723 a.u.    27.775 eV
 376( 0) :     1.029451 a.u.    28.013 eV
 377( 0) :     1.032857 a.u.    28.105 eV
 378( 0) :     1.133719 a.u.    30.850 eV
 379( 0) :     1.157550 a.u.    31.499 eV
 380( 0) :     1.183596 a.u.    32.207 eV
 381( 0) :     1.186227 a.u.    32.279 eV
 382( 0) :     1.203743 a.u.    32.756 eV
 383( 0) :     1.229572 a.u.    33.458 eV
 384( 0) :     1.241067 a.u.    33.771 eV
 385( 0) :     1.242086 a.u.    33.799 eV
 386( 0) :     1.256969 a.u.    34.204 eV
 387( 0) :     1.261214 a.u.    34.319 eV
 388( 0) :     1.262725 a.u.    34.360 eV
 389( 0) :     1.277696 a.u.    34.768 eV
 390( 0) :     1.279951 a.u.    34.829 eV
 391( 0) :     1.294011 a.u.    35.212 eV
 392( 0) :     1.295746 a.u.    35.259 eV
 393( 0) :     1.297134 a.u.    35.297 eV
 394( 0) :     1.311700 a.u.    35.693 eV
 395( 0) :     1.312246 a.u.    35.708 eV
 396( 0) :     1.319043 a.u.    35.893 eV
 397( 0) :     1.323122 a.u.    36.004 eV
 398( 0) :     1.331303 a.u.    36.227 eV
 399( 0) :     1.344332 a.u.    36.581 eV
 400( 0) :     1.351246 a.u.    36.769 eV
 401( 0) :     1.354826 a.u.    36.867 eV
 402( 0) :     1.355422 a.u.    36.883 eV
 403( 0) :     1.357045 a.u.    36.927 eV
 404( 0) :     1.361719 a.u.    37.054 eV
 405( 0) :     1.364274 a.u.    37.124 eV
 406( 0) :     1.376380 a.u.    37.453 eV
 407( 0) :     1.382305 a.u.    37.614 eV
 408( 0) :     1.386808 a.u.    37.737 eV
 409( 0) :     1.389939 a.u.    37.822 eV
 410( 0) :     1.390976 a.u.    37.850 eV
 411( 0) :     1.392972 a.u.    37.905 eV
 412( 0) :     1.397977 a.u.    38.041 eV
 413( 0) :     1.400612 a.u.    38.113 eV
 414( 0) :     1.405642 a.u.    38.249 eV
 415( 0) :     1.407983 a.u.    38.313 eV
 416( 0) :     1.409850 a.u.    38.364 eV
 417( 0) :     1.411412 a.u.    38.406 eV
 418( 0) :     1.424870 a.u.    38.773 eV
 419( 0) :     1.427029 a.u.    38.831 eV
 420( 0) :     1.429499 a.u.    38.899 eV
 421( 0) :     1.433960 a.u.    39.020 eV
 422( 0) :     1.435284 a.u.    39.056 eV
 423( 0) :     1.441709 a.u.    39.231 eV
 424( 0) :     1.442201 a.u.    39.244 eV
 425( 0) :     1.444506 a.u.    39.307 eV
 426( 0) :     1.445183 a.u.    39.325 eV
 427( 0) :     1.448883 a.u.    39.426 eV
 428( 0) :     1.450809 a.u.    39.479 eV
 429( 0) :     1.451314 a.u.    39.492 eV
 430( 0) :     1.458515 a.u.    39.688 eV
 431( 0) :     1.460111 a.u.    39.732 eV
 432( 0) :     1.463752 a.u.    39.831 eV
 433( 0) :     1.463797 a.u.    39.832 eV
 434( 0) :     1.464827 a.u.    39.860 eV
 435( 0) :     1.473915 a.u.    40.107 eV
 436( 0) :     1.475668 a.u.    40.155 eV
 437( 0) :     1.477113 a.u.    40.194 eV
 438( 0) :     1.477225 a.u.    40.197 eV
 439( 0) :     1.477855 a.u.    40.214 eV
 440( 0) :     1.481860 a.u.    40.323 eV
 441( 0) :     1.483140 a.u.    40.358 eV
 442( 0) :     1.485372 a.u.    40.419 eV
 443( 0) :     1.487138 a.u.    40.467 eV
 444( 0) :     1.490170 a.u.    40.550 eV
 445( 0) :     1.490633 a.u.    40.562 eV
 446( 0) :     1.492997 a.u.    40.627 eV
 447( 0) :     1.494819 a.u.    40.676 eV
 448( 0) :     1.497524 a.u.    40.750 eV
 449( 0) :     1.498480 a.u.    40.776 eV
 450( 0) :     1.500375 a.u.    40.827 eV
 451( 0) :     1.500685 a.u.    40.836 eV
 452( 0) :     1.502434 a.u.    40.883 eV
 453( 0) :     1.503419 a.u.    40.910 eV
 454( 0) :     1.504264 a.u.    40.933 eV
 455( 0) :     1.504871 a.u.    40.950 eV
 456( 0) :     1.505546 a.u.    40.968 eV
 457( 0) :     1.505798 a.u.    40.975 eV
 458( 0) :     1.507636 a.u.    41.025 eV
 459( 0) :     1.508448 a.u.    41.047 eV
 460( 0) :     1.510364 a.u.    41.099 eV
 461( 0) :     1.511053 a.u.    41.118 eV
 462( 0) :     1.512201 a.u.    41.149 eV
 463( 0) :     1.512516 a.u.    41.158 eV
 464( 0) :     1.513317 a.u.    41.179 eV
 465( 0) :     1.513576 a.u.    41.186 eV
 466( 0) :     1.514514 a.u.    41.212 eV
 467( 0) :     1.515291 a.u.    41.233 eV
 468( 0) :     1.516040 a.u.    41.254 eV
 469( 0) :     1.519754 a.u.    41.355 eV
 470( 0) :     1.522002 a.u.    41.416 eV
 471( 0) :     1.522293 a.u.    41.424 eV
 472( 0) :     1.522664 a.u.    41.434 eV
 473( 0) :     1.525139 a.u.    41.501 eV
 474( 0) :     1.525986 a.u.    41.524 eV
 475( 0) :     1.528975 a.u.    41.606 eV
 476( 0) :     1.529142 a.u.    41.610 eV
 477( 0) :     1.529626 a.u.    41.623 eV
 478( 0) :     1.531457 a.u.    41.673 eV
 479( 0) :     1.532120 a.u.    41.691 eV
 480( 0) :     1.532966 a.u.    41.714 eV
 481( 0) :     1.535925 a.u.    41.795 eV
 482( 0) :     1.539394 a.u.    41.889 eV
 483( 0) :     1.540704 a.u.    41.925 eV
 484( 0) :     1.544651 a.u.    42.032 eV
 485( 0) :     1.544958 a.u.    42.040 eV
 486( 0) :     1.548608 a.u.    42.140 eV
 487( 0) :     1.551983 a.u.    42.232 eV
 488( 0) :     1.560177 a.u.    42.455 eV
 489( 0) :     1.561581 a.u.    42.493 eV
 490( 0) :     1.564214 a.u.    42.564 eV
 491( 0) :     1.567619 a.u.    42.657 eV
 492( 0) :     1.568891 a.u.    42.692 eV
 493( 0) :     1.569323 a.u.    42.703 eV
 494( 0) :     1.569626 a.u.    42.712 eV
 495( 0) :     1.570421 a.u.    42.733 eV
 496( 0) :     1.571169 a.u.    42.754 eV
 497( 0) :     1.572300 a.u.    42.784 eV
 498( 0) :     1.577117 a.u.    42.916 eV
 499( 0) :     1.577970 a.u.    42.939 eV
 500( 0) :     1.580404 a.u.    43.005 eV
 501( 0) :     1.580849 a.u.    43.017 eV
 502( 0) :     1.582255 a.u.    43.055 eV
 503( 0) :     1.587455 a.u.    43.197 eV
 504( 0) :     1.588194 a.u.    43.217 eV
 505( 0) :     1.589369 a.u.    43.249 eV
 506( 0) :     1.590031 a.u.    43.267 eV
 507( 0) :     1.595091 a.u.    43.405 eV
 508( 0) :     1.596171 a.u.    43.434 eV
 509( 0) :     1.597176 a.u.    43.461 eV
 510( 0) :     1.597427 a.u.    43.468 eV
 511( 0) :     1.599293 a.u.    43.519 eV
 512( 0) :     1.605083 a.u.    43.677 eV
 513( 0) :     1.605954 a.u.    43.700 eV
 514( 0) :     1.606526 a.u.    43.716 eV
 515( 0) :     1.607578 a.u.    43.744 eV
 516( 0) :     1.610528 a.u.    43.825 eV
 517( 0) :     1.620774 a.u.    44.104 eV
 518( 0) :     1.621194 a.u.    44.115 eV
 519( 0) :     1.623062 a.u.    44.166 eV
 520( 0) :     1.624619 a.u.    44.208 eV
 521( 0) :     1.626815 a.u.    44.268 eV
 522( 0) :     1.629408 a.u.    44.338 eV
 523( 0) :     1.633034 a.u.    44.437 eV
 524( 0) :     1.633107 a.u.    44.439 eV
 525( 0) :     1.635205 a.u.    44.496 eV
 526( 0) :     1.638168 a.u.    44.577 eV
 527( 0) :     1.647262 a.u.    44.824 eV
 528( 0) :     1.649611 a.u.    44.888 eV
 529( 0) :     1.656267 a.u.    45.069 eV
 530( 0) :     1.670249 a.u.    45.450 eV
 531( 0) :     1.684958 a.u.    45.850 eV
 532( 0) :     1.686034 a.u.    45.879 eV
 533( 0) :     1.687431 a.u.    45.917 eV
 534( 0) :     1.695979 a.u.    46.150 eV
 535( 0) :     1.702670 a.u.    46.332 eV
 536( 0) :     1.703675 a.u.    46.359 eV
 537( 0) :     1.709588 a.u.    46.520 eV
 538( 0) :     1.717229 a.u.    46.728 eV
 539( 0) :     1.723379 a.u.    46.896 eV
 540( 0) :     1.732658 a.u.    47.148 eV
 541( 0) :     1.734537 a.u.    47.199 eV
 542( 0) :     1.740833 a.u.    47.370 eV
 543( 0) :     1.753692 a.u.    47.720 eV
 544( 0) :     1.754280 a.u.    47.736 eV
 545( 0) :     1.761134 a.u.    47.923 eV
 546( 0) :     1.761634 a.u.    47.936 eV
 547( 0) :     1.762302 a.u.    47.955 eV
 548( 0) :     1.769507 a.u.    48.151 eV
 549( 0) :     1.793451 a.u.    48.802 eV
 550( 0) :     1.794851 a.u.    48.840 eV
 551( 0) :     1.795046 a.u.    48.846 eV
 552( 0) :     1.799012 a.u.    48.954 eV
 553( 0) :     1.801580 a.u.    49.023 eV
 554( 0) :     1.804143 a.u.    49.093 eV
 555( 0) :     1.804864 a.u.    49.113 eV
 556( 0) :     1.808068 a.u.    49.200 eV
 557( 0) :     1.817742 a.u.    49.463 eV
 558( 0) :     1.820812 a.u.    49.547 eV
 559( 0) :     1.837899 a.u.    50.012 eV
 560( 0) :     1.838913 a.u.    50.039 eV
 561( 0) :     1.842801 a.u.    50.145 eV
 562( 0) :     1.843855 a.u.    50.174 eV
 563( 0) :     1.845331 a.u.    50.214 eV
 564( 0) :     1.847080 a.u.    50.262 eV
 565( 0) :     1.869480 a.u.    50.871 eV
 566( 0) :     1.883266 a.u.    51.246 eV
 567( 0) :     1.890751 a.u.    51.450 eV
 568( 0) :     1.893808 a.u.    51.533 eV
 569( 0) :     1.900233 a.u.    51.708 eV
 570( 0) :     1.903834 a.u.    51.806 eV
 571( 0) :     1.904593 a.u.    51.827 eV
 572( 0) :     1.928093 a.u.    52.466 eV
 573( 0) :     1.948138 a.u.    53.012 eV
 574( 0) :     2.160600 a.u.    58.793 eV
 575( 0) :     2.264035 a.u.    61.608 eV
 576( 0) :     2.272194 a.u.    61.830 eV
 577( 0) :     2.286028 a.u.    62.206 eV
 578( 0) :     2.332282 a.u.    63.465 eV
 579( 0) :     2.358145 a.u.    64.168 eV
 580( 0) :     2.358380 a.u.    64.175 eV
 581( 0) :     2.403606 a.u.    65.405 eV
 582( 0) :     2.411158 a.u.    65.611 eV
 583( 0) :     2.430632 a.u.    66.141 eV
 584( 0) :     2.434445 a.u.    66.245 eV
 585( 0) :     2.449592 a.u.    66.657 eV
 586( 0) :     2.480970 a.u.    67.511 eV
 587( 0) :     2.489298 a.u.    67.737 eV
 588( 0) :     2.514697 a.u.    68.428 eV
 589( 0) :     2.526031 a.u.    68.737 eV
 590( 0) :     2.530686 a.u.    68.863 eV
 591( 0) :     2.532013 a.u.    68.900 eV
 592( 0) :     2.538915 a.u.    69.087 eV
 593( 0) :     2.546957 a.u.    69.306 eV
 594( 0) :     2.553897 a.u.    69.495 eV
 595( 0) :     2.566695 a.u.    69.843 eV
 596( 0) :     2.588860 a.u.    70.446 eV
 597( 0) :     2.844855 a.u.    77.412 eV
 598( 0) :     2.845587 a.u.    77.432 eV
 599( 0) :     2.846899 a.u.    77.468 eV
 600( 0) :     2.861545 a.u.    77.867 eV
 601( 0) :     2.868140 a.u.    78.046 eV
 602( 0) :     2.868594 a.u.    78.058 eV
 603( 0) :     2.879797 a.u.    78.363 eV
 604( 0) :     2.934811 a.u.    79.860 eV
 605( 0) :    24.012612 a.u.   653.416 eV
 606( 0) :    24.450899 a.u.   665.343 eV
 607( 0) :    24.477295 a.u.   666.061 eV
 608( 0) :    24.551778 a.u.   668.088 eV
 609( 0) :    24.577118 a.u.   668.777 eV
 610( 0) :    24.772184 a.u.   674.085 eV
 611( 0) :    24.791700 a.u.   674.616 eV
 612( 0) :    24.821066 a.u.   675.416 eV
 613( 0) :    24.980941 a.u.   679.766 eV
 614( 0) :    25.093713 a.u.   682.835 eV
 615( 0) :    25.167465 a.u.   684.842 eV
 616( 0) :    25.224130 a.u.   686.383 eV
 617( 0) :    25.401231 a.u.   691.203 eV
 618( 0) :    25.425604 a.u.   691.866 eV
 619( 0) :    25.486739 a.u.   693.529 eV
 620( 0) :    25.518223 a.u.   694.386 eV
 621( 0) :    25.701286 a.u.   699.368 eV
 622( 0) :    25.728818 a.u.   700.117 eV
 623( 0) :    26.001691 a.u.   707.542 eV
 624( 0) :    26.020040 a.u.   708.041 eV
 625( 0) :    26.111746 a.u.   710.537 eV
 626( 0) :    26.136663 a.u.   711.215 eV
 627( 0) :    26.147692 a.u.   711.515 eV
 628( 0) :    26.281805 a.u.   715.164 eV
 629( 0) :    26.299573 a.u.   715.648 eV
 630( 0) :    26.310855 a.u.   715.955 eV
 631( 0) :    26.340456 a.u.   716.760 eV
 632( 0) :    26.651381 a.u.   725.221 eV
 633( 0) :    26.677669 a.u.   725.936 eV
 634( 0) :    26.795648 a.u.   729.147 eV
 635( 0) :    26.934450 a.u.   732.924 eV
 636( 0) :    26.947610 a.u.   733.282 eV
 637( 0) :    27.044501 a.u.   735.918 eV
 638( 0) :    27.099475 a.u.   737.414 eV
 639( 0) :    27.147822 a.u.   738.730 eV
 640( 0) :    27.156698 a.u.   738.971 eV
 641( 0) :    27.162789 a.u.   739.137 eV
 642( 0) :    27.215833 a.u.   740.580 eV
 643( 0) :    27.405775 a.u.   745.749 eV
 644( 0) :    27.743943 a.u.   754.951 eV
 645( 0) :    28.106681 a.u.   764.822 eV
 646( 0) :    28.133249 a.u.   765.545 eV
 647( 0) :    28.144923 a.u.   765.862 eV
 648( 0) :    28.235455 a.u.   768.326 eV
 649( 0) :    28.257050 a.u.   768.913 eV
 650( 0) :    29.109016 a.u.   792.097 eV
 651( 0) :    29.472618 a.u.   801.991 eV
 652( 0) :    30.878586 a.u.   840.249 eV
 653( 0) :    43.896068 a.u.  1194.473 eV
 654( 0) :    44.006607 a.u.  1197.481 eV
 655( 0) :    44.072226 a.u.  1199.266 eV
 656( 0) :    44.073922 a.u.  1199.312 eV
 657( 0) :    44.115661 a.u.  1200.448 eV
 658( 0) :    44.118678 a.u.  1200.530 eV
 659( 0) :    44.146154 a.u.  1201.278 eV
 660( 0) :    44.148544 a.u.  1201.343 eV
 661( 0) :    44.160746 a.u.  1201.675 eV
 662( 0) :    44.180536 a.u.  1202.214 eV
 663( 0) :    44.187709 a.u.  1202.409 eV
 664( 0) :    44.191018 a.u.  1202.499 eV
 665( 0) :    44.205753 a.u.  1202.900 eV
 666( 0) :    44.219715 a.u.  1203.280 eV
 667( 0) :    44.246967 a.u.  1204.021 eV
 668( 0) :    44.257875 a.u.  1204.318 eV
 669( 0) :   205.086769 a.u.  5580.695 eV
 670( 0) :   205.127891 a.u.  5581.814 eV
 671( 0) :   205.155082 a.u.  5582.554 eV
 672( 0) :   205.155563 a.u.  5582.567 eV
 673( 0) :   205.175817 a.u.  5583.118 eV
 674( 0) :   205.177200 a.u.  5583.155 eV
 675( 0) :   205.191511 a.u.  5583.545 eV
 676( 0) :   205.192362 a.u.  5583.568 eV
 677( 0) :   205.202369 a.u.  5583.840 eV
 678( 0) :   205.206703 a.u.  5583.958 eV
 679( 0) :   205.209188 a.u.  5584.026 eV
 680( 0) :   205.212085 a.u.  5584.105 eV
 681( 0) :   205.214583 a.u.  5584.173 eV
 682( 0) :   205.217951 a.u.  5584.264 eV
 683( 0) :   205.230639 a.u.  5584.610 eV
 684( 0) :   205.234882 a.u.  5584.725 eV
-------
TIMINGS
-------

Total SCF time: 0 days 0 hours 9 min 15 sec 

Total time                  ....     555.180 sec
Sum of individual times     ....     543.723 sec  ( 97.9%)

Fock matrix formation       ....     533.071 sec  ( 96.0%)
  Split-RI-J                ....     184.668 sec  ( 34.6% of F)
  XC integration            ....     335.096 sec  ( 62.9% of F)
    Basis function eval.    ....      42.109 sec  ( 12.6% of XC)
    Density eval.           ....     147.395 sec  ( 44.0% of XC)
    XC-Functional eval.     ....       7.812 sec  (  2.3% of XC)
    XC-Potential eval.      ....     114.557 sec  ( 34.2% of XC)
Diagonalization             ....       3.416 sec  (  0.6%)
Density matrix formation    ....       0.794 sec  (  0.1%)
Population analysis         ....       1.363 sec  (  0.2%)
Initial guess               ....       0.277 sec  (  0.0%)
Orbital Transformation      ....       1.106 sec  (  0.2%)
Orbital Orthonormalization  ....       0.232 sec  (  0.0%)
DIIS solution               ....       0.000 sec  (  0.0%)
Grid generation             ....       3.693 sec  (  0.7%)

Maximum memory used throughout the entire SCF-calculation: 756.6 MB

-------------------------   --------------------
FINAL SINGLE POINT ENERGY     -3217.517650606939
-------------------------   --------------------

                                *** OPTIMIZATION RUN DONE ***

                            ***************************************
                            *     ORCA property calculations      *
                            ***************************************

                                    ---------------------
                                    Active property flags
                                    ---------------------
   (+) Dipole Moment


------------------------------------------------------------------------------
                       ORCA ELECTRIC PROPERTIES CALCULATION
------------------------------------------------------------------------------

Dipole Moment Calculation                       ... on
Quadrupole Moment Calculation                   ... off
Polarizability Calculation                      ... off
GBWName                                         ... pbe.gbw
Electron density                                ... pbe.scfp
The origin for moment calculation is the CENTER OF MASS  = (15.909268, 15.348384 14.892099)

-------------
DIPOLE MOMENT
-------------
                                X             Y             Z
Electronic contribution:     -3.15146      20.92140      30.83291
Nuclear contribution   :      3.24916     -21.25161     -31.53207
                        -----------------------------------------
Total Dipole Moment    :      0.09770      -0.33021      -0.69916
                        -----------------------------------------
Magnitude (a.u.)       :      0.77937
Magnitude (Debye)      :      1.98099



--------------------
Rotational spectrum 
--------------------
 
Rotational constants in cm-1:     0.000929     0.000766     0.000763 
Rotational constants in MHz :    27.840366    22.968478    22.886918 

 Dipole components along the rotational axes: 
x,y,z [a.u.] :    -0.772890     0.003907    -0.100189 
x,y,z [Debye]:    -1.964531     0.009930    -0.254661 

 

Timings for individual modules:

Sum of individual times         ...    35404.103 sec (= 590.068 min)
GTO integral calculation        ...      347.549 sec (=   5.792 min)   1.0 %
SCF iterations                  ...    31734.410 sec (= 528.907 min)  89.6 %
SCF Gradient evaluation         ...     3319.585 sec (=  55.326 min)   9.4 %
Geometry relaxation             ...        2.560 sec (=   0.043 min)   0.0 %
                             ****ORCA TERMINATED NORMALLY****
TOTAL RUN TIME: 0 days 9 hours 50 minutes 8 seconds 28 msec
