
                                 *****************
                                 * O   R   C   A *
                                 *****************

                                            #,                                       
                                            ###                                      
                                            ####                                     
                                            #####                                    
                                            ######                                   
                                           ########,                                 
                                     ,,################,,,,,                         
                               ,,#################################,,                 
                          ,,##########################################,,             
                       ,#########################################, ''#####,          
                    ,#############################################,,   '####,        
                  ,##################################################,,,,####,       
                ,###########''''           ''''###############################       
              ,#####''   ,,,,##########,,,,          '''####'''          '####       
            ,##' ,,,,###########################,,,                        '##       
           ' ,,###''''                  '''############,,,                           
         ,,##''                                '''############,,,,        ,,,,,,###''
      ,#''                                            '''#######################'''  
     '                                                          ''''####''''         
             ,#######,   #######,   ,#######,      ##                                
            ,#'     '#,  ##    ##  ,#'     '#,    #''#        ######   ,####,        
            ##       ##  ##   ,#'  ##            #'  '#       #        #'  '#        
            ##       ##  #######   ##           ,######,      #####,   #    #        
            '#,     ,#'  ##    ##  '#,     ,#' ,#      #,         ##   #,  ,#        
             '#######'   ##     ##  '#######'  #'      '#     #####' # '####'        



                  #######################################################
                  #                        -***-                        #
                  #          Department of theory and spectroscopy      #
                  #    Directorship and core code : Frank Neese         #
                  #        Max Planck Institute fuer Kohlenforschung    #
                  #                Kaiser Wilhelm Platz 1               #
                  #                 D-45470 Muelheim/Ruhr               #
                  #                      Germany                        #
                  #                                                     #
                  #                  All rights reserved                #
                  #                        -***-                        #
                  #######################################################


                         Program Version 5.0.3 -  RELEASE  -


 With contributions from (in alphabetic order):
   Daniel Aravena         : Magnetic Suceptibility
   Michael Atanasov       : Ab Initio Ligand Field Theory (pilot matlab implementation)
   Alexander A. Auer      : GIAO ZORA, VPT2 properties, NMR spectrum
   Ute Becker             : Parallelization
   Giovanni Bistoni       : ED, misc. LED, open-shell LED, HFLD
   Martin Brehm           : Molecular dynamics
   Dmytro Bykov           : SCF Hessian
   Vijay G. Chilkuri      : MRCI spin determinant printing, contributions to CSF-ICE
   Dipayan Datta          : RHF DLPNO-CCSD density
   Achintya Kumar Dutta   : EOM-CC, STEOM-CC
   Dmitry Ganyushin       : Spin-Orbit,Spin-Spin,Magnetic field MRCI
   Miquel Garcia          : C-PCM and meta-GGA Hessian, CC/C-PCM, Gaussian charge scheme
   Yang Guo               : DLPNO-NEVPT2, F12-NEVPT2, CIM, IAO-localization
   Andreas Hansen         : Spin unrestricted coupled pair/coupled cluster methods
   Benjamin Helmich-Paris : MC-RPA, TRAH-SCF, COSX integrals
   Lee Huntington         : MR-EOM, pCC
   Robert Izsak           : Overlap fitted RIJCOSX, COSX-SCS-MP3, EOM
   Marcus Kettner         : VPT2
   Christian Kollmar      : KDIIS, OOCD, Brueckner-CCSD(T), CCSD density, CASPT2, CASPT2-K
   Simone Kossmann        : Meta GGA functionals, TD-DFT gradient, OOMP2, MP2 Hessian
   Martin Krupicka        : Initial AUTO-CI
   Lucas Lang             : DCDCAS
   Marvin Lechner         : AUTO-CI (C++ implementation), FIC-MRCC
   Dagmar Lenk            : GEPOL surface, SMD
   Dimitrios Liakos       : Extrapolation schemes; Compound Job, initial MDCI parallelization
   Dimitrios Manganas     : Further ROCIS development; embedding schemes
   Dimitrios Pantazis     : SARC Basis sets
   Anastasios Papadopoulos: AUTO-CI, single reference methods and gradients
   Taras Petrenko         : DFT Hessian,TD-DFT gradient, ASA, ECA, R-Raman, ABS, FL, XAS/XES, NRVS
   Peter Pinski           : DLPNO-MP2, DLPNO-MP2 Gradient
   Christoph Reimann      : Effective Core Potentials
   Marius Retegan         : Local ZFS, SOC
   Christoph Riplinger    : Optimizer, TS searches, QM/MM, DLPNO-CCSD(T), (RO)-DLPNO pert. Triples
   Tobias Risthaus        : Range-separated hybrids, TD-DFT gradient, RPA, STAB
   Michael Roemelt        : Original ROCIS implementation
   Masaaki Saitow         : Open-shell DLPNO-CCSD energy and density
   Barbara Sandhoefer     : DKH picture change effects
   Avijit Sen             : IP-ROCIS
   Kantharuban Sivalingam : CASSCF convergence, NEVPT2, FIC-MRCI
   Bernardo de Souza      : ESD, SOC TD-DFT
   Georgi Stoychev        : AutoAux, RI-MP2 NMR, DLPNO-MP2 response
   Willem Van den Heuvel  : Paramagnetic NMR
   Boris Wezisla          : Elementary symmetry handling
   Frank Wennmohs         : Technical directorship


 We gratefully acknowledge several colleagues who have allowed us to
 interface, adapt or use parts of their codes:
   Stefan Grimme, W. Hujo, H. Kruse, P. Pracht,  : VdW corrections, initial TS optimization,
                  C. Bannwarth, S. Ehlert          DFT functionals, gCP, sTDA/sTD-DF
   Ed Valeev, F. Pavosevic, A. Kumar             : LibInt (2-el integral package), F12 methods
   Garnet Chan, S. Sharma, J. Yang, R. Olivares  : DMRG
   Ulf Ekstrom                                   : XCFun DFT Library
   Mihaly Kallay                                 : mrcc  (arbitrary order and MRCC methods)
   Jiri Pittner, Ondrej Demel                    : Mk-CCSD
   Frank Weinhold                                : gennbo (NPA and NBO analysis)
   Christopher J. Cramer and Donald G. Truhlar   : smd solvation model
   Lars Goerigk                                  : TD-DFT with DH, B97 family of functionals
   V. Asgeirsson, H. Jonsson                     : NEB implementation
   FAccTs GmbH                                   : IRC, NEB, NEB-TS, DLPNO-Multilevel, CI-OPT
                                                   MM, QMMM, 2- and 3-layer-ONIOM, Crystal-QMMM,
                                                   LR-CPCM, SF, NACMEs, symmetry and pop. for TD-DFT,
                                                   nearIR, NL-DFT gradient (VV10), updates on ESD,
                                                   ML-optimized integration grids
   S Lehtola, MJT Oliveira, MAL Marques          : LibXC Library
   Liviu Ungur et al                             : ANISO software


 Your calculation uses the libint2 library for the computation of 2-el integrals
 For citations please refer to: http://libint.valeyev.net

 Your ORCA version has been built with support for libXC version: 5.1.0
 For citations please refer to: https://tddft.org/programs/libxc/

 This ORCA versions uses:
   CBLAS   interface :  Fast vector & matrix operations
   LAPACKE interface :  Fast linear algebra routines
   SCALAPACK package :  Parallel linear algebra routines
   Shared memory     :  Shared parallel matrices
   BLAS/LAPACK       :  OpenBLAS 0.3.15  USE64BITINT DYNAMIC_ARCH NO_AFFINITY Sandybridge SINGLE_THREADED
        Core in use  :  Sandybridge
   Copyright (c) 2011-2014, The OpenBLAS Project




***************************************
The coordinates will be read from file: pbe.xyz
***************************************


================================================================================

cite the ECPs for Au [Def2-ECP] as follows:
Ce-Yb(ecp-28): M. Dolg, H. Stoll, H.Preuss, J. Chem. Phys., 1989, 90, 1730-1734.
Y-Cd(ecp-28), Hf-Hg(ecp-46): D. Andrae,U. Haeussermann, M. Dolg, H. Stoll, H. Preuss, Theor. Chim. Acta, 1990, 77, 123-141.
In-Sb(ecp-28), Tl-Bi(ecp-46): B. Metz, H. Stoll, M. Dolg, J. Chem. Phys., 2000, 113, 2563-2569.
Te-Xe(ecp-28), Po-Rn(ecp-46): K. A. Peterson, D. Figgen, E. Goll, H. Stoll, M. Dolg, J. Chem. Phys., 2003, 119, 11113-11123.
Rb(ecp-28), Cs(ecp-46): T. Leininger, A. Nicklass, W. Kuechle, H. Stoll, M. Dolg, A. Bergner, Chem. Phys. Lett., 1996, 255, 274-280.
Sr(ecp-28), Ba(ecp-46): M. Kaupp, P. V. Schleyer, H. Stoll and H. Preuss, J. Chem. Phys., 1991, 94, 1360-1366.
La(ecp-46): M. Dolg, H. Stoll, A. Savin, H. Preuss, Theor. Chim. Acta, 1989, 75, 173-194.
Lu(ecp-28): X. Cao, M. Dolg, J. Chem. Phys., 2001, 115, 7348-7355.

ECP parameters for Au [Def2-ECP] have been obtained from:
TURBOMOLE (7.0.2)

----- Orbital basis set information -----
Your calculation utilizes the basis: def2-TZVP
   F. Weigend and R. Ahlrichs, Phys. Chem. Chem. Phys. 7, 3297 (2005).

----- AuxJ basis set information -----
Your calculation utilizes the auxiliary basis: def2/J
   F. Weigend, Phys. Chem. Chem. Phys. 8, 1057 (2006).

----- AuxC basis set information -----
Your calculation utilizes the auxiliary basis: def2-TZVP/C
  H-La, Hf-Rn : A. Hellweg, C. Hattig, S. Hofener and W. Klopper, Theor. Chem. Acc. 117, 587 (2007).
        Ce-Lu : J. Chmela and M. E. Harding, Mol. Phys. (2018).

================================================================================
                                        WARNINGS
                       Please study these warnings very carefully!
================================================================================


INFO   : the flag for use of the SHARK integral package has been found!

================================================================================
                                       INPUT FILE
================================================================================
NAME = casscf.inp
|  1> !CASSCF def2-TZVP def2-TZVP/C
|  2> !MOREAD RIJCOSX
|  3> %maxcore 6000
|  4> %moinp "pbe.qro"
|  5> %pal nprocs 16 end 
|  6> 
|  7> %casscf
|  8>  mult 6,4
|  9>  bweight 1,1
| 10>  nroots 1,24
| 11>  nel 5
| 12>  norb 5
| 13> end
| 14> 
| 15> 
| 16> *xyzfile 0 6 pbe.xyz
| 17> 
| 18> 
| 19>                          ****END OF INPUT****
================================================================================

                       ****************************
                       * Single Point Calculation *
                       ****************************

---------------------------------
CARTESIAN COORDINATES (ANGSTROEM)
---------------------------------
  Au     7.908891   10.065262    9.161958
  Au    12.266237    8.369350    7.299101
  Au     9.487389    8.197333   10.396562
  Au    10.754691    6.497303    8.640006
  Au    10.418007    6.883614    5.802061
  Au    10.766519   10.244288    5.980624
  Au     7.877911    6.731080    8.629803
  Au     6.227380    9.198150    4.722500
  Au     6.146418    8.692319    7.464425
  Au     8.023547   10.575640    6.412902
  Au     8.969132    8.863856    4.325148
  Au     7.678401    6.991274    5.905495
  Mn     9.446037    8.591673    7.580658

----------------------------
CARTESIAN COORDINATES (A.U.)
----------------------------
  NO LB      ZA    FRAG     MASS         X           Y           Z
   0 Au   19.0000*   0   196.966   14.945638   19.020589   17.313591
   1 Au   19.0000*   0   196.966   23.179828   15.815780   13.793301
   2 Au   19.0000*   0   196.966   17.928568   15.490714   19.646654
   3 Au   19.0000*   0   196.966   20.323421   12.278124   16.327245
   4 Au   19.0000*   0   196.966   19.687180   13.008145   10.964307
   5 Au   19.0000*   0   196.966   20.345772   19.358899   11.301742
   6 Au   19.0000*   0   196.966   14.887095   12.719898   16.307965
   7 Au   19.0000*   0   196.966   11.768042   17.381985    8.924232
   8 Au   19.0000*   0   196.966   11.615047   16.426103   14.105720
   9 Au   19.0000*   0   196.966   15.162307   19.985064   12.118628
  10 Au   19.0000*   0   196.966   16.949202   16.750260    8.173345
  11 Au   19.0000*   0   196.966   14.510074   13.211592   11.159769
  12 Mn   25.0000    0    54.940   17.850423   16.235909   14.325367
* core charge reduced due to ECP

--------------------------------
INTERNAL COORDINATES (ANGSTROEM)
--------------------------------
 Au     0   0   0     0.000000000000     0.00000000     0.00000000
 Au     1   0   0     5.033171378675     0.00000000     0.00000000
 Au     1   2   0     2.739536997300    55.82162721     0.00000000
 Au     3   1   2     2.753478273541   113.49546180   324.62562362
 Au     2   1   3     2.804370504588    78.78620419   100.63992772
 Au     2   1   3     2.739147208062    58.23197181   180.08468336
 Au     3   1   2     2.803881571710    75.03959707   274.12529317
 Au     6   2   1     4.825045435447   119.48342171   301.41397587
 Au     8   6   2     2.789367997582    79.06524611    55.17960379
 Au     6   2   1     2.796524733221   122.93773220   337.66947707
 Au     8   6   2     2.790491741112    30.54721268   286.75536880
 Au     5   2   1     2.743671256375   128.10929541     1.35371591
 Mn     7   3   1     2.649817247651    62.78054982    59.63518915

---------------------------
INTERNAL COORDINATES (A.U.)
---------------------------
 Au     0   0   0     0.000000000000     0.00000000     0.00000000
 Au     1   0   0     9.511315490787     0.00000000     0.00000000
 Au     1   2   0     5.176974658641    55.82162721     0.00000000
 Au     3   1   2     5.203319852694   113.49546180   324.62562362
 Au     2   1   3     5.299492231718    78.78620419   100.63992772
 Au     2   1   3     5.176238063733    58.23197181   180.08468336
 Au     3   1   2     5.298568282481    75.03959707   274.12529317
 Au     6   2   1     9.118014456721   119.48342171   301.41397587
 Au     8   6   2     5.271141602155    79.06524611    55.17960379
 Au     6   2   1     5.284665872524   122.93773220   337.66947707
 Au     8   6   2     5.273265169671    30.54721268   286.75536880
 Au     5   2   1     5.184787276060   128.10929541     1.35371591
 Mn     7   3   1     5.007428903001    62.78054982    59.63518915

---------------------
BASIS SET INFORMATION
---------------------
There are 2 groups of distinct atoms

 Group   1 Type Au  : 8s7p6d1f contracted to 6s4p3d1f pattern {311111/4111/411/1}
 Group   2 Type Mn  : 17s11p7d1f contracted to 6s4p4d1f pattern {842111/6311/4111/1}

Atom   0Au   basis set group =>   1
Atom   1Au   basis set group =>   1
Atom   2Au   basis set group =>   1
Atom   3Au   basis set group =>   1
Atom   4Au   basis set group =>   1
Atom   5Au   basis set group =>   1
Atom   6Au   basis set group =>   1
Atom   7Au   basis set group =>   1
Atom   8Au   basis set group =>   1
Atom   9Au   basis set group =>   1
Atom  10Au   basis set group =>   1
Atom  11Au   basis set group =>   1
Atom  12Mn   basis set group =>   2
---------------------------------
AUXILIARY/J BASIS SET INFORMATION
---------------------------------
There are 2 groups of distinct atoms

 Group   1 Type Au  : 11s5p5d3f3g contracted to 8s5p5d2f3g pattern {41111111/11111/11111/21/111}
 Group   2 Type Mn  : 19s5p5d3f3g contracted to 8s5p5d2f3g pattern {121111111/11111/11111/21/111}

Atom   0Au   basis set group =>   1
Atom   1Au   basis set group =>   1
Atom   2Au   basis set group =>   1
Atom   3Au   basis set group =>   1
Atom   4Au   basis set group =>   1
Atom   5Au   basis set group =>   1
Atom   6Au   basis set group =>   1
Atom   7Au   basis set group =>   1
Atom   8Au   basis set group =>   1
Atom   9Au   basis set group =>   1
Atom  10Au   basis set group =>   1
Atom  11Au   basis set group =>   1
Atom  12Mn   basis set group =>   2
---------------------------------
AUXILIARY/C BASIS SET INFORMATION
---------------------------------
There are 2 groups of distinct atoms

 Group   1 Type Au  : 8s8p7d5f3g2h contracted to 8s8p7d5f3g2h pattern {11111111/11111111/1111111/11111/111/11}
 Group   2 Type Mn  : 11s9p8d6f5g2h contracted to 9s8p8d6f5g2h pattern {311111111/21111111/11111111/111111/11111/11}

Atom   0Au   basis set group =>   1
Atom   1Au   basis set group =>   1
Atom   2Au   basis set group =>   1
Atom   3Au   basis set group =>   1
Atom   4Au   basis set group =>   1
Atom   5Au   basis set group =>   1
Atom   6Au   basis set group =>   1
Atom   7Au   basis set group =>   1
Atom   8Au   basis set group =>   1
Atom   9Au   basis set group =>   1
Atom  10Au   basis set group =>   1
Atom  11Au   basis set group =>   1
Atom  12Mn   basis set group =>   2
-------------------------
ECP PARAMETER INFORMATION
-------------------------

 Group 1, Type Au ECP Def2-ECP (replacing 60 core electrons, lmax=3)

Atom   0Au   ECP group =>   1
Atom   1Au   ECP group =>   1
Atom   2Au   ECP group =>   1
Atom   3Au   ECP group =>   1
Atom   4Au   ECP group =>   1
Atom   5Au   ECP group =>   1
Atom   6Au   ECP group =>   1
Atom   7Au   ECP group =>   1
Atom   8Au   ECP group =>   1
Atom   9Au   ECP group =>   1
Atom  10Au   ECP group =>   1
Atom  11Au   ECP group =>   1



           ************************************************************
           *        Program running with 16 parallel MPI-processes    *
           *              working on a common directory               *
           ************************************************************
------------------------------------------------------------------------------
                           ORCA GTO INTEGRAL CALCULATION
                           -- RI-GTO INTEGRALS CHOSEN --
------------------------------------------------------------------------------
------------------------------------------------------------------------------
                   ___                                                        
                  /   \      - P O W E R E D   B Y -                         
                 /     \                                                     
                 |  |  |   _    _      __       _____    __    __             
                 |  |  |  | |  | |    /  \     |  _  \  |  |  /  |          
                  \  \/   | |  | |   /    \    | | | |  |  | /  /          
                 / \  \   | |__| |  /  /\  \   | |_| |  |  |/  /          
                |  |  |   |  __  | /  /__\  \  |    /   |      \           
                |  |  |   | |  | | |   __   |  |    \   |  |\   \          
                \     /   | |  | | |  |  |  |  | |\  \  |  | \   \       
                 \___/    |_|  |_| |__|  |__|  |_| \__\ |__|  \__/        
                                                                              
                      - O R C A' S   B I G   F R I E N D -                    
                                      &                                       
                       - I N T E G R A L  F E E D E R -                       
                                                                              
 v1 FN, 2020, v2 2021                                                         
------------------------------------------------------------------------------


Reading SHARK input file casscf.SHARKINP.tmp ... ok
----------------------
SHARK INTEGRAL PACKAGE
----------------------

Number of atoms                             ...     13
Number of basis functions                   ...    525
Number of shells                            ...    183
Maximum angular momentum                    ...      3
Integral batch strategy                     ... SHARK/LIBINT Hybrid
RI-J (if used) integral strategy            ... SPLIT-RIJ (Revised 2003 algorithm where possible)
Printlevel                                  ...      1
Contraction scheme used                     ... SEGMENTED contraction
Coulomb Range Separation                    ... NOT USED
Exchange Range Separation                   ... NOT USED
Finite Nucleus Model                        ... NOT USED
Auxiliary Coulomb fitting basis             ... AVAILABLE
   # of basis functions in Aux-J            ...   1157
   # of shells in Aux-J                     ...    299
   Maximum angular momentum in Aux-J        ...      4
Auxiliary J/K fitting basis                 ... NOT available
Auxiliary Correlation fitting basis         ... AVAILABLE
   # of basis functions in Aux-C            ...   1994
   # of shells in Aux-C                     ...    434
   Maximum angular momentum in Aux-C        ...      5
Auxiliary 'external' fitting basis          ... NOT available
Integral threshold                          ...     1.000000e-10
Primitive cut-off                           ...     1.000000e-11
Primitive pair pre-selection threshold      ...     1.000000e-11

Calculating pre-screening integrals         ... done (  0.4 sec) Dimension = 183
Organizing shell pair data                  ... done (  1.0 sec)
Shell pair information
Total number of shell pairs                 ...     16836
Shell pairs after pre-screening             ...     13666
Total number of primitive shell pairs       ...     45389
Primitive shell pairs kept                  ...     26952
          la=0 lb=0:   2142 shell pairs
          la=1 lb=0:   3102 shell pairs
          la=1 lb=1:   1187 shell pairs
          la=2 lb=0:   2705 shell pairs
          la=2 lb=1:   1915 shell pairs
          la=2 lb=2:    785 shell pairs
          la=3 lb=0:    733 shell pairs
          la=3 lb=1:    542 shell pairs
          la=3 lb=2:    474 shell pairs
          la=3 lb=3:     81 shell pairs

Calculating one electron integrals          ... done (  0.2 sec)
Calculating ECP integrals                   ... done ( 24.2 sec)
Calculating RI/J V-Matrix + Cholesky decomp.... done (  3.6 sec)
Calculating RI/C V-Matrix + Cholesky decomp.... done (  4.3 sec)
Calculating Nuclear repulsion               ... done (  0.0 sec) ENN=   4359.773445050669 Eh

SHARK setup successfully completed in  35.4 seconds

Maximum memory used throughout the entire GTOINT-calculation: 33.5 MB


           ************************************************************
           *        Program running with 16 parallel MPI-processes    *
           *              working on a common directory               *
           ************************************************************
-------------------------------------------------------------------------------
                                 ORCA SCF
-------------------------------------------------------------------------------

------------
SCF SETTINGS
------------
Hamiltonian:
 Ab initio Hamiltonian  Method          .... Hartree-Fock(GTOs)
 RI-approximation to the Coulomb term is turned on
   Number of AuxJ basis functions       .... 1157
   RIJ-COSX (HFX calculated with COS-X)).... on


General Settings:
 Integral files         IntName         .... casscf
 Hartree-Fock type      HFTyp           .... CASSCF
 Total Charge           Charge          ....    0
 Multiplicity           Mult            ....    6
 Number of Electrons    NEL             ....  253
 Basis Dimension        Dim             ....  525
 Nuclear Repulsion      ENuc            ....   4359.7734450507 Eh


Diagonalization of the overlap matrix:
Smallest eigenvalue                        ... 4.204e-04
Time for diagonalization                   ...    0.200 sec
Threshold for overlap eigenvalues          ... 1.000e-08
Number of eigenvalues below threshold      ... 0
Time for construction of square roots      ...    0.453 sec
Total time needed                          ...    1.017 sec

---------------------
INITIAL GUESS: MOREAD
---------------------
Guess MOs are being read from file: pbe.qro
Input Geometry matches current geometry (good)
Input basis set matches current basis set (good)
MOs were renormalized
Gram-Schmidt orthogonalization of all MOs with pivot on actives
                      ------------------
                      INITIAL GUESS DONE (   9.5 sec)
                      ------------------
--------------------
COSX GRID GENERATION
--------------------

GRIDX 1
-------
General Integration Accuracy     IntAcc      ... 3.816
Radial Grid Type                 RadialGrid  ... OptM3 with GC (2021)
Angular Grid (max. ang.)         AngularGrid ... 1 (Lebedev-50)
Angular grid pruning method      GridPruning ... 4 (adaptive)
Weight generation scheme         WeightScheme... Becke
Basis function cutoff            BFCut       ... 1.0000e-10
Integration weight cutoff        WCut        ... 1.0000e-14
Angular grids for H and He will be reduced by one unit
Partially contracted basis set               ... on
Rotationally invariant grid construction     ... off

Total number of grid points                  ...    15076
Total number of batches                      ...      241
Average number of points per batch           ...       62
Average number of grid points per atom       ...     1160
UseSFitting                                  ... on

GRIDX 2
-------
General Integration Accuracy     IntAcc      ... 4.020
Radial Grid Type                 RadialGrid  ... OptM3 with GC (2021)
Angular Grid (max. ang.)         AngularGrid ... 2 (Lebedev-110)
Angular grid pruning method      GridPruning ... 4 (adaptive)
Weight generation scheme         WeightScheme... Becke
Basis function cutoff            BFCut       ... 1.0000e-10
Integration weight cutoff        WCut        ... 1.0000e-14
Angular grids for H and He will be reduced by one unit
Partially contracted basis set               ... on
Rotationally invariant grid construction     ... off

Total number of grid points                  ...    45978
Total number of batches                      ...      726
Average number of points per batch           ...       63
Average number of grid points per atom       ...     3537
UseSFitting                                  ... on

GRIDX 3
-------
General Integration Accuracy     IntAcc      ... 4.338
Radial Grid Type                 RadialGrid  ... OptM3 with GC (2021)
Angular Grid (max. ang.)         AngularGrid ... 3 (Lebedev-194)
Angular grid pruning method      GridPruning ... 4 (adaptive)
Weight generation scheme         WeightScheme... Becke
Basis function cutoff            BFCut       ... 1.0000e-10
Integration weight cutoff        WCut        ... 1.0000e-14
Angular grids for H and He will be reduced by one unit
Partially contracted basis set               ... on
Rotationally invariant grid construction     ... off

Total number of grid points                  ...    84081
Total number of batches                      ...     1318
Average number of points per batch           ...       63
Average number of grid points per atom       ...     6468
UseSFitting                                  ... on

Time for X-Grid setup             =   10.206 sec



 ... the calculation is a CASSCF calculation -I'm leaving here GOOD LUCK!!!



           ************************************************************
           *        Program running with 16 parallel MPI-processes    *
           *              working on a common directory               *
           ************************************************************
-------------------------------------------------------------------------------
                              ORCA-CASSCF
-------------------------------------------------------------------------------

Setting up the integral package       ... done
Setting up the integral package (RI)  ... done
Building the CAS space                ... done (1 configurations for Mult=6)
Building the CAS space                ... done (21 configurations for Mult=4)

SYSTEM-SPECIFIC SETTINGS:
Number of active electrons          ...    5
Number of active orbitals           ...    5
Total number of electrons           ...  253
Total number of orbitals            ...  525
Total number aux. functions         ... 1994

Determined orbital ranges:
   Internal       0 -  123 ( 124 orbitals)
   Active       124 -  128 (   5 orbitals)
   External     129 -  524 ( 396 orbitals)
Number of rotation parameters      ...  51704

CI-STEP:
CI strategy                         ... General CI
Number of multiplicity blocks       ...    2
BLOCK  1 WEIGHT=   0.5000
  Multiplicity                      ...    6
  #(Configurations)                 ...    1
  #(CSFs)                           ...    1
  #(Roots)                          ...    1
    ROOT=0 WEIGHT=    0.500000

BLOCK  2 WEIGHT=   0.5000
  Multiplicity                      ...    4
  #(Configurations)                 ...   21
  #(CSFs)                           ...   24
  #(Roots)                          ...   24
    ROOT=0 WEIGHT=    0.020833
    ROOT=1 WEIGHT=    0.020833
    ROOT=2 WEIGHT=    0.020833
    ROOT=3 WEIGHT=    0.020833
    ROOT=4 WEIGHT=    0.020833
    ROOT=5 WEIGHT=    0.020833
    ROOT=6 WEIGHT=    0.020833
    ROOT=7 WEIGHT=    0.020833
    ROOT=8 WEIGHT=    0.020833
    ROOT=9 WEIGHT=    0.020833
    ROOT=10 WEIGHT=    0.020833
    ROOT=11 WEIGHT=    0.020833
    ROOT=12 WEIGHT=    0.020833
    ROOT=13 WEIGHT=    0.020833
    ROOT=14 WEIGHT=    0.020833
    ROOT=15 WEIGHT=    0.020833
    ROOT=16 WEIGHT=    0.020833
    ROOT=17 WEIGHT=    0.020833
    ROOT=18 WEIGHT=    0.020833
    ROOT=19 WEIGHT=    0.020833
    ROOT=20 WEIGHT=    0.020833
    ROOT=21 WEIGHT=    0.020833
    ROOT=22 WEIGHT=    0.020833
    ROOT=23 WEIGHT=    0.020833

  PrintLevel                        ...    1
  N(GuessMat)                       ...       512
  MaxDim(CI)                        ...        10
  MaxIter(CI)                       ...        64
  Energy Tolerance CI               ...  1.00e-08
  Residual Tolerance CI             ...  1.00e-08
  Shift(CI)                         ...  1.00e-04

INTEGRAL-TRANSFORMATION-STEP:
  Algorithm                         ... RI-MO

ORBITAL-IMPROVEMENT-STEP:
  Algorithm                         ... SuperCI(PT)
  Default Parametrization           ... CAYLEY
  Act-Act rotations                 ... depends on algorithm used

  Note: SuperCI(PT) will ignore FreezeIE, FreezeAct and FreezeGrad. In general Default settings are encouraged.
        In conjunction with ShiftUp, ShiftDn or GradScaling the performance of SuperCI(PT) is less optimal.  

  MaxRot                            ... 2.00e-01 
  Max. no of vectors (DIIS)         ... 15
  DThresh (cut-off) metric          ... 1.00e-06
  Switch step at gradient           ...  3.00e-02 
  Switch step at iteration          ...        50   
  Switch step to                    ... SuperCI(PT)    

SCF-SETTINGS:
  Incremental                       ... off
  RIJCOSX approximation             ... on
  UseFinalGrid                      ... on
  RI-JK approximation               ... off
  AO integral handling              ... DIRECT
  Integral Neglect Thresh           ...  1.00e-10
  Primitive cutoff TCut             ...  1.00e-11
  Energy convergence tolerance      ...  1.00e-07
  Orbital gradient convergence      ...  1.00e-03
  Max. number of iterations         ...        75  


FINAL ORBITALS:
  Active   Orbitals                 ... natural 
  Internal Orbitals                 ... canonical 
  External Orbitals                 ... canonical 

------------------
CAS-SCF ITERATIONS
------------------


MACRO-ITERATION   1: 
   --- Inactive Energy E0 = -2760.25622249 Eh
CI-ITERATION   0: 
 -2767.048207331   0.000000000000 (    0.16)
   CI-PROBLEM SOLVED
   DENSITIES MADE
CI-ITERATION   0: 
 -2767.001269059   0.000000000000 (    0.85)
 -2766.996691362   0.000000000000
 -2766.986299303   0.000000000000
 -2766.973773674   0.000000000000
 -2766.964043351   0.000000000000
 -2766.962524520   0.000000000000
 -2766.952813193   0.000000000000
 -2766.950318838   0.000000000000
 -2766.948319987   0.000000000000
 -2766.925956421   0.000000000000
 -2766.918247200   0.000000000000
 -2766.915663244   0.000000000000
 -2766.915245371   0.000000000000
 -2766.910271314   0.000000000000
 -2766.908413381   0.000000000000
 -2766.902154118   0.000000000000
 -2766.900292064   0.000000000000
 -2766.889427811   0.000000000000
 -2766.880568706   0.000000000000
 -2766.874869951   0.000000000000
 -2766.874126100   0.000000000000
 -2766.869933903   0.000000000000
 -2766.861681192   0.000000000000
 -2766.857954368   0.000000000000
   CI-PROBLEM SOLVED
   DENSITIES MADE

                 <<<<<<<<<<<<<<<<<<INITIAL CI STATE CHECK>>>>>>>>>>>>>>>>>>

BLOCK  1 MULT= 6 NROOTS= 1 
ROOT   0:  E=   -2767.0482073312 Eh
      1.00000 [     0]: 11111

BLOCK  2 MULT= 4 NROOTS=24 
ROOT   0:  E=   -2767.0012690588 Eh
      0.92150 [    20]: 01112
      0.05902 [     0]: 21110
      0.00787 [     8]: 11201
      0.00477 [    16]: 10112
ROOT   1:  E=   -2766.9966913620 Eh  0.125 eV   1004.7 cm**-1
      0.98507 [    10]: 11111
      0.01140 [    18]: 01211
ROOT   2:  E=   -2766.9862993028 Eh  0.407 eV   3285.5 cm**-1
      0.94664 [    10]: 11111
      0.02536 [    18]: 01211
      0.00763 [    14]: 10211
      0.00754 [    11]: 11102
      0.00514 [     6]: 12011
      0.00398 [     2]: 21011
      0.00335 [    17]: 02111
ROOT   3:  E=   -2766.9737736737 Eh  0.748 eV   6034.5 cm**-1
      0.91252 [     0]: 21110
      0.05876 [    20]: 01112
      0.01418 [     7]: 11210
      0.00879 [    12]: 11021
      0.00297 [    16]: 10112
ROOT   4:  E=   -2766.9640433507 Eh  1.013 eV   8170.1 cm**-1
      0.51312 [    14]: 10211
      0.35703 [    10]: 11111
      0.11481 [     6]: 12011
      0.00657 [    18]: 01211
      0.00566 [    11]: 11102
ROOT   5:  E=   -2766.9625245199 Eh  1.054 eV   8503.4 cm**-1
      0.52266 [     8]: 11201
      0.18700 [     5]: 12101
      0.14496 [    12]: 11021
      0.13004 [    15]: 10121
      0.00376 [     7]: 11210
      0.00340 [    16]: 10112
      0.00324 [     0]: 21110
      0.00254 [    20]: 01112
ROOT   6:  E=   -2766.9528131927 Eh  1.319 eV  10634.8 cm**-1
      0.94550 [    10]: 11111
      0.02244 [     3]: 20111
      0.00949 [    18]: 01211
      0.00919 [    11]: 11102
      0.00495 [    14]: 10211
ROOT   7:  E=   -2766.9503188381 Eh  1.386 eV  11182.3 cm**-1
      0.56258 [    15]: 10121
      0.24722 [     8]: 11201
      0.11721 [     5]: 12101
      0.03216 [    16]: 10112
      0.01606 [    12]: 11021
      0.00697 [    19]: 01121
      0.00616 [     1]: 21101
      0.00365 [    13]: 11012
      0.00332 [     7]: 11210
      0.00272 [    20]: 01112
ROOT   8:  E=   -2766.9483199870 Eh  1.441 eV  11621.0 cm**-1
      0.62978 [    10]: 11111
      0.27868 [    14]: 10211
      0.04322 [     6]: 12011
      0.02457 [    18]: 01211
      0.00810 [    17]: 02111
      0.00614 [     9]: 11120
      0.00610 [     2]: 21011
      0.00294 [     3]: 20111
ROOT   9:  E=   -2766.9259564206 Eh  2.049 eV  16529.2 cm**-1
      0.41248 [    12]: 11021
      0.34311 [     5]: 12101
      0.07560 [    15]: 10121
      0.07462 [    16]: 10112
      0.03238 [    13]: 11012
      0.02826 [     4]: 12110
      0.01487 [    19]: 01121
      0.00735 [     7]: 11210
      0.00726 [     8]: 11201
      0.00308 [     0]: 21110
ROOT  10:  E=   -2766.9182472001 Eh  2.259 eV  18221.2 cm**-1
      0.60803 [    18]: 01211
      0.21690 [    11]: 11102
      0.10755 [     6]: 12011
      0.05189 [    10]: 11111
      0.00556 [     2]: 21011
      0.00520 [     3]: 20111
      0.00303 [     9]: 11120
ROOT  11:  E=   -2766.9156632445 Eh  2.329 eV  18788.3 cm**-1
      0.31926 [     2]: 21011
      0.17491 [     6]: 12011
      0.15450 [    11]: 11102
      0.10232 [    18]: 01211
      0.06609 [    14]: 10211
      0.06048 [     1]: 21101
      0.03726 [    17]: 02111
      0.03438 [    19]: 01121
      0.02365 [    10]: 11111
      0.00721 [    13]: 11012
      0.00614 [    12]: 11021
      0.00513 [     3]: 20111
      0.00504 [     7]: 11210
ROOT  12:  E=   -2766.9152453712 Eh  2.341 eV  18880.0 cm**-1
      0.46831 [     1]: 21101
      0.27216 [    19]: 01121
      0.04352 [     2]: 21011
      0.04296 [    12]: 11021
      0.04198 [    13]: 11012
      0.03017 [     7]: 11210
      0.02963 [     6]: 12011
      0.01715 [    11]: 11102
      0.01231 [    16]: 10112
      0.00981 [    14]: 10211
      0.00950 [     8]: 11201
      0.00770 [    18]: 01211
      0.00570 [    17]: 02111
ROOT  13:  E=   -2766.9102713137 Eh  2.476 eV  19971.7 cm**-1
      0.77054 [    16]: 10112
      0.07065 [     4]: 12110
      0.04642 [     7]: 11210
      0.03044 [    19]: 01121
      0.02306 [     8]: 11201
      0.02185 [    15]: 10121
      0.01253 [    13]: 11012
      0.01219 [    12]: 11021
      0.01041 [    20]: 01112
ROOT  14:  E=   -2766.9084133810 Eh  2.527 eV  20379.5 cm**-1
      0.44544 [    11]: 11102
      0.21061 [     9]: 11120
      0.13502 [     6]: 12011
      0.09284 [    18]: 01211
      0.04726 [     2]: 21011
      0.03283 [    14]: 10211
      0.01777 [    17]: 02111
      0.01401 [    10]: 11111
      0.00300 [     3]: 20111
ROOT  15:  E=   -2766.9021541184 Eh  2.697 eV  21753.2 cm**-1
      0.42850 [    13]: 11012
      0.36138 [     7]: 11210
      0.06002 [     5]: 12101
      0.05966 [     1]: 21101
      0.04162 [    19]: 01121
      0.02450 [    16]: 10112
      0.01178 [     0]: 21110
      0.00473 [     4]: 12110
      0.00431 [    15]: 10121
ROOT  16:  E=   -2766.9002920643 Eh  2.748 eV  22161.9 cm**-1
      0.71463 [     3]: 20111
      0.18754 [    17]: 02111
      0.04894 [     2]: 21011
      0.02718 [    10]: 11111
      0.00722 [     9]: 11120
      0.00342 [    14]: 10211
      0.00267 [     6]: 12011
      0.00261 [    11]: 11102
ROOT  17:  E=   -2766.8894278109 Eh  3.043 eV  24546.3 cm**-1
      0.39099 [    19]: 01121
      0.13187 [    12]: 11021
      0.11302 [    15]: 10121
      0.11115 [     1]: 21101
      0.08622 [     5]: 12101
      0.06195 [     4]: 12110
      0.05091 [    13]: 11012
      0.03085 [     8]: 11201
      0.01477 [     7]: 11210
      0.00567 [    16]: 10112
ROOT  18:  E=   -2766.8805687061 Eh  3.284 eV  26490.7 cm**-1
      0.28736 [     1]: 21101
      0.21312 [    12]: 11021
      0.18230 [    19]: 01121
      0.13760 [     8]: 11201
      0.11318 [     5]: 12101
      0.04716 [    15]: 10121
      0.01311 [    13]: 11012
      0.00287 [     4]: 12110
ROOT  19:  E=   -2766.8748699509 Eh  3.439 eV  27741.4 cm**-1
      0.48428 [     7]: 11210
      0.39136 [    13]: 11012
      0.01740 [     4]: 12110
      0.01547 [     2]: 21011
      0.01224 [     5]: 12101
      0.01162 [    15]: 10121
      0.01159 [     8]: 11201
      0.01008 [    12]: 11021
      0.00951 [    19]: 01121
      0.00870 [    16]: 10112
      0.00689 [     0]: 21110
      0.00608 [     6]: 12011
      0.00399 [    17]: 02111
      0.00326 [     3]: 20111
ROOT  20:  E=   -2766.8741260996 Eh  3.460 eV  27904.7 cm**-1
      0.45047 [     2]: 21011
      0.16965 [     6]: 12011
      0.12000 [    17]: 02111
      0.09398 [     3]: 20111
      0.07853 [    18]: 01211
      0.03487 [    14]: 10211
      0.01655 [     7]: 11210
      0.01395 [    13]: 11012
      0.01148 [     9]: 11120
      0.00560 [    10]: 11111
ROOT  21:  E=   -2766.8699339030 Eh  3.574 eV  28824.7 cm**-1
      0.74393 [     9]: 11120
      0.13677 [    11]: 11102
      0.08133 [     6]: 12011
      0.02793 [    14]: 10211
      0.00375 [    10]: 11111
      0.00253 [    18]: 01211
ROOT  22:  E=   -2766.8616811919 Eh  3.798 eV  30636.0 cm**-1
      0.60990 [    17]: 02111
      0.14177 [     3]: 20111
      0.12719 [     6]: 12011
      0.05343 [     2]: 21011
      0.02561 [    18]: 01211
      0.01848 [    14]: 10211
      0.01178 [     9]: 11120
      0.00706 [    10]: 11111
      0.00258 [     4]: 12110
ROOT  23:  E=   -2766.8579543678 Eh  3.900 eV  31453.9 cm**-1
      0.80635 [     4]: 12110
      0.07778 [     5]: 12101
      0.05650 [    16]: 10112
      0.03177 [    15]: 10121
      0.01117 [    19]: 01121
      0.00890 [     7]: 11210

                 <<<<<<<<<<<<<<<<<<INITIAL CI STATE CHECK>>>>>>>>>>>>>>>>>>

   E(CAS)= -2766.985371549 Eh DE=    0.000000e+00
   --- Energy gap subspaces: Ext-Act = 0.137   Act-Int = 0.179
   N(occ)=  1.00000 1.00000 1.00000 1.00000 1.00000
   ||g|| =     2.435860e+00 Max(G)=    4.518885e-01 Rot=452,1
   --- Orbital Update [SuperCI(PT)]
   --- Canonicalize Internal Space
   --- Canonicalize External Space
   --- SX_PT (Skipped TA=0 IT=0): ||X|| =      0.489978878 Max(X)(128,120) =      0.111207243 
   --- SFit(Active Orbitals)

MACRO-ITERATION   2: 
   --- Inactive Energy E0 = -2759.20922622 Eh
CI-ITERATION   0: 
 -2767.408961348   0.000000000000 (    0.14)
   CI-PROBLEM SOLVED
   DENSITIES MADE
CI-ITERATION   0: 
 -2767.358298685   0.000000000000 (    1.02)
 -2767.338686561   0.000000000000
 -2767.335189096   0.000000000000
 -2767.325165806   0.000000000000
 -2767.319930961   0.000000000000
 -2767.309379470   0.000000000000
 -2767.307656375   0.000000000000
 -2767.304380963   0.000000000000
 -2767.297960888   0.000000000000
 -2767.294552789   0.000000000000
 -2767.294512467   0.000000000000
 -2767.292150847   0.000000000000
 -2767.288217921   0.000000000000
 -2767.282796990   0.000000000000
 -2767.281113973   0.000000000000
 -2767.258302986   0.000000000000
 -2767.246001426   0.000000000000
 -2767.224624474   0.000000000000
 -2767.213515527   0.000000000000
 -2767.209015114   0.000000000000
 -2767.200506871   0.000000000000
 -2767.188001974   0.000000000000
 -2767.182833903   0.000000000000
 -2767.179053246   0.000000000000
   CI-PROBLEM SOLVED
   DENSITIES MADE
   E(CAS)= -2767.340560868 Eh DE=   -3.551893e-01
   --- Energy gap subspaces: Ext-Act = 0.157   Act-Int = 0.078
   N(occ)=  1.00000 1.00000 1.00000 1.00000 1.00000
   ||g|| =     9.029072e-01 Max(G)=   -2.067696e-01 Rot=129,124
   --- Orbital Update [SuperCI(PT)]
   --- Canonicalize Internal Space
   --- Canonicalize External Space
   --- SX_PT (Skipped TA=0 IT=0): ||X|| =      0.330290946 Max(X)(129,124) =     -0.237497340 
   --- SFit(Active Orbitals)

MACRO-ITERATION   3: 
   --- Inactive Energy E0 = -2759.27555396 Eh
CI-ITERATION   0: 
 -2767.473877353   0.000000000000 (    0.14)
   CI-PROBLEM SOLVED
   DENSITIES MADE
CI-ITERATION   0: 
 -2767.394767254   0.000000000000 (    0.00)
 -2767.389151365   0.000000000000
 -2767.372172877   0.000000000000
 -2767.363352081   0.000000000000
 -2767.361153207   0.000000000000
 -2767.359241586   0.000000000000
 -2767.358640237   0.000000000000
 -2767.355300030   0.000000000000
 -2767.355188284   0.000000000000
 -2767.343462288   0.000000000000
 -2767.343170722   0.000000000000
 -2767.336484800   0.000000000000
 -2767.334898660   0.000000000000
 -2767.329971632   0.000000000000
 -2767.329275053   0.000000000000
 -2767.319074532   0.000000000000
 -2767.316842197   0.000000000000
 -2767.289211421   0.000000000000
 -2767.275774893   0.000000000000
 -2767.268330515   0.000000000000
 -2767.267451808   0.000000000000
 -2767.262398710   0.000000000000
 -2767.256209739   0.000000000000
 -2767.254864351   0.000000000000
   CI-PROBLEM SOLVED
   DENSITIES MADE
   E(CAS)= -2767.400196765 Eh DE=   -5.963590e-02
   --- Energy gap subspaces: Ext-Act = 0.043   Act-Int = 0.193
   N(occ)=  1.00000 1.00000 1.00000 1.00000 1.00000
   ||g|| =     6.736236e-01 Max(G)=   -1.842378e-01 Rot=128,123
   --- Orbital Update [SuperCI(PT)]
   --- Canonicalize Internal Space
   --- Canonicalize External Space
   --- SX_PT (Skipped TA=0 IT=0): ||X|| =      0.300763359 Max(X)(128,121) =     -0.219106511 
   --- SFit(Active Orbitals)

MACRO-ITERATION   4: 
   --- Inactive Energy E0 = -2758.29718340 Eh
CI-ITERATION   0: 
 -2767.524942354   0.000000000000 (    0.01)
   CI-PROBLEM SOLVED
   DENSITIES MADE
CI-ITERATION   0: 
 -2767.424589532   0.000000000000 (    0.86)
 -2767.419307578   0.000000000000
 -2767.411374977   0.000000000000
 -2767.405137064   0.000000000000
 -2767.404712396   0.000000000000
 -2767.403706371   0.000000000000
 -2767.402526120   0.000000000000
 -2767.401385813   0.000000000000
 -2767.398735631   0.000000000000
 -2767.396463517   0.000000000000
 -2767.384740872   0.000000000000
 -2767.383787394   0.000000000000
 -2767.380904063   0.000000000000
 -2767.374548478   0.000000000000
 -2767.374436018   0.000000000000
 -2767.372425294   0.000000000000
 -2767.369914327   0.000000000000
 -2767.342006796   0.000000000000
 -2767.326056595   0.000000000000
 -2767.325255298   0.000000000000
 -2767.323259644   0.000000000000
 -2767.321081187   0.000000000000
 -2767.313543560   0.000000000000
 -2767.310461858   0.000000000000
   CI-PROBLEM SOLVED
   DENSITIES MADE
   E(CAS)= -2767.449353685 Eh DE=   -4.915692e-02
   --- Energy gap subspaces: Ext-Act = 0.122   Act-Int = 0.121
   N(occ)=  1.00000 1.00000 1.00000 1.00000 1.00000
   ||g|| =     2.922127e-01 Max(G)=   -1.187121e-01 Rot=129,124
   --- Orbital Update [SuperCI(PT)]
   --- Canonicalize Internal Space
   --- Canonicalize External Space
   --- SX_PT (Skipped TA=0 IT=0): ||X|| =      0.192857990 Max(X)(128,121) =     -0.119150613 
   --- SFit(Active Orbitals)

MACRO-ITERATION   5: 
   --- Inactive Energy E0 = -2757.93119827 Eh
CI-ITERATION   0: 
 -2767.559165575   0.000000000000 (    0.15)
   CI-PROBLEM SOLVED
   DENSITIES MADE
CI-ITERATION   0: 
 -2767.443319696   0.000000000000 (    0.00)
 -2767.442833812   0.000000000000
 -2767.434818731   0.000000000000
 -2767.432542789   0.000000000000
 -2767.431842044   0.000000000000
 -2767.431817064   0.000000000000
 -2767.431058649   0.000000000000
 -2767.430725344   0.000000000000
 -2767.430369140   0.000000000000
 -2767.416257490   0.000000000000
 -2767.412026124   0.000000000000
 -2767.411689425   0.000000000000
 -2767.405170870   0.000000000000
 -2767.403228358   0.000000000000
 -2767.402131813   0.000000000000
 -2767.398615925   0.000000000000
 -2767.398528593   0.000000000000
 -2767.358255543   0.000000000000
 -2767.350776308   0.000000000000
 -2767.349528772   0.000000000000
 -2767.346878938   0.000000000000
 -2767.343942228   0.000000000000
 -2767.339559040   0.000000000000
 -2767.336232113   0.000000000000
   CI-PROBLEM SOLVED
   DENSITIES MADE
   E(CAS)= -2767.479210887 Eh DE=   -2.985720e-02
   --- Energy gap subspaces: Ext-Act = 0.082   Act-Int = 0.137
   N(occ)=  1.00000 1.00000 1.00000 1.00000 1.00000
   ||g|| =     2.570735e-01 Max(G)=   -1.053491e-01 Rot=128,123
   --- Orbital Update [SuperCI(PT)]
   --- Canonicalize Internal Space
   --- Canonicalize External Space
   --- SX_PT (Skipped TA=0 IT=0): ||X|| =      0.149945443 Max(X)(128,121) =     -0.107320050 
   --- SFit(Active Orbitals)

MACRO-ITERATION   6: 
   --- Inactive Energy E0 = -2756.89558935 Eh
CI-ITERATION   0: 
 -2767.587528552   0.000000000000 (    0.13)
   CI-PROBLEM SOLVED
   DENSITIES MADE
CI-ITERATION   0: 
 -2767.457435986   0.000000000000 (    0.93)
 -2767.452270249   0.000000000000
 -2767.450917237   0.000000000000
 -2767.450766731   0.000000000000
 -2767.449841440   0.000000000000
 -2767.449632854   0.000000000000
 -2767.449033074   0.000000000000
 -2767.448596155   0.000000000000
 -2767.448510046   0.000000000000
 -2767.427895106   0.000000000000
 -2767.427243160   0.000000000000
 -2767.421655263   0.000000000000
 -2767.417170490   0.000000000000
 -2767.415489185   0.000000000000
 -2767.414781120   0.000000000000
 -2767.414114883   0.000000000000
 -2767.413730031   0.000000000000
 -2767.354607199   0.000000000000
 -2767.354351248   0.000000000000
 -2767.353658857   0.000000000000
 -2767.353060269   0.000000000000
 -2767.352771372   0.000000000000
 -2767.352153776   0.000000000000
 -2767.351433067   0.000000000000
   CI-PROBLEM SOLVED
   DENSITIES MADE
   E(CAS)= -2767.499620917 Eh DE=   -2.041003e-02
   --- Energy gap subspaces: Ext-Act = 0.092   Act-Int = 0.083
   N(occ)=  1.00000 1.00000 1.00000 1.00000 1.00000
   ||g|| =     3.080101e-01 Max(G)=    5.780339e-02 Rot=129,124
   --- Orbital Update [SuperCI(PT)]
   --- Canonicalize Internal Space
   --- Canonicalize External Space
   --- SX_PT (Skipped TA=0 IT=0): ||X|| =      0.084851942 Max(X)(129,124) =     -0.052092189 
   --- SFit(Active Orbitals)

MACRO-ITERATION   7: 
   --- Inactive Energy E0 = -2757.24776209 Eh
CI-ITERATION   0: 
 -2767.588263469   0.000000000000 (    0.00)
   CI-PROBLEM SOLVED
   DENSITIES MADE
CI-ITERATION   0: 
 -2767.464359144   0.000000000000 (    0.92)
 -2767.457691319   0.000000000000
 -2767.456579763   0.000000000000
 -2767.455990490   0.000000000000
 -2767.455976148   0.000000000000
 -2767.453897333   0.000000000000
 -2767.453625355   0.000000000000
 -2767.453366131   0.000000000000
 -2767.452867594   0.000000000000
 -2767.432819421   0.000000000000
 -2767.432195669   0.000000000000
 -2767.428019083   0.000000000000
 -2767.422391409   0.000000000000
 -2767.422140633   0.000000000000
 -2767.421341915   0.000000000000
 -2767.419998166   0.000000000000
 -2767.419362358   0.000000000000
 -2767.364231514   0.000000000000
 -2767.363298260   0.000000000000
 -2767.361780864   0.000000000000
 -2767.360982821   0.000000000000
 -2767.359609186   0.000000000000
 -2767.359478172   0.000000000000
 -2767.357700370   0.000000000000
   CI-PROBLEM SOLVED
   DENSITIES MADE
   E(CAS)= -2767.503083882 Eh DE=   -3.462965e-03
   --- Energy gap subspaces: Ext-Act = 0.088   Act-Int = 0.099
   N(occ)=  1.00000 1.00000 1.00000 1.00000 1.00000
   ||g|| =     1.345586e-01 Max(G)=   -3.820760e-02 Rot=128,123
   --- Orbital Update [SuperCI(PT)]
   --- Canonicalize Internal Space
   --- Canonicalize External Space
   --- SX_PT (Skipped TA=0 IT=0): ||X|| =      0.053131597 Max(X)(128,123) =     -0.037855152 
   --- SFit(Active Orbitals)

MACRO-ITERATION   8: 
   --- Inactive Energy E0 = -2757.11100663 Eh
CI-ITERATION   0: 
 -2767.591628851   0.000000000000 (    0.20)
   CI-PROBLEM SOLVED
   DENSITIES MADE
CI-ITERATION   0: 
 -2767.465147963   0.000000000000 (    1.01)
 -2767.459142084   0.000000000000
 -2767.457758161   0.000000000000
 -2767.457566763   0.000000000000
 -2767.456913995   0.000000000000
 -2767.455930402   0.000000000000
 -2767.455556150   0.000000000000
 -2767.455232690   0.000000000000
 -2767.454912354   0.000000000000
 -2767.434417445   0.000000000000
 -2767.433736756   0.000000000000
 -2767.429054949   0.000000000000
 -2767.423635115   0.000000000000
 -2767.423082720   0.000000000000
 -2767.422516096   0.000000000000
 -2767.421516432   0.000000000000
 -2767.421148042   0.000000000000
 -2767.363657906   0.000000000000
 -2767.363262486   0.000000000000
 -2767.362521270   0.000000000000
 -2767.361393891   0.000000000000
 -2767.360909937   0.000000000000
 -2767.359923275   0.000000000000
 -2767.359488084   0.000000000000
   CI-PROBLEM SOLVED
   DENSITIES MADE
   E(CAS)= -2767.505364945 Eh DE=   -2.281063e-03
   --- Energy gap subspaces: Ext-Act = 0.093   Act-Int = 0.092
   N(occ)=  1.00000 1.00000 1.00000 1.00000 1.00000
   ||g|| =     4.997706e-02 Max(G)=   -1.971287e-02 Rot=128,123
   --- Orbital Update [SuperCI(PT)]
   --- Canonicalize Internal Space
   --- Canonicalize External Space
   --- SX_PT (Skipped TA=0 IT=0): ||X|| =      0.026594907 Max(X)(128,123) =     -0.019952441 
   --- SFit(Active Orbitals)

MACRO-ITERATION   9: 
   --- Inactive Energy E0 = -2757.03387909 Eh
CI-ITERATION   0: 
 -2767.592865277   0.000000000000 (    0.16)
   CI-PROBLEM SOLVED
   DENSITIES MADE
CI-ITERATION   0: 
 -2767.464368194   0.000000000000 (    0.00)
 -2767.458949553   0.000000000000
 -2767.457567036   0.000000000000
 -2767.457539330   0.000000000000
 -2767.456575814   0.000000000000
 -2767.456317760   0.000000000000
 -2767.455865234   0.000000000000
 -2767.455487786   0.000000000000
 -2767.455317995   0.000000000000
 -2767.434500253   0.000000000000
 -2767.433806140   0.000000000000
 -2767.428956652   0.000000000000
 -2767.423580437   0.000000000000
 -2767.422763003   0.000000000000
 -2767.422308344   0.000000000000
 -2767.421498461   0.000000000000
 -2767.421340537   0.000000000000
 -2767.362494262   0.000000000000
 -2767.362420652   0.000000000000
 -2767.361971139   0.000000000000
 -2767.360924426   0.000000000000
 -2767.360846401   0.000000000000
 -2767.359744076   0.000000000000
 -2767.359259905   0.000000000000
   CI-PROBLEM SOLVED
   DENSITIES MADE
   E(CAS)= -2767.505899375 Eh DE=   -5.344300e-04
   --- Energy gap subspaces: Ext-Act = 0.095   Act-Int = 0.087
   N(occ)=  1.00000 1.00000 1.00000 1.00000 1.00000
   ||g|| =     2.548604e-02 Max(G)=    4.250127e-03 Rot=452,17
   --- Orbital Update [SuperCI(PT)]
   --- Canonicalize Internal Space
   --- Canonicalize External Space
   --- SX_PT (Skipped TA=0 IT=0): ||X|| =      0.009457367 Max(X)(128,123) =     -0.003975053 
   --- SFit(Active Orbitals)

MACRO-ITERATION  10: 
   --- Inactive Energy E0 = -2757.00696142 Eh
CI-ITERATION   0: 
 -2767.592978563   0.000000000000 (    0.00)
   CI-PROBLEM SOLVED
   DENSITIES MADE
CI-ITERATION   0: 
 -2767.464087833   0.000000000000 (    1.00)
 -2767.458805026   0.000000000000
 -2767.457475416   0.000000000000
 -2767.457455205   0.000000000000
 -2767.456484972   0.000000000000
 -2767.456351972   0.000000000000
 -2767.455900763   0.000000000000
 -2767.455511788   0.000000000000
 -2767.455368645   0.000000000000
 -2767.434474628   0.000000000000
 -2767.433794970   0.000000000000
 -2767.429003172   0.000000000000
 -2767.423542864   0.000000000000
 -2767.422722436   0.000000000000
 -2767.422260498   0.000000000000
 -2767.421514491   0.000000000000
 -2767.421382052   0.000000000000
 -2767.362376958   0.000000000000
 -2767.362307269   0.000000000000
 -2767.361951286   0.000000000000
 -2767.360901007   0.000000000000
 -2767.360899007   0.000000000000
 -2767.359811372   0.000000000000
 -2767.359223000   0.000000000000
   CI-PROBLEM SOLVED
   DENSITIES MADE
   E(CAS)= -2767.505939420 Eh DE=   -4.004419e-05
   --- Energy gap subspaces: Ext-Act = 0.098   Act-Int = 0.083
   N(occ)=  1.00000 1.00000 1.00000 1.00000 1.00000
   ||g|| =     1.086077e-02 Max(G)=    4.661102e-03 Rot=129,124
   --- Orbital Update [SuperCI(PT)]
   --- Canonicalize Internal Space
   --- Canonicalize External Space
   --- SX_PT (Skipped TA=0 IT=0): ||X|| =      0.006249049 Max(X)(129,124) =     -0.004057153 
   --- SFit(Active Orbitals)

MACRO-ITERATION  11: 
   --- Inactive Energy E0 = -2757.02090823 Eh
CI-ITERATION   0: 
 -2767.592753251   0.000000000000 (    0.00)
   CI-PROBLEM SOLVED
   DENSITIES MADE
CI-ITERATION   0: 
 -2767.464591661   0.000000000000 (    0.00)
 -2767.459061513   0.000000000000
 -2767.457770004   0.000000000000
 -2767.457648914   0.000000000000
 -2767.456786618   0.000000000000
 -2767.456426895   0.000000000000
 -2767.456030398   0.000000000000
 -2767.455658606   0.000000000000
 -2767.455454802   0.000000000000
 -2767.434625835   0.000000000000
 -2767.433949770   0.000000000000
 -2767.429258853   0.000000000000
 -2767.423725026   0.000000000000
 -2767.423095107   0.000000000000
 -2767.422573148   0.000000000000
 -2767.421833192   0.000000000000
 -2767.421572786   0.000000000000
 -2767.363035033   0.000000000000
 -2767.362804514   0.000000000000
 -2767.362467583   0.000000000000
 -2767.361303243   0.000000000000
 -2767.361223615   0.000000000000
 -2767.359983271   0.000000000000
 -2767.359670177   0.000000000000
   CI-PROBLEM SOLVED
   DENSITIES MADE
   E(CAS)= -2767.505971429 Eh DE=   -3.200922e-05
   --- Energy gap subspaces: Ext-Act = 0.100   Act-Int = 0.082
   N(occ)=  1.00000 1.00000 1.00000 1.00000 1.00000
   ||g|| =     5.844420e-03 Max(G)=   -1.599892e-03 Rot=128,123
   --- Orbital Update [SuperCI(PT)]
   --- Canonicalize Internal Space
   --- Canonicalize External Space
   --- SX_PT (Skipped TA=0 IT=0): ||X|| =      0.002851128 Max(X)(128,123) =     -0.001674825 
   --- SFit(Active Orbitals)

MACRO-ITERATION  12: 
   --- Inactive Energy E0 = -2757.01897153 Eh
CI-ITERATION   0: 
 -2767.592798521   0.000000000000 (    0.00)
   CI-PROBLEM SOLVED
   DENSITIES MADE
CI-ITERATION   0: 
 -2767.464502397   0.000000000000 (    0.92)
 -2767.459008267   0.000000000000
 -2767.457735265   0.000000000000
 -2767.457613937   0.000000000000
 -2767.456744865   0.000000000000
 -2767.456422059   0.000000000000
 -2767.456026268   0.000000000000
 -2767.455651662   0.000000000000
 -2767.455452995   0.000000000000
 -2767.434602832   0.000000000000
 -2767.433926210   0.000000000000
 -2767.429255407   0.000000000000
 -2767.423689161   0.000000000000
 -2767.423063333   0.000000000000
 -2767.422539320   0.000000000000
 -2767.421816594   0.000000000000
 -2767.421563804   0.000000000000
 -2767.362973490   0.000000000000
 -2767.362741390   0.000000000000
 -2767.362433006   0.000000000000
 -2767.361262858   0.000000000000
 -2767.361200418   0.000000000000
 -2767.359965002   0.000000000000
 -2767.359616925   0.000000000000
   CI-PROBLEM SOLVED
   DENSITIES MADE
   E(CAS)= -2767.505978582 Eh DE=   -7.153617e-06
   --- Energy gap subspaces: Ext-Act = 0.100   Act-Int = 0.082
   N(occ)=  1.00000 1.00000 1.00000 1.00000 1.00000
   ||g|| =     2.505445e-03 Max(G)=   -7.210134e-04 Rot=129,124
   --- Orbital Update [SuperCI(PT)]
   --- Canonicalize Internal Space
   --- Canonicalize External Space
   --- SX_PT (Skipped TA=0 IT=0): ||X|| =      0.001556237 Max(X)(129,122) =     -0.000961981 
   --- SFit(Active Orbitals)

MACRO-ITERATION  13: 
   --- Inactive Energy E0 = -2757.01363425 Eh
CI-ITERATION   0: 
 -2767.592879830   0.000000000000 (    0.13)
   CI-PROBLEM SOLVED
   DENSITIES MADE
CI-ITERATION   0: 
 -2767.464341146   0.000000000000 (    0.00)
 -2767.458915540   0.000000000000
 -2767.457651373   0.000000000000
 -2767.457547559   0.000000000000
 -2767.456659096   0.000000000000
 -2767.456403601   0.000000000000
 -2767.456000043   0.000000000000
 -2767.455616412   0.000000000000
 -2767.455436777   0.000000000000
 -2767.434552282   0.000000000000
 -2767.433869171   0.000000000000
 -2767.429200642   0.000000000000
 -2767.423625432   0.000000000000
 -2767.422971398   0.000000000000
 -2767.422455769   0.000000000000
 -2767.421747699   0.000000000000
 -2767.421517094   0.000000000000
 -2767.362806982   0.000000000000
 -2767.362600531   0.000000000000
 -2767.362296918   0.000000000000
 -2767.361153062   0.000000000000
 -2767.361119271   0.000000000000
 -2767.359912504   0.000000000000
 -2767.359501923   0.000000000000
   CI-PROBLEM SOLVED
   DENSITIES MADE
   E(CAS)= -2767.505979544 Eh DE=   -9.619203e-07
   --- Energy gap subspaces: Ext-Act = 0.100   Act-Int = 0.082
   N(occ)=  1.00000 1.00000 1.00000 1.00000 1.00000
   ||g|| =     3.016749e-03 Max(G)=    1.110432e-03 Rot=128,123
   --- Orbital Update [SuperCI(PT)]
   --- Canonicalize Internal Space
   --- Canonicalize External Space
   --- SX_PT (Skipped TA=0 IT=0): ||X|| =      0.001704739 Max(X)(128,123) =      0.001147594 
   --- SFit(Active Orbitals)

MACRO-ITERATION  14: 
   --- Inactive Energy E0 = -2757.01647291 Eh
CI-ITERATION   0: 
 -2767.592839319   0.000000000000 (    0.18)
   CI-PROBLEM SOLVED
   DENSITIES MADE
CI-ITERATION   0: 
 -2767.464442493   0.000000000000 (    0.78)
 -2767.458967518   0.000000000000
 -2767.457704579   0.000000000000
 -2767.457586284   0.000000000000
 -2767.456712461   0.000000000000
 -2767.456414264   0.000000000000
 -2767.456018932   0.000000000000
 -2767.455636904   0.000000000000
 -2767.455447907   0.000000000000
 -2767.434585171   0.000000000000
 -2767.433895395   0.000000000000
 -2767.429230518   0.000000000000
 -2767.423662985   0.000000000000
 -2767.423030094   0.000000000000
 -2767.422504591   0.000000000000
 -2767.421787364   0.000000000000
 -2767.421542959   0.000000000000
 -2767.362910153   0.000000000000
 -2767.362680029   0.000000000000
 -2767.362372531   0.000000000000
 -2767.361213921   0.000000000000
 -2767.361163007   0.000000000000
 -2767.359935059   0.000000000000
 -2767.359566283   0.000000000000
   CI-PROBLEM SOLVED
   DENSITIES MADE
   E(CAS)= -2767.505982397 Eh DE=   -2.852498e-06
   --- Energy gap subspaces: Ext-Act = 0.100   Act-Int = 0.082
   N(occ)=  1.00000 1.00000 1.00000 1.00000 1.00000
   ||g|| =     1.082300e-03 Max(G)=   -3.530920e-04 Rot=129,122
   --- Orbital Update [SuperCI(PT)]
   --- Canonicalize Internal Space
   --- Canonicalize External Space
   --- SX_PT (Skipped TA=0 IT=0): ||X|| =      0.000671670 Max(X)(129,122) =      0.000479619 
   --- SFit(Active Orbitals)

MACRO-ITERATION  15: 
   --- Inactive Energy E0 = -2757.01862463 Eh
CI-ITERATION   0: 
 -2767.592818217   0.000000000000 (    0.00)
   CI-PROBLEM SOLVED
   DENSITIES MADE
CI-ITERATION   0: 
 -2767.464490292   0.000000000000 (    0.93)
 -2767.458989495   0.000000000000
 -2767.457731674   0.000000000000
 -2767.457604625   0.000000000000
 -2767.456738573   0.000000000000
 -2767.456418449   0.000000000000
 -2767.456029542   0.000000000000
 -2767.455645846   0.000000000000
 -2767.455453351   0.000000000000
 -2767.434604436   0.000000000000
 -2767.433905337   0.000000000000
 -2767.429244216   0.000000000000
 -2767.423683834   0.000000000000
 -2767.423059001   0.000000000000
 -2767.422526680   0.000000000000
 -2767.421803343   0.000000000000
 -2767.421555803   0.000000000000
 -2767.362965720   0.000000000000
 -2767.362718963   0.000000000000
 -2767.362407092   0.000000000000
 -2767.361244100   0.000000000000
 -2767.361182109   0.000000000000
 -2767.359944545   0.000000000000
 -2767.359597047   0.000000000000
   CI-PROBLEM SOLVED
   DENSITIES MADE
   E(CAS)= -2767.505982943 Eh DE=   -5.465304e-07
   --- Energy gap subspaces: Ext-Act = 0.100   Act-Int = 0.082
   N(occ)=  1.00000 1.00000 1.00000 1.00000 1.00000
   ||g|| =     1.086776e-03 Max(G)=   -3.372369e-04 Rot=129,124
   --- Orbital Update [SuperCI(PT)]
   --- Canonicalize Internal Space
   --- Canonicalize External Space
   --- SX_PT (Skipped TA=0 IT=0): ||X|| =      0.000565127 Max(X)(129,124) =     -0.000295654 
   --- SFit(Active Orbitals)

MACRO-ITERATION  16: 
   --- Inactive Energy E0 = -2757.01794312 Eh
CI-ITERATION   0: 
 -2767.592828380   0.000000000000 (    0.09)
   CI-PROBLEM SOLVED
   DENSITIES MADE
CI-ITERATION   0: 
 -2767.464468178   0.000000000000 (    1.09)
 -2767.458978418   0.000000000000
 -2767.457721127   0.000000000000
 -2767.457597489   0.000000000000
 -2767.456727272   0.000000000000
 -2767.456417297   0.000000000000
 -2767.456027396   0.000000000000
 -2767.455641940   0.000000000000
 -2767.455452671   0.000000000000
 -2767.434601385   0.000000000000
 -2767.433900013   0.000000000000
 -2767.429236997   0.000000000000
 -2767.423678683   0.000000000000
 -2767.423046599   0.000000000000
 -2767.422515465   0.000000000000
 -2767.421792383   0.000000000000
 -2767.421551438   0.000000000000
 -2767.362942649   0.000000000000
 -2767.362700622   0.000000000000
 -2767.362388482   0.000000000000
 -2767.361230649   0.000000000000
 -2767.361173339   0.000000000000
 -2767.359941479   0.000000000000
 -2767.359582257   0.000000000000
   CI-PROBLEM SOLVED
   DENSITIES MADE
   E(CAS)= -2767.505983236 Eh DE=   -2.925563e-07
   --- Energy gap subspaces: Ext-Act = 0.100   Act-Int = 0.082
   N(occ)=  1.00000 1.00000 1.00000 1.00000 1.00000
   ||g|| =     5.212807e-04 Max(G)=   -1.330221e-04 Rot=129,124
                     ---- THE CAS-SCF GRADIENT HAS CONVERGED ----
                            --- FINALIZING ORBITALS ---
                    ---- DOING ONE FINAL ITERATION FOR PRINTING ----
   --- Forming Natural Orbitals
   --- Canonicalize Internal Space
   --- Canonicalize External Space

MACRO-ITERATION  17: 
   --- Inactive Energy E0 = -2757.01794312 Eh
   --- All densities will be recomputed
CI-ITERATION   0: 
 -2767.592828379   0.000000000000 (    0.16)
   CI-PROBLEM SOLVED
   DENSITIES MADE
CI-ITERATION   0: 
 -2767.464468178   0.000000000000 (    1.04)
 -2767.458978418   0.000000000000
 -2767.457721126   0.000000000000
 -2767.457597489   0.000000000000
 -2767.456727272   0.000000000000
 -2767.456417297   0.000000000000
 -2767.456027396   0.000000000000
 -2767.455641940   0.000000000000
 -2767.455452670   0.000000000000
 -2767.434601384   0.000000000000
 -2767.433900012   0.000000000000
 -2767.429236996   0.000000000000
 -2767.423678682   0.000000000000
 -2767.423046599   0.000000000000
 -2767.422515465   0.000000000000
 -2767.421792383   0.000000000000
 -2767.421551438   0.000000000000
 -2767.362942649   0.000000000000
 -2767.362700621   0.000000000000
 -2767.362388482   0.000000000000
 -2767.361230648   0.000000000000
 -2767.361173339   0.000000000000
 -2767.359941478   0.000000000000
 -2767.359582256   0.000000000000
   CI-PROBLEM SOLVED
   DENSITIES MADE
   E(CAS)= -2767.505983236 Eh DE=    3.137757e-10
   --- Energy gap subspaces: Ext-Act = 0.089   Act-Int = 0.062
   N(occ)=  1.00000 1.00000 1.00000 1.00000 1.00000
   ||g|| =     5.212807e-04 Max(G)=    1.198096e-04 Rot=129,127
--------------
CASSCF RESULTS
--------------

Final CASSCF energy       : -2767.505983236 Eh  -75307.6664 eV

----------------
ORBITAL ENERGIES
----------------

  NO   OCC          E(Eh)            E(eV) 
   0   2.0000    -240.553891     -6545.8041 
   1   2.0000     -29.130226      -792.6738 
   2   2.0000     -24.835390      -675.8053 
   3   2.0000     -24.835049      -675.7960 
   4   2.0000     -24.834522      -675.7817 
   5   2.0000      -4.731412      -128.7483 
   6   2.0000      -4.724164      -128.5510 
   7   2.0000      -4.716743      -128.3491 
   8   2.0000      -4.712877      -128.2439 
   9   2.0000      -4.712863      -128.2435 
  10   2.0000      -4.711957      -128.2189 
  11   2.0000      -4.711938      -128.2184 
  12   2.0000      -4.709340      -128.1477 
  13   2.0000      -4.709315      -128.1470 
  14   2.0000      -4.708329      -128.1201 
  15   2.0000      -4.708289      -128.1191 
  16   2.0000      -4.698676      -127.8575 
  17   2.0000      -3.836321      -104.3916 
  18   2.0000      -2.770513       -75.3895 
  19   2.0000      -2.767974       -75.3204 
  20   2.0000      -2.767910       -75.3187 
  21   2.0000      -2.763916       -75.2100 
  22   2.0000      -2.760999       -75.1306 
  23   2.0000      -2.758907       -75.0737 
  24   2.0000      -2.755554       -74.9824 
  25   2.0000      -2.755116       -74.9705 
  26   2.0000      -2.753341       -74.9222 
  27   2.0000      -2.752012       -74.8860 
  28   2.0000      -2.751918       -74.8835 
  29   2.0000      -2.749596       -74.8203 
  30   2.0000      -2.749216       -74.8100 
  31   2.0000      -2.748910       -74.8017 
  32   2.0000      -2.748692       -74.7957 
  33   2.0000      -2.747684       -74.7683 
  34   2.0000      -2.747471       -74.7625 
  35   2.0000      -2.747066       -74.7515 
  36   2.0000      -2.746922       -74.7476 
  37   2.0000      -2.746156       -74.7267 
  38   2.0000      -2.746091       -74.7249 
  39   2.0000      -2.745187       -74.7003 
  40   2.0000      -2.745096       -74.6979 
  41   2.0000      -2.744778       -74.6892 
  42   2.0000      -2.744739       -74.6881 
  43   2.0000      -2.743460       -74.6533 
  44   2.0000      -2.743355       -74.6505 
  45   2.0000      -2.742447       -74.6258 
  46   2.0000      -2.742345       -74.6230 
  47   2.0000      -2.741701       -74.6055 
  48   2.0000      -2.741672       -74.6047 
  49   2.0000      -2.739890       -74.5562 
  50   2.0000      -2.739866       -74.5555 
  51   2.0000      -2.735680       -74.4416 
  52   2.0000      -2.733469       -74.3815 
  53   2.0000      -2.733210       -74.3744 
  54   2.0000      -2.505193       -68.1698 
  55   2.0000      -2.503892       -68.1344 
  56   2.0000      -2.503840       -68.1329 
  57   2.0000      -0.575442       -15.6586 
  58   2.0000      -0.556669       -15.1477 
  59   2.0000      -0.556455       -15.1419 
  60   2.0000      -0.550744       -14.9865 
  61   2.0000      -0.545905       -14.8548 
  62   2.0000      -0.544788       -14.8244 
  63   2.0000      -0.543439       -14.7877 
  64   2.0000      -0.540388       -14.7047 
  65   2.0000      -0.539698       -14.6859 
  66   2.0000      -0.535952       -14.5840 
  67   2.0000      -0.535317       -14.5667 
  68   2.0000      -0.533383       -14.5141 
  69   2.0000      -0.532788       -14.4979 
  70   2.0000      -0.530204       -14.4276 
  71   2.0000      -0.525467       -14.2987 
  72   2.0000      -0.523756       -14.2521 
  73   2.0000      -0.521705       -14.1963 
  74   2.0000      -0.517791       -14.0898 
  75   2.0000      -0.514775       -14.0077 
  76   2.0000      -0.512534       -13.9468 
  77   2.0000      -0.509634       -13.8679 
  78   2.0000      -0.509247       -13.8573 
  79   2.0000      -0.505654       -13.7595 
  80   2.0000      -0.504216       -13.7204 
  81   2.0000      -0.501273       -13.6403 
  82   2.0000      -0.493004       -13.4153 
  83   2.0000      -0.491790       -13.3823 
  84   2.0000      -0.487851       -13.2751 
  85   2.0000      -0.487341       -13.2612 
  86   2.0000      -0.481782       -13.1099 
  87   2.0000      -0.475280       -12.9330 
  88   2.0000      -0.473455       -12.8834 
  89   2.0000      -0.469862       -12.7856 
  90   2.0000      -0.465552       -12.6683 
  91   2.0000      -0.460757       -12.5378 
  92   2.0000      -0.459777       -12.5112 
  93   2.0000      -0.456766       -12.4292 
  94   2.0000      -0.455753       -12.4017 
  95   2.0000      -0.455679       -12.3997 
  96   2.0000      -0.454172       -12.3587 
  97   2.0000      -0.452268       -12.3068 
  98   2.0000      -0.451326       -12.2812 
  99   2.0000      -0.449291       -12.2258 
 100   2.0000      -0.443769       -12.0756 
 101   2.0000      -0.443158       -12.0589 
 102   2.0000      -0.442676       -12.0458 
 103   2.0000      -0.441298       -12.0083 
 104   2.0000      -0.436576       -11.8798 
 105   2.0000      -0.436111       -11.8672 
 106   2.0000      -0.435225       -11.8431 
 107   2.0000      -0.433882       -11.8065 
 108   2.0000      -0.427344       -11.6286 
 109   2.0000      -0.427124       -11.6226 
 110   2.0000      -0.426331       -11.6011 
 111   2.0000      -0.422140       -11.4870 
 112   2.0000      -0.419082       -11.4038 
 113   2.0000      -0.418311       -11.3828 
 114   2.0000      -0.414980       -11.2922 
 115   2.0000      -0.410263       -11.1638 
 116   2.0000      -0.408804       -11.1241 
 117   2.0000      -0.389790       -10.6067 
 118   2.0000      -0.361635        -9.8406 
 119   2.0000      -0.351619        -9.5680 
 120   2.0000      -0.304805        -8.2942 
 121   2.0000      -0.241139        -6.5617 
 122   2.0000      -0.237821        -6.4714 
 123   2.0000      -0.220219        -5.9925 
 124   1.0000      -0.157909        -4.2969 
 125   1.0000      -0.141557        -3.8520 
 126   1.0000      -0.153227        -4.1695 
 127   1.0000      -0.156850        -4.2681 
 128   1.0000      -0.155644        -4.2353 
 129   0.0000      -0.052968        -1.4413 
 130   0.0000      -0.018517        -0.5039 
 131   0.0000      -0.000029        -0.0008 
 132   0.0000       0.007650         0.2082 
 133   0.0000       0.008057         0.2192 
 134   0.0000       0.028913         0.7868 
 135   0.0000       0.033467         0.9107 
 136   0.0000       0.048470         1.3189 
 137   0.0000       0.048787         1.3276 
 138   0.0000       0.052797         1.4367 
 139   0.0000       0.070056         1.9063 
 140   0.0000       0.076437         2.0800 
 141   0.0000       0.084736         2.3058 
 142   0.0000       0.085920         2.3380 
 143   0.0000       0.093233         2.5370 
 144   0.0000       0.107237         2.9181 
 145   0.0000       0.109664         2.9841 
 146   0.0000       0.116310         3.1650 
 147   0.0000       0.120550         3.2803 
 148   0.0000       0.129764         3.5311 
 149   0.0000       0.139003         3.7825 
 150   0.0000       0.142951         3.8899 
 151   0.0000       0.144554         3.9335 
 152   0.0000       0.149406         4.0655 
 153   0.0000       0.149571         4.0700 
 154   0.0000       0.150814         4.1039 
 155   0.0000       0.153694         4.1822 
 156   0.0000       0.157061         4.2739 
 157   0.0000       0.160024         4.3545 
 158   0.0000       0.164306         4.4710 
 159   0.0000       0.171307         4.6615 
 160   0.0000       0.184709         5.0262 
 161   0.0000       0.188771         5.1367 
 162   0.0000       0.189679         5.1614 
 163   0.0000       0.191178         5.2022 
 164   0.0000       0.205814         5.6005 
 165   0.0000       0.207271         5.6401 
 166   0.0000       0.220575         6.0021 
 167   0.0000       0.220959         6.0126 
 168   0.0000       0.228342         6.2135 
 169   0.0000       0.243112         6.6154 
 170   0.0000       0.249449         6.7879 
 171   0.0000       0.264052         7.1852 
 172   0.0000       0.264205         7.1894 
 173   0.0000       0.274826         7.4784 
 174   0.0000       0.285068         7.7571 
 175   0.0000       0.291110         7.9215 
 176   0.0000       0.301307         8.1990 
 177   0.0000       0.310104         8.4383 
 178   0.0000       0.310150         8.4396 
 179   0.0000       0.360787         9.8175 
 180   0.0000       0.361801         9.8451 
 181   0.0000       0.374075        10.1791 
 182   0.0000       0.377542        10.2734 
 183   0.0000       0.378504        10.2996 
 184   0.0000       0.388672        10.5763 
 185   0.0000       0.389150        10.5893 
 186   0.0000       0.400361        10.8944 
 187   0.0000       0.401697        10.9307 
 188   0.0000       0.405138        11.0244 
 189   0.0000       0.408260        11.1093 
 190   0.0000       0.415299        11.3009 
 191   0.0000       0.424381        11.5480 
 192   0.0000       0.434429        11.8214 
 193   0.0000       0.434432        11.8215 
 194   0.0000       0.444856        12.1051 
 195   0.0000       0.454393        12.3647 
 196   0.0000       0.462281        12.5793 
 197   0.0000       0.464063        12.6278 
 198   0.0000       0.469972        12.7886 
 199   0.0000       0.476113        12.9557 
 200   0.0000       0.481573        13.1043 
 201   0.0000       0.493498        13.4288 
 202   0.0000       0.495732        13.4896 
 203   0.0000       0.498023        13.5519 
 204   0.0000       0.499671        13.5967 
 205   0.0000       0.501659        13.6508 
 206   0.0000       0.509743        13.8708 
 207   0.0000       0.510927        13.9030 
 208   0.0000       0.518338        14.1047 
 209   0.0000       0.521386        14.1876 
 210   0.0000       0.526359        14.3229 
 211   0.0000       0.530270        14.4294 
 212   0.0000       0.540651        14.7119 
 213   0.0000       0.543931        14.8011 
 214   0.0000       0.545999        14.8574 
 215   0.0000       0.547661        14.9026 
 216   0.0000       0.556520        15.1437 
 217   0.0000       0.563110        15.3230 
 218   0.0000       0.563961        15.3462 
 219   0.0000       0.566209        15.4073 
 220   0.0000       0.569260        15.4904 
 221   0.0000       0.582737        15.8571 
 222   0.0000       0.587793        15.9947 
 223   0.0000       0.599359        16.3094 
 224   0.0000       0.605583        16.4788 
 225   0.0000       0.613644        16.6981 
 226   0.0000       0.615957        16.7610 
 227   0.0000       0.629019        17.1165 
 228   0.0000       0.637675        17.3520 
 229   0.0000       0.639544        17.4029 
 230   0.0000       0.641074        17.4445 
 231   0.0000       0.642351        17.4793 
 232   0.0000       0.653309        17.7775 
 233   0.0000       0.653507        17.7828 
 234   0.0000       0.659828        17.9548 
 235   0.0000       0.674427        18.3521 
 236   0.0000       0.675373        18.3778 
 237   0.0000       0.678438        18.4612 
 238   0.0000       0.691048        18.8044 
 239   0.0000       0.693691        18.8763 
 240   0.0000       0.698565        19.0089 
 241   0.0000       0.698781        19.0148 
 242   0.0000       0.701542        19.0899 
 243   0.0000       0.702895        19.1267 
 244   0.0000       0.710936        19.3456 
 245   0.0000       0.711693        19.3661 
 246   0.0000       0.717475        19.5235 
 247   0.0000       0.728187        19.8150 
 248   0.0000       0.731592        19.9076 
 249   0.0000       0.738148        20.0860 
 250   0.0000       0.750606        20.4250 
 251   0.0000       0.792053        21.5529 
 252   0.0000       0.872431        23.7400 
 253   0.0000       0.915150        24.9025 
 254   0.0000       0.930277        25.3141 
 255   0.0000       0.939759        25.5721 
 256   0.0000       0.957250        26.0481 
 257   0.0000       0.957556        26.0564 
 258   0.0000       0.958428        26.0801 
 259   0.0000       0.977239        26.5920 
 260   0.0000       0.977281        26.5932 
 261   0.0000       0.994360        27.0579 
 262   0.0000       1.006809        27.3967 
 263   0.0000       1.017487        27.6872 
 264   0.0000       1.028372        27.9834 
 265   0.0000       1.050462        28.5845 
 266   0.0000       1.054683        28.6994 
 267   0.0000       1.056523        28.7494 
 268   0.0000       1.070167        29.1207 
 269   0.0000       1.070308        29.1246 
 270   0.0000       1.086133        29.5552 
 271   0.0000       1.094649        29.7869 
 272   0.0000       1.100321        29.9412 
 273   0.0000       1.113932        30.3116 
 274   0.0000       1.127089        30.6697 
 275   0.0000       1.142331        31.0844 
 276   0.0000       1.147561        31.2267 
 277   0.0000       1.153418        31.3861 
 278   0.0000       1.156792        31.4779 
 279   0.0000       1.177205        32.0334 
 280   0.0000       1.179578        32.0980 
 281   0.0000       1.186559        32.2879 
 282   0.0000       1.206926        32.8421 
 283   0.0000       1.207130        32.8477 
 284   0.0000       1.236761        33.6540 
 285   0.0000       1.238890        33.7119 
 286   0.0000       1.281660        34.8758 
 287   0.0000       1.320220        35.9250 
 288   0.0000       1.343309        36.5533 
 289   0.0000       1.375879        37.4396 
 290   0.0000       1.410820        38.3904 
 291   0.0000       1.482285        40.3350 
 292   0.0000       1.556265        42.3481 
 293   0.0000       1.571863        42.7726 
 294   0.0000       1.593398        43.3586 
 295   0.0000       1.607111        43.7317 
 296   0.0000       1.610917        43.8353 
 297   0.0000       1.616368        43.9836 
 298   0.0000       1.620298        44.0906 
 299   0.0000       1.622755        44.1574 
 300   0.0000       1.627657        44.2908 
 301   0.0000       1.642198        44.6865 
 302   0.0000       1.653046        44.9817 
 303   0.0000       1.673104        45.5275 
 304   0.0000       1.676139        45.6101 
 305   0.0000       1.696213        46.1563 
 306   0.0000       1.704132        46.3718 
 307   0.0000       1.719827        46.7989 
 308   0.0000       1.721620        46.8477 
 309   0.0000       1.736202        47.2445 
 310   0.0000       1.740595        47.3640 
 311   0.0000       1.749844        47.6157 
 312   0.0000       1.753785        47.7229 
 313   0.0000       1.766441        48.0673 
 314   0.0000       1.767926        48.1077 
 315   0.0000       1.776355        48.3371 
 316   0.0000       1.778291        48.3897 
 317   0.0000       1.788716        48.6734 
 318   0.0000       1.788762        48.6747 
 319   0.0000       1.790021        48.7090 
 320   0.0000       1.794155        48.8214 
 321   0.0000       1.797143        48.9027 
 322   0.0000       1.803487        49.0754 
 323   0.0000       1.804910        49.1141 
 324   0.0000       1.805573        49.1321 
 325   0.0000       1.813668        49.3524 
[...]
      f+2     :     0.000386
      f-2     :     0.000975
      f+3     :     0.000455
      f-3     :     0.000381
  3 Aus       :     2.471504  s :     2.471504
      pz      :     2.233091  p :     6.514657
      px      :     2.208683
      py      :     2.072883
      dz2     :     1.994486  d :     9.973239
      dxz     :     1.992947
      dyz     :     1.999437
      dx2y2   :     1.992602
      dxy     :     1.993767
      f0      :     0.000766  f :     0.004097
      f+1     :     0.000538
      f-1     :     0.000482
      f+2     :     0.000431
      f-2     :     0.000763
      f+3     :     0.000713
      f-3     :     0.000406
  4 Aus       :     2.544053  s :     2.544053
      pz      :     2.181058  p :     6.508904
      px      :     2.215917
      py      :     2.111929
      dz2     :     1.995655  d :     9.964767
      dxz     :     1.999550
      dyz     :     1.978079
      dx2y2   :     1.997860
      dxy     :     1.993623
      f0      :     0.000782  f :     0.004045
      f+1     :     0.000521
      f-1     :     0.000448
      f+2     :     0.000453
      f-2     :     0.000646
      f+3     :     0.000663
      f-3     :     0.000532
  5 Aus       :     2.668545  s :     2.668545
      pz      :     2.088656  p :     6.339888
      px      :     2.137390
      py      :     2.113842
      dz2     :     1.986172  d :     9.947727
      dxz     :     1.983885
      dyz     :     1.989430
      dx2y2   :     1.998228
      dxy     :     1.990011
      f0      :     0.000445  f :     0.003659
      f+1     :     0.000417
      f-1     :     0.000340
      f+2     :     0.000526
      f-2     :     0.000753
      f+3     :     0.000688
      f-3     :     0.000489
  6 Aus       :     2.543694  s :     2.543694
      pz      :     2.193143  p :     6.509378
      px      :     2.204593
      py      :     2.111642
      dz2     :     1.991346  d :     9.964776
      dxz     :     1.996781
      dyz     :     1.991225
      dx2y2   :     2.004100
      dxy     :     1.981325
      f0      :     0.000885  f :     0.004044
      f+1     :     0.000635
      f-1     :     0.000534
      f+2     :     0.000283
      f-2     :     0.000662
      f+3     :     0.000611
      f-3     :     0.000434
  7 Aus       :     2.620457  s :     2.620457
      pz      :     2.115508  p :     6.279783
      px      :     2.109129
      py      :     2.055146
      dz2     :     2.009396  d :    10.003195
      dxz     :     1.994317
      dyz     :     2.000879
      dx2y2   :     1.999195
      dxy     :     1.999409
      f0      :     0.000712  f :     0.003402
      f+1     :     0.000526
      f-1     :     0.000478
      f+2     :     0.000314
      f-2     :     0.000424
      f+3     :     0.000519
      f-3     :     0.000429
  8 Aus       :     2.456832  s :     2.456832
      pz      :     2.216561  p :     6.549145
      px      :     2.100535
      py      :     2.232049
      dz2     :     2.004271  d :    10.014307
      dxz     :     2.001529
      dyz     :     1.993623
      dx2y2   :     1.995486
      dxy     :     2.019398
      f0      :     0.000850  f :     0.004315
      f+1     :     0.000497
      f-1     :     0.000512
      f+2     :     0.000392
      f-2     :     0.001001
      f+3     :     0.000476
      f-3     :     0.000587
  9 Aus       :     2.355440  s :     2.355440
      pz      :     2.297780  p :     6.668761
      px      :     2.289769
      py      :     2.081212
      dz2     :     2.004871  d :    10.006905
      dxz     :     1.990339
      dyz     :     2.007634
      dx2y2   :     2.001517
      dxy     :     2.002543
      f0      :     0.000902  f :     0.004752
      f+1     :     0.000667
      f-1     :     0.000635
      f+2     :     0.000482
      f-2     :     0.000824
      f+3     :     0.000710
      f-3     :     0.000533
 10 Aus       :     2.456964  s :     2.456964
      pz      :     2.090419  p :     6.548397
      px      :     2.228462
      py      :     2.229516
      dz2     :     1.995415  d :    10.014409
      dxz     :     2.005982
      dyz     :     2.017162
      dx2y2   :     2.001982
      dxy     :     1.993868
      f0      :     0.000438  f :     0.004307
      f+1     :     0.000556
      f-1     :     0.000600
      f+2     :     0.000598
      f-2     :     0.000980
      f+3     :     0.000665
      f-3     :     0.000470
 11 Aus       :     2.394658  s :     2.394658
      pz      :     2.270367  p :     6.666291
      px      :     2.257988
      py      :     2.137935
      dz2     :     1.999538  d :    10.001427
      dxz     :     1.989720
      dyz     :     2.003005
      dx2y2   :     2.003698
      dxy     :     2.005467
      f0      :     0.001070  f :     0.005304
      f+1     :     0.000768
      f-1     :     0.000618
      f+2     :     0.000547
      f-2     :     0.000875
      f+3     :     0.000901
      f-3     :     0.000524
 12 Mns       :     6.277801  s :     6.277801
      pz      :     4.203410  p :    12.636314
      px      :     4.199046
      py      :     4.233858
      dz2     :     1.285670  d :     6.278056
      dxz     :     1.177430
      dyz     :     1.332220
      dx2y2   :     1.174531
      dxy     :     1.308206
      f0      :     0.000144  f :     0.000951
      f+1     :     0.000088
      f-1     :     0.000116
      f+2     :     0.000094
      f-2     :     0.000252
      f+3     :     0.000162
      f-3     :     0.000095

SPIN
  0 Aus       :     0.003601  s :     0.003601
      pz      :     0.000835  p :     0.003778
      px      :     0.001469
      py      :     0.001473
      dz2     :     0.002006  d :     0.011172
      dxz     :     0.002937
      dyz     :     0.002280
      dx2y2   :     0.001904
      dxy     :     0.002045
      f0      :     0.000030  f :     0.000225
      f+1     :     0.000028
      f-1     :     0.000021
      f+2     :     0.000030
      f-2     :     0.000071
      f+3     :     0.000024
      f-3     :     0.000021
  1 Aus       :     0.002743  s :     0.002743
      pz      :     0.000268  p :     0.002392
      px      :     0.000778
      py      :     0.001346
      dz2     :     0.000498  d :     0.006028
      dxz     :     0.001522
      dyz     :     0.000109
      dx2y2   :     0.002464
      dxy     :     0.001434
      f0      :     0.000007  f :     0.000093
      f+1     :     0.000019
      f-1     :     0.000000
      f+2     :     0.000008
      f-2     :     0.000002
      f+3     :     0.000047
      f-3     :     0.000010
  2 Aus       :     0.002748  s :     0.002748
      pz      :     0.000777  p :     0.002382
      px      :     0.000212
      py      :     0.001393
      dz2     :     0.002897  d :     0.006022
      dxz     :     0.001289
      dyz     :     0.001667
      dx2y2   :     0.000095
      dxy     :     0.000074
      f0      :     0.000064  f :     0.000092
      f+1     :     0.000009
      f-1     :     0.000017
      f+2     :     0.000001
      f-2     :     0.000001
      f+3     :     0.000001
      f-3     :     0.000000
  3 Aus       :     0.000536  s :     0.000536
      pz      :     0.001439  p :     0.003311
      px      :     0.001345
      py      :     0.000527
      dz2     :     0.000925  d :     0.008343
      dxz     :     0.001513
      dyz     :     0.001750
      dx2y2   :     0.001841
      dxy     :     0.002313
      f0      :     0.000027  f :     0.000203
      f+1     :     0.000005
      f-1     :     0.000017
      f+2     :     0.000016
      f-2     :     0.000064
      f+3     :     0.000054
      f-3     :     0.000020
  4 Aus       :     0.002910  s :     0.002910
      pz      :     0.001643  p :     0.003835
      px      :     0.000762
      py      :     0.001430
      dz2     :     0.002234  d :     0.010570
      dxz     :     0.002231
      dyz     :     0.003205
      dx2y2   :     0.001655
      dxy     :     0.001246
      f0      :     0.000027  f :     0.000220
      f+1     :     0.000025
      f-1     :     0.000044
      f+2     :     0.000034
      f-2     :     0.000059
      f+3     :     0.000022
      f-3     :     0.000010
  5 Aus       :     0.003610  s :     0.003610
      pz      :     0.001383  p :     0.003774
      px      :     0.000763
      py      :     0.001628
      dz2     :     0.002151  d :     0.011178
      dxz     :     0.002644
      dyz     :     0.002499
      dx2y2   :     0.001871
      dxy     :     0.002013
      f0      :     0.000028  f :     0.000225
      f+1     :     0.000026
      f-1     :     0.000031
      f+2     :     0.000027
      f-2     :     0.000070
      f+3     :     0.000030
      f-3     :     0.000012
  6 Aus       :     0.002904  s :     0.002904
      pz      :     0.000690  p :     0.003842
      px      :     0.001556
      py      :     0.001596
      dz2     :     0.001440  d :     0.010592
      dxz     :     0.002141
      dyz     :     0.001634
      dx2y2   :     0.002439
      dxy     :     0.002939
      f0      :     0.000032  f :     0.000221
      f+1     :     0.000010
      f-1     :     0.000018
      f+2     :     0.000017
      f-2     :     0.000063
      f+3     :     0.000052
      f-3     :     0.000029
  7 Aus       :     0.002329  s :     0.002329
      pz      :     0.000731  p :     0.001570
      px      :     0.000618
      py      :     0.000221
      dz2     :     0.000119  d :     0.000442
      dxz     :     0.000062
      dyz     :     0.000090
      dx2y2   :     0.000091
      dxy     :     0.000080
      f0      :     0.000001  f :     0.000005
      f+1     :     0.000000
      f-1     :     0.000001
      f+2     :     0.000001
      f-2     :     0.000000
      f+3     :     0.000001
      f-3     :     0.000001
  8 Aus       :     0.002134  s :     0.002134
      pz      :     0.000539  p :     0.003060
      px      :     0.000580
      py      :     0.001940
      dz2     :     0.000445  d :     0.001970
      dxz     :     0.000333
      dyz     :     0.000152
      dx2y2   :     0.000836
      dxy     :     0.000204
      f0      :     0.000001  f :     0.000011
      f+1     :     0.000002
      f-1     :     0.000000
      f+2     :     0.000000
      f-2     :     0.000000
      f+3     :     0.000006
      f-3     :     0.000000
  9 Aus       :     0.000336  s :     0.000336
      pz      :     0.001861  p :     0.004205
      px      :     0.001864
      py      :     0.000480
      dz2     :     0.001279  d :     0.009190
      dxz     :     0.001225
      dyz     :     0.001876
      dx2y2   :     0.002237
      dxy     :     0.002572
      f0      :     0.000032  f :     0.000199
      f+1     :     0.000007
      f-1     :     0.000017
      f+2     :     0.000018
      f-2     :     0.000052
      f+3     :     0.000055
      f-3     :     0.000019
 10 Aus       :     0.002137  s :     0.002137
      pz      :     0.000516  p :     0.003048
      px      :     0.000607
      py      :     0.001926
      dz2     :     0.001140  d :     0.001979
      dxz     :     0.000254
      dyz     :     0.000211
      dx2y2   :     0.000214
      dxy     :     0.000160
      f0      :     0.000007  f :     0.000011
      f+1     :     0.000001
      f-1     :     0.000001
      f+2     :     0.000001
      f-2     :     0.000000
      f+3     :     0.000001
      f-3     :     0.000000
 11 Aus       :     0.000452  s :     0.000452
      pz      :     0.001730  p :     0.003601
      px      :     0.001526
      py      :     0.000344
      dz2     :     0.000606  d :     0.005309
      dxz     :     0.001395
      dyz     :     0.001320
      dx2y2   :     0.000588
      dxy     :     0.001400
      f0      :     0.000014  f :     0.000075
      f+1     :     0.000006
      f-1     :     0.000004
      f+2     :     0.000005
      f-2     :     0.000028
      f+3     :     0.000011
      f-3     :     0.000006
 12 Mns       :     0.001031  s :     0.001031
      pz      :     0.000573  p :     0.001748
      px      :     0.000624
      py      :     0.000551
      dz2     :     0.772849  d :     3.847607
      dxz     :     0.774895
      dyz     :     0.759946
      dx2y2   :     0.778424
      dxy     :     0.761493
      f0      :     0.000000  f :     0.000001
      f+1     :     0.000000
      f-1     :     0.000000
      f+2     :     0.000000
      f-2     :     0.000000
      f+3     :     0.000000
      f-3     :     0.000000


                      *****************************
                      * MAYER POPULATION ANALYSIS *
                      *****************************

  NA   - Mulliken gross atomic population
  ZA   - Total nuclear charge
  QA   - Mulliken gross atomic charge
  VA   - Mayer's total valence
  BVA  - Mayer's bonded valence
  FA   - Mayer's free valence

  ATOM       NA         ZA         QA         VA         BVA        FA
  0 Au    18.9440    19.0000     0.0560     1.1913     1.1844     0.0069
  1 Au    18.6974    19.0000     0.3026     1.1459     1.1422     0.0037
  2 Au    18.6984    19.0000     0.3016     1.1462     1.1425     0.0037
  3 Au    18.6768    19.0000     0.3232     1.3321     1.3284     0.0037
  4 Au    19.0031    19.0000    -0.0031     1.5455     1.5390     0.0064
  5 Au    18.9445    19.0000     0.0555     1.1904     1.1835     0.0069
  6 Au    19.0028    19.0000    -0.0028     1.5464     1.5399     0.0065
  7 Au    18.8717    19.0000     0.1283     1.2630     1.2611     0.0019
  8 Au    18.8175    19.0000     0.1825     1.4725     1.4702     0.0023
  9 Au    18.8009    19.0000     0.1991     1.6397     1.6361     0.0035
 10 Au    18.8174    19.0000     0.1826     1.4712     1.4688     0.0023
 11 Au    18.9715    19.0000     0.0285     1.8430     1.8406     0.0024
 12 Mn    26.7540    25.0000    -1.7540     9.0256     4.2488     4.7768

  Mayer bond orders larger than 0.100000
B(  0-Au,  2-Au) :   0.1392 B(  0-Au,  8-Au) :   0.1506 B(  0-Au,  9-Au) :   0.1910 
B(  0-Au, 12-Mn) :   0.5362 B(  1-Au,  3-Au) :   0.2865 B(  1-Au,  4-Au) :   0.1807 
B(  1-Au,  5-Au) :   0.1397 B(  1-Au, 12-Mn) :   0.3580 B(  2-Au,  3-Au) :   0.2867 
B(  2-Au,  6-Au) :   0.1812 B(  2-Au, 12-Mn) :   0.3577 B(  3-Au,  4-Au) :   0.1172 
B(  3-Au,  6-Au) :   0.1163 B(  3-Au, 12-Mn) :   0.3609 B(  4-Au, 10-Au) :   0.2365 
B(  4-Au, 11-Au) :   0.3397 B(  4-Au, 12-Mn) :   0.5238 B(  5-Au,  9-Au) :   0.1902 
B(  5-Au, 10-Au) :   0.1502 B(  5-Au, 12-Mn) :   0.5361 B(  6-Au,  8-Au) :   0.2363 
B(  6-Au, 11-Au) :   0.3406 B(  6-Au, 12-Mn) :   0.5244 B(  7-Au,  8-Au) :   0.2542 
B(  7-Au,  9-Au) :   0.3711 B(  7-Au, 10-Au) :   0.2535 B(  7-Au, 11-Au) :   0.1861 
B(  8-Au,  9-Au) :   0.2104 B(  8-Au, 11-Au) :   0.2599 B(  8-Au, 12-Mn) :   0.2332 
B(  9-Au, 10-Au) :   0.2098 B(  9-Au, 12-Mn) :   0.2952 B( 10-Au, 11-Au) :   0.2598 
B( 10-Au, 12-Mn) :   0.2339 B( 11-Au, 12-Mn) :   0.2327 


-------------------------------------------------------------
 Forming the transition density       ... done in 8.968070 sec
-------------------------------------------------------------



==========================================
CASSCF UV, CD spectra and dipole moments
==========================================
-------------------
ABSORPTION SPECTRUM
-------------------

Center of mass           = ( 16.7996, 15.9603, 13.3670)
Nuclear contribution to the dipole moment =    20.701409,    5.428902,   18.880430 au

Calculating the Dipole integrals                  ... done
Transforming integrals                            ... done
Calculating the Linear Momentum integrals         ... done
Transforming integrals                            ... done
Calculating the Angular Momentum integrals        ... done
Transforming integrals                            ... done

------------------------------------------------------------------------------
                                 DIPOLE MOMENTS
------------------------------------------------------------------------------
  Root  Block           TX        TY        TZ           |T|
                      (Debye)   (Debye)   (Debye)      (Debye)
------------------------------------------------------------------------------
    0    0            0.88440   0.30258   0.80365      1.23270

--------------
CASSCF TIMINGS
--------------

Total time                       ...     1213.3 sec
Sum of individual times          ...     1053.0 sec ( 86.8%)

Calculation of AO operators
   F(Core) operator              ...      433.8 sec ( 35.8%)
   G(Act) operator               ...      401.9 sec ( 33.1%)
   J(AO) operators               ...        0.0 sec (  0.0%)
Calculation of MO transformed quantities
   J(MO) operators               ...       50.8 sec (  4.2%)
   (pq|rs) integrals             ...        0.0 sec (  0.0%)
   AO->MO one electron integrals ...        2.9 sec (  0.2%)
Configuration interaction steps
   CI-setup phase                ...        1.2 sec (  0.1%)
   CI-solution phase             ...      106.5 sec (  8.8%)
   Generation of densities       ...       24.2 sec (  2.0%)
Orbital improvement steps
   Orbital gradient              ...        3.7 sec (  0.3%)
   O(1) converger                ...       19.0 sec (  1.6%)
Properties                       ...        9.0 sec (  0.7%)
   SOC integral calculation      ...        0.0 sec (  0.0%)
   SSC RMEs (incl. integrals)    ...        0.0 sec (  0.0%)
   SOC RMEs                      ...        0.0 sec (  0.0%)

Maximum memory used throughout the entire CASSCF-calculation: 259.7 MB

-------------------------   --------------------
FINAL SINGLE POINT ENERGY     -2767.505983235655
-------------------------   --------------------


                            ***************************************
                            *     ORCA property calculations      *
                            ***************************************

                                    ---------------------
                                    Active property flags
                                    ---------------------
   (+) Dipole Moment


------------------------------------------------------------------------------
                       ORCA ELECTRIC PROPERTIES CALCULATION
------------------------------------------------------------------------------

Dipole Moment Calculation                       ... on
Quadrupole Moment Calculation                   ... off
Polarizability Calculation                      ... off
GBWName                                         ... casscf.gbw
Electron density                                ... casscf.scfp
The origin for moment calculation is the CENTER OF MASS  = (16.799607, 15.960335 13.366985)

-------------
DIPOLE MOMENT
-------------
                                X             Y             Z
Electronic contribution:    -20.35347      -5.30986     -18.56426
Nuclear contribution   :     20.70141       5.42890      18.88043
                        -----------------------------------------
Total Dipole Moment    :      0.34794       0.11904       0.31617
                        -----------------------------------------
Magnitude (a.u.)       :      0.48497
Magnitude (Debye)      :      1.23270



--------------------
Rotational spectrum 
--------------------
 
Rotational constants in cm-1:     0.001587     0.001281     0.001058 
Rotational constants in MHz :    47.579622    38.399301    31.723322 

 Dipole components along the rotational axes: 
x,y,z [a.u.] :    -0.409744     0.002076    -0.259431 
x,y,z [Debye]:    -1.041487     0.005276    -0.659422 

 

Timings for individual modules:

Sum of individual times         ...     1304.035 sec (=  21.734 min)
GTO integral calculation        ...       36.958 sec (=   0.616 min)   2.8 %
SCF iterations                  ...       41.777 sec (=   0.696 min)   3.2 %
CASSCF iterations               ...     1225.300 sec (=  20.422 min)  94.0 %
                             ****ORCA TERMINATED NORMALLY****
TOTAL RUN TIME: 0 days 0 hours 21 minutes 47 seconds 252 msec
