
                                 *****************
                                 * O   R   C   A *
                                 *****************

                                            #,                                       
                                            ###                                      
                                            ####                                     
                                            #####                                    
                                            ######                                   
                                           ########,                                 
                                     ,,################,,,,,                         
                               ,,#################################,,                 
                          ,,##########################################,,             
                       ,#########################################, ''#####,          
                    ,#############################################,,   '####,        
                  ,##################################################,,,,####,       
                ,###########''''           ''''###############################       
              ,#####''   ,,,,##########,,,,          '''####'''          '####       
            ,##' ,,,,###########################,,,                        '##       
           ' ,,###''''                  '''############,,,                           
         ,,##''                                '''############,,,,        ,,,,,,###''
      ,#''                                            '''#######################'''  
     '                                                          ''''####''''         
             ,#######,   #######,   ,#######,      ##                                
            ,#'     '#,  ##    ##  ,#'     '#,    #''#        ######   ,####,        
            ##       ##  ##   ,#'  ##            #'  '#       #        #'  '#        
            ##       ##  #######   ##           ,######,      #####,   #    #        
            '#,     ,#'  ##    ##  '#,     ,#' ,#      #,         ##   #,  ,#        
             '#######'   ##     ##  '#######'  #'      '#     #####' # '####'        



                  #######################################################
                  #                        -***-                        #
                  #          Department of theory and spectroscopy      #
                  #    Directorship and core code : Frank Neese         #
                  #        Max Planck Institute fuer Kohlenforschung    #
                  #                Kaiser Wilhelm Platz 1               #
                  #                 D-45470 Muelheim/Ruhr               #
                  #                      Germany                        #
                  #                                                     #
                  #                  All rights reserved                #
                  #                        -***-                        #
                  #######################################################


                         Program Version 5.0.3 -  RELEASE  -


 With contributions from (in alphabetic order):
   Daniel Aravena         : Magnetic Suceptibility
   Michael Atanasov       : Ab Initio Ligand Field Theory (pilot matlab implementation)
   Alexander A. Auer      : GIAO ZORA, VPT2 properties, NMR spectrum
   Ute Becker             : Parallelization
   Giovanni Bistoni       : ED, misc. LED, open-shell LED, HFLD
   Martin Brehm           : Molecular dynamics
   Dmytro Bykov           : SCF Hessian
   Vijay G. Chilkuri      : MRCI spin determinant printing, contributions to CSF-ICE
   Dipayan Datta          : RHF DLPNO-CCSD density
   Achintya Kumar Dutta   : EOM-CC, STEOM-CC
   Dmitry Ganyushin       : Spin-Orbit,Spin-Spin,Magnetic field MRCI
   Miquel Garcia          : C-PCM and meta-GGA Hessian, CC/C-PCM, Gaussian charge scheme
   Yang Guo               : DLPNO-NEVPT2, F12-NEVPT2, CIM, IAO-localization
   Andreas Hansen         : Spin unrestricted coupled pair/coupled cluster methods
   Benjamin Helmich-Paris : MC-RPA, TRAH-SCF, COSX integrals
   Lee Huntington         : MR-EOM, pCC
   Robert Izsak           : Overlap fitted RIJCOSX, COSX-SCS-MP3, EOM
   Marcus Kettner         : VPT2
   Christian Kollmar      : KDIIS, OOCD, Brueckner-CCSD(T), CCSD density, CASPT2, CASPT2-K
   Simone Kossmann        : Meta GGA functionals, TD-DFT gradient, OOMP2, MP2 Hessian
   Martin Krupicka        : Initial AUTO-CI
   Lucas Lang             : DCDCAS
   Marvin Lechner         : AUTO-CI (C++ implementation), FIC-MRCC
   Dagmar Lenk            : GEPOL surface, SMD
   Dimitrios Liakos       : Extrapolation schemes; Compound Job, initial MDCI parallelization
   Dimitrios Manganas     : Further ROCIS development; embedding schemes
   Dimitrios Pantazis     : SARC Basis sets
   Anastasios Papadopoulos: AUTO-CI, single reference methods and gradients
   Taras Petrenko         : DFT Hessian,TD-DFT gradient, ASA, ECA, R-Raman, ABS, FL, XAS/XES, NRVS
   Peter Pinski           : DLPNO-MP2, DLPNO-MP2 Gradient
   Christoph Reimann      : Effective Core Potentials
   Marius Retegan         : Local ZFS, SOC
   Christoph Riplinger    : Optimizer, TS searches, QM/MM, DLPNO-CCSD(T), (RO)-DLPNO pert. Triples
   Tobias Risthaus        : Range-separated hybrids, TD-DFT gradient, RPA, STAB
   Michael Roemelt        : Original ROCIS implementation
   Masaaki Saitow         : Open-shell DLPNO-CCSD energy and density
   Barbara Sandhoefer     : DKH picture change effects
   Avijit Sen             : IP-ROCIS
   Kantharuban Sivalingam : CASSCF convergence, NEVPT2, FIC-MRCI
   Bernardo de Souza      : ESD, SOC TD-DFT
   Georgi Stoychev        : AutoAux, RI-MP2 NMR, DLPNO-MP2 response
   Willem Van den Heuvel  : Paramagnetic NMR
   Boris Wezisla          : Elementary symmetry handling
   Frank Wennmohs         : Technical directorship


 We gratefully acknowledge several colleagues who have allowed us to
 interface, adapt or use parts of their codes:
   Stefan Grimme, W. Hujo, H. Kruse, P. Pracht,  : VdW corrections, initial TS optimization,
                  C. Bannwarth, S. Ehlert          DFT functionals, gCP, sTDA/sTD-DF
   Ed Valeev, F. Pavosevic, A. Kumar             : LibInt (2-el integral package), F12 methods
   Garnet Chan, S. Sharma, J. Yang, R. Olivares  : DMRG
   Ulf Ekstrom                                   : XCFun DFT Library
   Mihaly Kallay                                 : mrcc  (arbitrary order and MRCC methods)
   Jiri Pittner, Ondrej Demel                    : Mk-CCSD
   Frank Weinhold                                : gennbo (NPA and NBO analysis)
   Christopher J. Cramer and Donald G. Truhlar   : smd solvation model
   Lars Goerigk                                  : TD-DFT with DH, B97 family of functionals
   V. Asgeirsson, H. Jonsson                     : NEB implementation
   FAccTs GmbH                                   : IRC, NEB, NEB-TS, DLPNO-Multilevel, CI-OPT
                                                   MM, QMMM, 2- and 3-layer-ONIOM, Crystal-QMMM,
                                                   LR-CPCM, SF, NACMEs, symmetry and pop. for TD-DFT,
                                                   nearIR, NL-DFT gradient (VV10), updates on ESD,
                                                   ML-optimized integration grids
   S Lehtola, MJT Oliveira, MAL Marques          : LibXC Library
   Liviu Ungur et al                             : ANISO software


 Your calculation uses the libint2 library for the computation of 2-el integrals
 For citations please refer to: http://libint.valeyev.net

 Your ORCA version has been built with support for libXC version: 5.1.0
 For citations please refer to: https://tddft.org/programs/libxc/

 This ORCA versions uses:
   CBLAS   interface :  Fast vector & matrix operations
   LAPACKE interface :  Fast linear algebra routines
   SCALAPACK package :  Parallel linear algebra routines
   Shared memory     :  Shared parallel matrices
   BLAS/LAPACK       :  OpenBLAS 0.3.15  USE64BITINT DYNAMIC_ARCH NO_AFFINITY Haswell SINGLE_THREADED
        Core in use  :  Haswell
   Copyright (c) 2011-2014, The OpenBLAS Project




***************************************
The coordinates will be read from file: 1.xyz
***************************************


================================================================================

cite the ECPs for Au [Def2-ECP] as follows:
Ce-Yb(ecp-28): M. Dolg, H. Stoll, H.Preuss, J. Chem. Phys., 1989, 90, 1730-1734.
Y-Cd(ecp-28), Hf-Hg(ecp-46): D. Andrae,U. Haeussermann, M. Dolg, H. Stoll, H. Preuss, Theor. Chim. Acta, 1990, 77, 123-141.
In-Sb(ecp-28), Tl-Bi(ecp-46): B. Metz, H. Stoll, M. Dolg, J. Chem. Phys., 2000, 113, 2563-2569.
Te-Xe(ecp-28), Po-Rn(ecp-46): K. A. Peterson, D. Figgen, E. Goll, H. Stoll, M. Dolg, J. Chem. Phys., 2003, 119, 11113-11123.
Rb(ecp-28), Cs(ecp-46): T. Leininger, A. Nicklass, W. Kuechle, H. Stoll, M. Dolg, A. Bergner, Chem. Phys. Lett., 1996, 255, 274-280.
Sr(ecp-28), Ba(ecp-46): M. Kaupp, P. V. Schleyer, H. Stoll and H. Preuss, J. Chem. Phys., 1991, 94, 1360-1366.
La(ecp-46): M. Dolg, H. Stoll, A. Savin, H. Preuss, Theor. Chim. Acta, 1989, 75, 173-194.
Lu(ecp-28): X. Cao, M. Dolg, J. Chem. Phys., 2001, 115, 7348-7355.

ECP parameters for Au [Def2-ECP] have been obtained from:
TURBOMOLE (7.0.2)

----- Orbital basis set information -----
Your calculation utilizes the basis: def2-TZVP
   F. Weigend and R. Ahlrichs, Phys. Chem. Chem. Phys. 7, 3297 (2005).

----- AuxJ basis set information -----
Your calculation utilizes the auxiliary basis: def2/J
   F. Weigend, Phys. Chem. Chem. Phys. 8, 1057 (2006).

================================================================================
                                        WARNINGS
                       Please study these warnings very carefully!
================================================================================


WARNING: your system is open-shell and RHF/RKS was chosen
  ===> : WILL SWITCH to UHF/UKS


WARNING: Geometry Optimization
  ===> : Switching off AutoStart
         For restart on a previous wavefunction, please use MOREAD

INFO   : the flag for use of the SHARK integral package has been found!

================================================================================
                                       INPUT FILE
================================================================================
NAME = pbe.inp
|  1> %pal nprocs 1 end 
|  2> 
|  3> !PBE def2-TZVP OPT UNO
|  4> !SLOWCONV
|  5> 
|  6> *xyzfile 0 6 1.xyz                           ****END OF INPUT****
================================================================================

                       *****************************
                       * Geometry Optimization Run *
                       *****************************

Geometry optimization settings:
Update method            Update   .... BFGS
Choice of coordinates    CoordSys .... Z-matrix Internals
Initial Hessian          InHess   .... Almoef's Model

Convergence Tolerances:
Energy Change            TolE     ....  5.0000e-06 Eh
Max. Gradient            TolMAXG  ....  3.0000e-04 Eh/bohr
RMS Gradient             TolRMSG  ....  1.0000e-04 Eh/bohr
Max. Displacement        TolMAXD  ....  4.0000e-03 bohr
RMS Displacement         TolRMSD  ....  2.0000e-03 bohr
Strict Convergence                ....  False
------------------------------------------------------------------------------
                        ORCA OPTIMIZATION COORDINATE SETUP
------------------------------------------------------------------------------

The optimization will be done in new redundant internal coordinates
Making redundant internal coordinates   ...  (new redundants) done
Evaluating the initial hessian          ...  (Almloef) done
Evaluating the coordinates              ...  done
Calculating the B-matrix                .... done
Calculating the G-matrix                .... done
Diagonalizing the G-matrix              .... done
The first mode is                       ....  451
The number of degrees of freedom        ....   42

    -----------------------------------------------------------------
                    Redundant Internal Coordinates


    -----------------------------------------------------------------
         Definition                    Initial Value    Approx d2E/dq
    -----------------------------------------------------------------
      1. B(Au  1,Au  0)                  2.8307         0.006086   
      2. B(Au  2,Au  0)                  2.7945         0.006951   
      3. B(Au  3,Au  2)                  2.9583         0.003809   
      4. B(Au  3,Au  0)                  2.7990         0.006838   
      5. B(Au  5,Au  0)                  2.8146         0.006458   
      6. B(Au  5,Au  1)                  2.7862         0.007168   
      7. B(Au  6,Au  3)                  2.7424         0.008419   
      8. B(Au  6,Au  2)                  2.9389         0.004090   
      9. B(Au  7,Au  6)                  2.8014         0.006778   
     10. B(Au  8,Au  6)                  2.9390         0.004088   
     11. B(Au  8,Au  3)                  2.9585         0.003806   
     12. B(Au 10,Au  1)                  2.7860         0.007172   
     13. B(Au 11,Au  3)                  2.7993         0.006831   
     14. B(Au 11,Au  8)                  2.7945         0.006951   
     15. B(Au 11,Au  1)                  2.8308         0.006085   
     16. B(Au 11,Au  0)                  3.0124         0.003122   
     17. B(Au 11,Au 10)                  2.8144         0.006463   
     18. B(Au 14,Au  6)                  2.8014         0.006778   
     19. B(Fe 15,Au  6)                  3.0715         0.018268   
     20. B(Fe 15,Au 10)                  2.8639         0.039162   
     21. B(Fe 15,Au  9)                  2.6885         0.074595   
     22. B(Fe 15,Au  5)                  2.8640         0.039155   
     23. B(Fe 15,Au 14)                  2.7057         0.070040   
     24. B(Fe 15,Au  8)                  2.6668         0.080794   
     25. B(Fe 15,Au 13)                  2.6415         0.088679   
     26. B(Fe 15,Au 12)                  2.7335         0.063244   
     27. B(Fe 15,Au  7)                  2.7057         0.070037   
     28. B(Fe 15,Au  4)                  2.6887         0.074560   
     29. B(Fe 15,Au  2)                  2.6669         0.080774   
     30. A(Au  3,Au  0,Au 11)           57.4501         0.130216   
     31. A(Au  1,Au  0,Au  5)           59.1466         0.136323   
     32. A(Au  2,Au  0,Au  5)           64.6961         0.137767   
     33. A(Au  2,Au  0,Au 11)          101.5247         0.130370   
     34. A(Au  1,Au  0,Au  3)          113.7665         0.136939   
     35. A(Au  5,Au  0,Au 11)           90.5469         0.129687   
     36. A(Au  1,Au  0,Au 11)           57.8541         0.129145   
     37. A(Au  2,Au  0,Au  3)           63.8583         0.138402   
     38. A(Au  3,Au  0,Au  5)          109.2813         0.137586   
     39. A(Au  1,Au  0,Au  2)          118.4943         0.137118   
     40. A(Au  5,Au  1,Au 11)           95.0274         0.137451   
     41. A(Au  0,Au  1,Au 10)           95.0222         0.137459   
     42. A(Au  0,Au  1,Au 11)           64.2938         0.135690   
     43. A(Au 10,Au  1,Au 11)           60.1341         0.137457   
     44. A(Au  5,Au  1,Au 10)           66.7632         0.139287   
     45. A(Au  0,Au  1,Au  5)           60.1382         0.137453   
     46. A(Au  0,Au  2,Au  6)          112.0429         0.132978   
     47. A(Au  6,Au  2,Fe 15)           66.2423         0.174928   
     48. A(Au  3,Au  2,Au  6)           55.4235         0.127380   
     49. A(Au  0,Au  2,Fe 15)           95.6642         0.185887   
     50. A(Au  3,Au  2,Fe 15)           84.6685         0.173555   
     51. A(Au  0,Au  2,Au  3)           58.1446         0.132275   
     52. A(Au  0,Au  3,Au  2)           57.9971         0.132114   
     53. A(Au  2,Au  3,Au  8)           88.5045         0.126760   
     54. A(Au  8,Au  3,Au 11)           57.9917         0.132097   
     55. A(Au  0,Au  3,Au 11)           65.1081         0.138207   
     56. A(Au  2,Au  3,Au 11)          102.7690         0.132105   
     57. A(Au  2,Au  3,Au  6)           61.9301         0.134193   
     58. A(Au  0,Au  3,Au  6)          118.2060         0.140592   
     59. A(Au  6,Au  3,Au 11)          118.2024         0.140580   
     60. A(Au  0,Au  3,Au  8)          102.7645         0.132106   
     61. A(Au  6,Au  3,Au  8)           61.9302         0.134185   
     62. A(Au  1,Au  5,Fe 15)          106.8964         0.171814   
     63. A(Au  0,Au  5,Fe 15)           90.9544         0.169882   
     64. A(Au  0,Au  5,Au  1)           60.7152         0.138107   
     65. A(Au  8,Au  6,Au 14)           59.7867         0.132722   
     66. A(Au  2,Au  6,Fe 15)           52.6251         0.150378   
     67. A(Au  3,Au  6,Au  7)          121.0914         0.140489   
     68. A(Au  7,Au  6,Au 14)           65.3117         0.138022   
     69. A(Au  2,Au  6,Au 14)          104.7649         0.132727   
     70. A(Au  2,Au  6,Au  8)           89.2441         0.127999   
     71. A(Au  2,Au  6,Au  3)           62.6464         0.134927   
     72. A(Au  2,Au  6,Au  7)           59.7877         0.132727   
     73. A(Au  3,Au  6,Au  8)           62.6499         0.134922   
     74. A(Au  7,Au  6,Au  8)          104.7627         0.132722   
     75. A(Au  7,Au  6,Fe 15)           54.6311         0.157811   
     76. A(Au  3,Au  6,Au 14)          121.0938         0.140489   
     77. A(Au  3,Au  6,Fe 15)           81.2684         0.161273   
     78. A(Au  8,Au  6,Fe 15)           52.6225         0.150371   
     79. A(Au 14,Au  6,Fe 15)           54.6310         0.157811   
     80. A(Au  6,Au  7,Fe 15)           67.7730         0.182273   
     81. A(Au 11,Au  8,Fe 15)           95.6683         0.185893   
     82. A(Au  6,Au  8,Au 11)          112.0438         0.132973   
     83. A(Au  6,Au  8,Fe 15)           66.2411         0.174923   
     84. A(Au  3,Au  8,Au  6)           55.4199         0.127369   
     85. A(Au  3,Au  8,Au 11)           58.1479         0.132267   
     86. A(Au  3,Au  8,Fe 15)           84.6653         0.173544   
     87. A(Au  1,Au 10,Au 11)           60.7210         0.138122   
     88. A(Au 11,Au 10,Fe 15)           90.9620         0.169899   
     89. A(Au  1,Au 10,Fe 15)          106.9017         0.171827   
     90. A(Au  0,Au 11,Au  8)          101.5198         0.130370   
     91. A(Au  0,Au 11,Au  1)           57.8521         0.129142   
     92. A(Au  3,Au 11,Au 10)          109.2761         0.137584   
     93. A(Au  3,Au 11,Au  8)           63.8604         0.138392   
     94. A(Au  1,Au 11,Au  3)          113.7565         0.136926   
     95. A(Au  0,Au 11,Au  3)           57.4418         0.130207   
     96. A(Au  8,Au 11,Au 10)           64.6948         0.137776   
     97. A(Au  1,Au 11,Au 10)           59.1448         0.136329   
     98. A(Au  0,Au 11,Au 10)           90.5419         0.129694   
     99. A(Au  1,Au 11,Au  8)          118.4906         0.137115   
    100. A(Au  6,Au 14,Fe 15)           67.7732         0.182275   
    101. A(Au  7,Fe 15,Au 13)           65.4189         0.276207   
    102. A(Au  5,Fe 15,Au 13)          114.8922         0.253120   
    103. A(Au  8,Fe 15,Au  9)           68.0300         0.274937   
    104. A(Au  6,Fe 15,Au 13)          109.6468         0.227109   
    105. A(Au  6,Fe 15,Au 10)          123.2404         0.203784   
    106. A(Au  4,Fe 15,Au 13)           66.9566         0.278878   
    107. A(Au  6,Fe 15,Au  8)           61.1364         0.224229   
    108. A(Au  5,Fe 15,Au  6)          123.2417         0.203780   
    109. A(Au  2,Fe 15,Au 13)          123.2298         0.282349   
    110. A(Au  7,Fe 15,Au  9)          121.9339         0.269020   
    111. A(Au  2,Fe 15,Au  8)          101.4477         0.278317   
    112. A(Au  2,Fe 15,Au  6)           61.1327         0.224221   
    113. A(Au 10,Fe 15,Au 12)           61.1385         0.241038   
    114. A(Au  9,Fe 15,Au 12)           65.0284         0.264910   
    115. A(Au  5,Fe 15,Au  9)          115.2778         0.246820   
    116. A(Au  8,Fe 15,Au 12)          121.3627         0.268118   
    117. A(Au  7,Fe 15,Au 12)          118.1274         0.262418   
    118. A(Au  4,Fe 15,Au  9)          122.3041         0.271588   
    119. A(Au  5,Fe 15,Au  7)          113.6717         0.244584   
    120. A(Au  4,Fe 15,Au  5)           59.2920         0.246803   
    121. A(Au  5,Fe 15,Au 12)           61.1365         0.241032   
    122. A(Au  4,Fe 15,Au 12)           65.0323         0.264892   
    123. A(Au  2,Fe 15,Au  9)          169.0989         0.274927   
    124. A(Au 13,Fe 15,Au 14)           65.4190         0.276208   
    125. A(Au 12,Fe 15,Au 14)          118.1278         0.262420   
    126. A(Au  2,Fe 15,Au 12)          121.3659         0.268108   
    127. A(Au 10,Fe 15,Au 14)          113.6760         0.244591   
    128. A(Au  9,Fe 15,Au 14)           63.2727         0.269021   
    129. A(Au  9,Fe 15,Au 10)           59.2953         0.246826   
    130. A(Au  7,Fe 15,Au  8)          115.6604         0.272303   
    131. A(Au  4,Fe 15,Au  7)           63.2688         0.269001   
    132. A(Au  8,Fe 15,Au 14)           64.4097         0.272304   
    133. A(Au  7,Fe 15,Au 14)           67.9293         0.266471   
    134. A(Au  8,Fe 15,Au 10)           65.6113         0.249704   
    135. A(Au  4,Fe 15,Au 14)          121.9319         0.269003   
    136. A(Au  2,Fe 15,Au 14)          115.6569         0.272294   
    137. A(Au  5,Fe 15,Au 10)           64.7223         0.225402   
    138. A(Au  5,Fe 15,Au  8)          114.5704         0.249697   
    139. A(Au  4,Fe 15,Au  6)          113.4057         0.221793   
    140. A(Au 12,Fe 15,Au 13)           64.7430         0.271933   
    141. A(Au  6,Fe 15,Au  7)           57.5959         0.219926   
    142. A(Au 10,Fe 15,Au 13)          114.8968         0.253127   
    143. A(Au  6,Fe 15,Au  9)          113.4101         0.221807   
    144. A(Au  4,Fe 15,Au 10)          115.2798         0.246810   
    145. A(Au  6,Fe 15,Au 12)          174.3898         0.216937   
    146. A(Au  9,Fe 15,Au 13)           66.9560         0.278897   
    147. A(Au  6,Fe 15,Au 14)           57.5959         0.219927   
    148. A(Au  8,Fe 15,Au 13)          123.2296         0.282360   
    149. A(Au  2,Fe 15,Au 10)          114.5666         0.249695   
    150. A(Au  4,Fe 15,Au  8)          169.0985         0.274917   
    151. A(Au  2,Fe 15,Au  7)           64.4081         0.272293   
    152. A(Au  2,Fe 15,Au  5)           65.6140         0.249688   
    153. A(Au  2,Fe 15,Au  4)           68.0295         0.274907   
    154. D(Au 10,Au  1,Au  0,Au  2)    -32.4975         0.001501   
    155. D(Au  5,Au  1,Au  0,Au  3)     99.0456         0.001501   
    156. D(Au 10,Au  1,Au  0,Au  5)    -59.5264         0.001501   
    157. D(Au 10,Au  1,Au  0,Au  3)     39.5193         0.001501   
    158. D(Au 10,Au  1,Au  0,Au 11)     53.3372         0.001501   
    159. D(Au 11,Au  1,Au  0,Au  5)   -112.8636         0.001501   
    160. D(Au 11,Au  1,Au  0,Au  3)    -13.8180         0.001501   
    161. D(Au  5,Au  1,Au  0,Au  2)     27.0288         0.001501   
    162. D(Au  5,Au  1,Au  0,Au 11)    112.8636         0.001501   
    163. D(Au 11,Au  1,Au  0,Au  2)    -85.8348         0.001501   
    164. D(Fe 15,Au  2,Au  0,Au  5)     49.5892         0.001502   
    165. D(Fe 15,Au  2,Au  0,Au  3)    -80.1215         0.001502   
    166. D(Fe 15,Au  2,Au  0,Au  1)     24.0244         0.001502   
    167. D(Fe 15,Au  2,Au  0,Au 11)    -35.4989         0.001502   
    168. D(Au  6,Au  2,Au  0,Au  1)     90.6576         0.001502   
    169. D(Au  3,Au  2,Au  0,Au  5)    129.7107         0.001502   
    170. D(Au  6,Au  2,Au  0,Au  5)    116.2224         0.001502   
    171. D(Au  3,Au  2,Au  0,Au  1)    104.1459         0.001502   
    172. D(Au  6,Au  2,Au  0,Au 11)     31.1344         0.001502   
    173. D(Au  6,Au  2,Au  0,Au  3)    -13.4882         0.001502   
    174. D(Au  3,Au  2,Au  0,Au 11)     44.6226         0.001502   
    175. D(Au  2,Au  3,Au  0,Au 11)   -125.2611         0.001502   
    176. D(Au  8,Au  3,Au  0,Au  5)     32.5706         0.001502   
    177. D(Au  8,Au  3,Au  0,Au 11)    -45.2310         0.001502   
    178. D(Au  8,Au  3,Au  0,Au  1)    -31.3500         0.001502   
    179. D(Au 11,Au  3,Au  0,Au  2)    125.2611         0.001502   
    180. D(Au  8,Au  3,Au  0,Au  2)     80.0301         0.001502   
    181. D(Au  6,Au  3,Au  0,Au  2)     15.2427         0.001502   
    182. D(Au 11,Au  3,Au  0,Au  1)     13.8810         0.001502   
    183. D(Au  2,Au  3,Au  0,Au  1)   -111.3801         0.001502   
    184. D(Au 11,Au  3,Au  2,Au  6)    115.3606         0.001501   
    185. D(Au 11,Au  3,Au  0,Au  5)     77.8017         0.001502   
    186. D(Au 11,Au  3,Au  2,Au  0)    -49.4165         0.001501   
    187. D(Au  8,Au  3,Au  2,Fe 15)     -6.0173         0.001501   
    188. D(Au  0,Au  3,Au  2,Au  6)    164.7771         0.001501   
    189. D(Au  0,Au  3,Au  2,Fe 15)    100.0607         0.001501   
    190. D(Au  8,Au  3,Au  2,Au  0)   -106.0780         0.001501   
    191. D(Au  8,Au  3,Au  2,Au  6)     58.6991         0.001501   
    192. D(Au  6,Au  3,Au  0,Au  1)    -96.1373         0.001502   
    193. D(Au  6,Au  3,Au  2,Au  0)   -164.7771         0.001501   
    194. D(Au  6,Au  3,Au  0,Au  5)    -32.2167         0.001502   
    195. D(Au  6,Au  3,Au  0,Au 11)   -110.0184         0.001502   
    196. D(Au  6,Au  3,Au  2,Fe 15)    -64.7164         0.001501   
    197. D(Au  2,Au  3,Au  0,Au  5)    -47.4595         0.001502   
    198. D(Au 11,Au  3,Au  2,Fe 15)     50.6442         0.001501   
    199. D(Fe 15,Au  5,Au  0,Au  1)    108.9009         0.001501   
    200. D(Au  1,Au  5,Au  0,Au  3)   -106.7598         0.001501   
    201. D(Au  1,Au  5,Au  0,Au 11)    -51.2797         0.001501   
    202. D(Fe 15,Au  5,Au  1,Au 11)    -24.8960         0.001502   
    203. D(Fe 15,Au  5,Au  1,Au  0)    -81.3502         0.001502   
    204. D(Au  0,Au  5,Au  1,Au 10)    110.8773         0.001502   
    205. D(Fe 15,Au  5,Au  1,Au 10)     29.5271         0.001502   
    206. D(Au  1,Au  5,Au  0,Au  2)   -153.7827         0.001501   
    207. D(Fe 15,Au  5,Au  0,Au  3)      2.1411         0.001501   
    208. D(Fe 15,Au  5,Au  0,Au 11)     57.6212         0.001501   
    209. D(Au  0,Au  5,Au  1,Au 11)     56.4543         0.001502   
    210. D(Fe 15,Au  5,Au  0,Au  2)    -44.8818         0.001501   
    211. D(Au  8,Au  6,Au  2,Fe 15)     41.0709         0.001501   
    212. D(Au  7,Au  6,Au  2,Au  0)   -152.9936         0.001501   
    213. D(Au  3,Au  6,Au  2,Au  0)     13.9228         0.001501   
    214. D(Au  7,Au  6,Au  2,Fe 15)    -66.5415         0.001501   
    215. D(Au  3,Au  6,Au  2,Fe 15)    100.3749         0.001501   
    216. D(Au  7,Au  6,Au  2,Au  3)   -166.9165         0.001501   
    217. D(Fe 15,Au  6,Au  3,Au 11)    -37.6349         0.001503   
    218. D(Au 14,Au  6,Au  3,Au  8)    -13.2056         0.001503   
    219. D(Au 14,Au  6,Au  3,Au 11)      1.4227         0.001503   
    220. D(Au 14,Au  6,Au  3,Au  0)     76.6872         0.001503   
    221. D(Au  8,Au  6,Au  3,Au 11)     14.6282         0.001503   
    222. D(Au 14,Au  6,Au  3,Au  2)     91.3229         0.001503   
    223. D(Au  8,Au  6,Au  3,Au  2)    104.5285         0.001503   
    224. D(Au  2,Au  6,Au  3,Au  0)    -14.6358         0.001503   
    225. D(Au  2,Au  6,Au  3,Au  8)   -104.5285         0.001503   
    226. D(Au  7,Au  6,Au  3,Au  0)     -1.4306         0.001503   
    227. D(Au  7,Au  6,Au  3,Au  2)     13.2052         0.001503   
    228. D(Au  7,Au  6,Au  3,Au  8)    -91.3233         0.001503   
    229. D(Au  2,Au  6,Au  3,Au 11)    -89.9003         0.001503   
    230. D(Au  7,Au  6,Au  3,Au 11)    -76.6951         0.001503   
    231. D(Fe 15,Au  6,Au  2,Au  3)   -100.3749         0.001501   
    232. D(Fe 15,Au  6,Au  2,Au  0)    -86.4521         0.001501   
    233. D(Au 14,Au  6,Au  2,Au  0)   -103.7851         0.001501   
    234. D(Au 14,Au  6,Au  2,Au  3)   -117.7080         0.001501   
    235. D(Fe 15,Au  6,Au  3,Au  2)     52.2653         0.001503   
    236. D(Au 14,Au  6,Au  2,Fe 15)    -17.3330         0.001501   
    237. D(Fe 15,Au  6,Au  3,Au  8)    -52.2632         0.001503   
    238. D(Au  8,Au  6,Au  2,Au  3)    -59.3040         0.001501   
    239. D(Au  8,Au  6,Au  2,Au  0)    -45.3812         0.001501   
    240. D(Fe 15,Au  6,Au  3,Au  0)     37.6296         0.001503   
    241. D(Au  8,Au  6,Au  3,Au  0)     89.8927         0.001503   
    242. D(Fe 15,Au  7,Au  6,Au 14)    -62.9387         0.001502   
    243. D(Fe 15,Au  7,Au  6,Au  8)    -16.8775         0.001502   
    244. D(Fe 15,Au  7,Au  6,Au  3)     49.8001         0.001502   
    245. D(Fe 15,Au  7,Au  6,Au  2)     63.3793         0.001502   
    246. D(Au 11,Au  8,Au  3,Au  6)    164.7835         0.001501   
    247. D(Fe 15,Au  8,Au  6,Au  2)    -41.0726         0.001501   
    248. D(Au  3,Au  8,Au  6,Au  7)    117.7064         0.001501   
    249. D(Au  3,Au  8,Au  6,Au  2)     59.3010         0.001501   
    250. D(Au 11,Au  8,Au  6,Au  7)    103.7888         0.001501   
    251. D(Au 11,Au  8,Au  6,Au 14)    152.9987         0.001501   
    252. D(Au 11,Au  8,Au  6,Au  3)    -13.9176         0.001501   
    253. D(Fe 15,Au  8,Au  6,Au 14)     66.5427         0.001501   
    254. D(Fe 15,Au  8,Au  6,Au  7)     17.3329         0.001501   
    255. D(Fe 15,Au  8,Au  6,Au  3)   -100.3736         0.001501   
    256. D(Au  3,Au  8,Au  6,Au 14)    166.9163         0.001501   
    257. D(Au 11,Au  8,Au  6,Fe 15)     86.4559         0.001501   
    258. D(Au  6,Au  8,Au  3,Au 11)   -164.7835         0.001501   
    259. D(Au 11,Au  8,Au  6,Au  2)     45.3834         0.001501   
    260. D(Au  6,Au  8,Au  3,Au  2)    -58.6990         0.001501   
    261. D(Au  6,Au  8,Au  3,Au  0)   -115.3669         0.001501   
    262. D(Au  3,Au  8,Au  6,Fe 15)    100.3736         0.001501   
    263. D(Au 11,Au  8,Au  3,Au  2)    106.0845         0.001501   
    264. D(Au 11,Au  8,Au  3,Au  0)     49.4166         0.001501   
    265. D(Fe 15,Au  8,Au  3,Au  6)     64.7165         0.001501   
    266. D(Fe 15,Au  8,Au  3,Au 11)   -100.0670         0.001501   
    267. D(Fe 15,Au  8,Au  3,Au  2)      6.0175         0.001501   
    268. D(Fe 15,Au  8,Au  3,Au  0)    -50.6504         0.001501   
    269. D(Au 11,Au 10,Au  1,Au  5)   -110.8870         0.001502   
    270. D(Fe 15,Au 10,Au  1,Au  0)     24.9023         0.001502   
    271. D(Fe 15,Au 10,Au  1,Au 11)     81.3584         0.001502   
    272. D(Fe 15,Au 10,Au  1,Au  5)    -29.5286         0.001502   
    273. D(Au 11,Au 10,Au  1,Au  0)    -56.4561         0.001502   
    274. D(Au 11,Au 10,Au  7,Au  6)    -26.9768         0.001500   
    275. D(Au  1,Au 10,Au  7,Au  6)    -86.6931         0.001500   
    276. D(Au  1,Au 11,Au  0,Au  5)     52.2855         0.001500   
    277. D(Au  1,Au 11,Au  0,Au  2)    116.5456         0.001500   
    278. D(Au  8,Au 11,Au  0,Au  5)    -64.2588         0.001500   
    279. D(Au  8,Au 11,Au  0,Au  2)      0.0013         0.001500   
    280. D(Au  1,Au 11,Au  0,Au  3)    164.9705         0.001500   
    281. D(Au  3,Au 11,Au 10,Au  1)    106.7504         0.001501   
    282. D(Au  3,Au 11,Au 10,Fe 15)     -2.1513         0.001501   
    283. D(Au  8,Au 11,Au 10,Au  1)    153.7803         0.001501   
    284. D(Au  1,Au 11,Au 10,Fe 15)   -108.9016         0.001501   
    285. D(Au  0,Au 11,Au 10,Au  1)     51.2802         0.001501   
    286. D(Au  0,Au 11,Au 10,Fe 15)    -57.6215         0.001501   
    287. D(Au  3,Au 11,Au  8,Au  6)     13.4821         0.001502   
    288. D(Au  3,Au 11,Au  8,Fe 15)     80.1156         0.001502   
    289. D(Au 10,Au 11,Au  8,Au  3)   -129.7019         0.001502   
    290. D(Au  1,Au 11,Au  8,Au  6)    -90.6541         0.001502   
    291. D(Au  1,Au 11,Au  8,Fe 15)    -24.0206         0.001502   
    292. D(Au  3,Au 11,Au  0,Au  5)   -112.6850         0.001500   
    293. D(Au  0,Au 11,Au  8,Fe 15)     35.4982         0.001502   
    294. D(Au 10,Au 11,Au  3,Au  6)     32.2289         0.001502   
    295. D(Au  8,Au 11,Au  1,Au 10)    -27.0300         0.001501   
    296. D(Au  8,Au 11,Au  3,Au  6)    -15.2358         0.001502   
    297. D(Au 10,Au 11,Au  1,Au  5)     59.5208         0.001501   
    298. D(Au  1,Au 11,Au  3,Au  8)    111.3799         0.001502   
    299. D(Au  1,Au 11,Au  3,Au  2)     31.3547         0.001502   
    300. D(Au  0,Au 11,Au  3,Au  8)    125.2596         0.001502   
    301. D(Au  0,Au 11,Au  3,Au  2)     45.2344         0.001502   
    302. D(Au  3,Au 11,Au  1,Au 10)    -99.0440         0.001501   
    303. D(Au  1,Au 11,Au  3,Au  0)    -13.8796         0.001502   
    304. D(Au  3,Au 11,Au  1,Au  5)    -39.5231         0.001501   
    305. D(Au  3,Au 11,Au  1,Au  0)     13.8156         0.001501   
    306. D(Au  0,Au 11,Au  3,Au  6)    110.0238         0.001502   
    307. D(Au  8,Au 11,Au  3,Au  2)    -80.0252         0.001502   
    308. D(Au 10,Au 11,Au  1,Au  0)    112.8596         0.001501   
    309. D(Au 10,Au 11,Au  3,Au  2)    -32.5605         0.001502   
    310. D(Au  8,Au 11,Au  1,Au  5)     32.4908         0.001501   
    311. D(Au 10,Au 11,Au  3,Au  0)    -77.7949         0.001502   
    312. D(Au  8,Au 11,Au  3,Au  0)   -125.2596         0.001502   
    313. D(Au  8,Au 11,Au  1,Au  0)     85.8296         0.001501   
    314. D(Au  0,Au 11,Au  1,Au 10)   -112.8596         0.001501   
    315. D(Au  0,Au 11,Au  1,Au  5)    -53.3387         0.001501   
    316. D(Au  3,Au 11,Au  0,Au  1)   -164.9705         0.001500   
    317. D(Au  0,Au 11,Au  8,Au  3)    -44.6174         0.001502   
    318. D(Au 10,Au 11,Au  3,Au  8)     47.4647         0.001502   
    319. D(Au  1,Au 11,Au  8,Au  3)   -104.1362         0.001502   
    320. D(Au  3,Au 11,Au  0,Au  2)    -48.4249         0.001500   
    321. D(Au 10,Au 11,Au  0,Au  3)    112.6842         0.001500   
    322. D(Au 10,Au 11,Au  0,Au  1)    -52.2863         0.001500   
    323. D(Au 10,Au 11,Au  8,Fe 15)    -49.5863         0.001502   
    324. D(Au 10,Au 11,Au  0,Au  5)     -0.0008         0.001500   
    325. D(Au 10,Au 11,Au  0,Au  2)     64.2593         0.001500   
    326. D(Au  8,Au 11,Au  0,Au  3)     48.4262         0.001500   
    327. D(Au  8,Au 11,Au 10,Fe 15)     44.8786         0.001501   
    328. D(Au  8,Au 11,Au  0,Au  1)   -116.5443         0.001500   
    329. D(Au 10,Au 11,Au  8,Au  6)   -116.2198         0.001502   
    330. D(Au  0,Au 11,Au  8,Au  6)    -31.1353         0.001502   
    331. D(Au  1,Au 11,Au  3,Au  6)     96.1441         0.001502   
    332. D(Fe 15,Au 14,Au  6,Au  8)    -63.3767         0.001502   
    333. D(Fe 15,Au 14,Au  6,Au  7)     62.9389         0.001502   
    334. D(Fe 15,Au 14,Au  6,Au  3)    -49.7965         0.001502   
    335. D(Fe 15,Au 14,Au  6,Au  2)     16.8783         0.001502   
    336. D(Au  6,Au 14,Au  5,Au  1)     86.6894         0.001500   
    337. D(Au  6,Au 14,Au  5,Au  0)     26.9809         0.001500   
    338. D(Au  9,Fe 15,Au  6,Au  2)    169.4785         0.001502   
    339. D(Au  8,Fe 15,Au  6,Au 14)    -76.4493         0.001502   
    340. D(Au  8,Fe 15,Au  6,Au  7)   -159.3113         0.001502   
    341. D(Au  8,Fe 15,Au  6,Au  2)    124.2394         0.001502   
    342. D(Au  7,Fe 15,Au  6,Au 14)     82.8620         0.001502   
    343. D(Au  7,Fe 15,Au  6,Au  8)    159.3113         0.001502   
    344. D(Au  7,Fe 15,Au  6,Au  2)    -76.4493         0.001502   
    345. D(Au  5,Fe 15,Au  6,Au 14)   -178.3619         0.001502   
    346. D(Au  5,Fe 15,Au  6,Au  8)   -101.9125         0.001502   
    347. D(Au  5,Fe 15,Au  6,Au  7)     98.7762         0.001502   
    348. D(Au  5,Fe 15,Au  6,Au  3)    -39.7909         0.001502   
    349. D(Au  5,Fe 15,Au  6,Au  2)     22.3268         0.001502   
    350. D(Au  4,Fe 15,Au  6,Au 14)    114.0720         0.001502   
    351. D(Au  4,Fe 15,Au  6,Au  7)     31.2100         0.001502   
    352. D(Au  4,Fe 15,Au  6,Au  3)   -107.3570         0.001502   
    353. D(Au  4,Fe 15,Au  6,Au  2)    -45.2393         0.001502   
    354. D(Au  2,Fe 15,Au  6,Au  8)   -124.2394         0.001502   
    355. D(Au  2,Fe 15,Au  6,Au  7)     76.4493         0.001502   
    356. D(Au  2,Fe 15,Au  6,Au  3)    -62.1177         0.001502   
    357. D(Au  6,Fe 15,Au  5,Au  0)     25.7951         0.001509   
    358. D(Au 13,Fe 15,Au  5,Au  1)   -136.2608         0.001509   
    359. D(Au 13,Fe 15,Au  5,Au  0)    164.1522         0.001509   
    360. D(Au 12,Fe 15,Au  5,Au  1)    -98.7151         0.001509   
    361. D(Au 12,Fe 15,Au  5,Au  0)   -158.3020         0.001509   
    362. D(Au 10,Fe 15,Au  5,Au  1)    -29.1558         0.001509   
    363. D(Au 10,Fe 15,Au  5,Au  0)    -88.7428         0.001509   
    364. D(Au  9,Fe 15,Au  5,Au  0)   -120.8051         0.001509   
    365. D(Au  8,Fe 15,Au  5,Au  1)     14.9528         0.001509   
    366. D(Au  8,Fe 15,Au  5,Au  0)    -44.6341         0.001509   
    367. D(Au  7,Fe 15,Au  5,Au  1)    151.0344         0.001509   
    368. D(Au  7,Fe 15,Au  5,Au  0)     91.4474         0.001509   
    369. D(Au  4,Fe 15,Au  5,Au  1)   -175.2291         0.001509   
    370. D(Au  4,Fe 15,Au  5,Au  0)    125.1839         0.001509   
    371. D(Au  2,Fe 15,Au  5,Au  1)    106.8064         0.001509   
    372. D(Au  2,Fe 15,Au  5,Au  0)     47.2194         0.001509   
    373. D(Au  6,Fe 15,Au  2,Au  3)     54.4321         0.001534   
    374. D(Au  6,Fe 15,Au  2,Au  0)    111.6172         0.001534   
    375. D(Au  9,Fe 15,Au  5,Au  1)    -61.2182         0.001509   
    376. D(Au 14,Fe 15,Au  2,Au  6)     19.3237         0.001534   
    377. D(Au 14,Fe 15,Au  2,Au  3)     73.7558         0.001534   
    378. D(Au 14,Fe 15,Au  2,Au  0)    130.9409         0.001534   
    379. D(Au 13,Fe 15,Au  2,Au  6)     95.6137         0.001534   
    380. D(Au 13,Fe 15,Au  2,Au  3)    150.0457         0.001534   
    381. D(Au 13,Fe 15,Au  2,Au  0)   -152.7692         0.001534   
    382. D(Au 12,Fe 15,Au  2,Au  6)    174.1914         0.001534   
    383. D(Au  6,Fe 15,Au  5,Au  1)     85.3820         0.001509   
    384. D(Au 12,Fe 15,Au  2,Au  3)   -131.3765         0.001534   
    385. D(Au 12,Fe 15,Au  2,Au  0)    -74.1914         0.001534   
    386. D(Au 10,Fe 15,Au  2,Au  6)   -115.8630         0.001534   
    387. D(Au  2,Fe 15,Au  6,Au 14)    159.3113         0.001502   
    388. D(Au 10,Fe 15,Au  2,Au  3)    -61.4309         0.001534   
    389. D(Au 10,Fe 15,Au  2,Au  0)     -4.2458         0.001534   
    390. D(Au  9,Fe 15,Au  2,Au  6)    -62.3870         0.001534   
    391. D(Au  4,Fe 15,Au  6,Au  8)   -169.4787         0.001502   
    392. D(Au  9,Fe 15,Au  2,Au  3)     -7.9549         0.001534   
    393. D(Au  9,Fe 15,Au  2,Au  0)     49.2302         0.001534   
    394. D(Au  8,Fe 15,Au  2,Au  6)    -47.6199         0.001534   
    395. D(Au  8,Fe 15,Au  2,Au  3)      6.8121         0.001534   
    396. D(Au  8,Fe 15,Au  2,Au  0)     63.9972         0.001534   
    397. D(Au  7,Fe 15,Au  2,Au  6)     65.5151         0.001534   
    398. D(Au  7,Fe 15,Au  2,Au  3)    119.9472         0.001534   
    399. D(Au  7,Fe 15,Au  6,Au  3)   -138.5670         0.001502   
    400. D(Au  7,Fe 15,Au  2,Au  0)    177.1323         0.001534   
    401. D(Au  5,Fe 15,Au  2,Au  6)   -159.5830         0.001534   
    402. D(Au  5,Fe 15,Au  2,Au  3)   -105.1510         0.001534   
    403. D(Au  8,Fe 15,Au  6,Au  3)     62.1217         0.001502   
    404. D(Au  5,Fe 15,Au  2,Au  0)    -47.9659         0.001534   
    405. D(Au  4,Fe 15,Au  2,Au  6)    135.3595         0.001534   
    406. D(Au  4,Fe 15,Au  2,Au  3)   -170.2084         0.001534   
    407. D(Au  9,Fe 15,Au  6,Au  3)    107.3607         0.001502   
    408. D(Au  4,Fe 15,Au  2,Au  0)   -113.0233         0.001534   
    409. D(Au 13,Fe 15,Au 14,Au  6)   -136.7407         0.001524   
    410. D(Au 12,Fe 15,Au 14,Au  6)   -175.7932         0.001524   
    411. D(Au 10,Fe 15,Au 14,Au  6)    115.5063         0.001524   
    412. D(Au  9,Fe 15,Au 14,Au  6)    147.8316         0.001524   
    413. D(Au  8,Fe 15,Au 14,Au  6)     70.7333         0.001524   
    414. D(Au  4,Fe 15,Au 14,Au  6)    -99.1387         0.001524   
    415. D(Au  2,Fe 15,Au 14,Au  6)    -20.0739         0.001524   
    416. D(Au  6,Fe 15,Au 10,Au 11)    -25.7864         0.001509   
    417. D(Au 14,Fe 15,Au 10,Au 11)    -91.4407         0.001509   
    418. D(Au 14,Fe 15,Au 10,Au  1)   -151.0356         0.001509   
    419. D(Au 13,Fe 15,Au 10,Au 11)   -164.1486         0.001509   
    420. D(Au 12,Fe 15,Au 10,Au 11)    158.3096         0.001509   
    421. D(Au 12,Fe 15,Au 10,Au  1)     98.7147         0.001509   
    422. D(Au  9,Fe 15,Au 10,Au 11)   -125.1834         0.001509   
    423. D(Au  9,Fe 15,Au 10,Au  1)    175.2217         0.001509   
    424. D(Au  8,Fe 15,Au 10,Au 11)    -47.2181         0.001509   
    425. D(Au  8,Fe 15,Au 10,Au  1)   -106.8130         0.001509   
    426. D(Au  5,Fe 15,Au 10,Au 11)     88.7533         0.001509   
    427. D(Au  4,Fe 15,Au 10,Au 11)    120.8057         0.001509   
    428. D(Au  4,Fe 15,Au 10,Au  1)     61.2108         0.001509   
    429. D(Au  2,Fe 15,Au 10,Au 11)     44.6359         0.001509   
    430. D(Au  6,Fe 15,Au  8,Au  3)    -54.4293         0.001534   
    431. D(Au  6,Fe 15,Au  8,Au 11)   -111.6165         0.001534   
    432. D(Au 14,Fe 15,Au  8,Au  6)    -65.5134         0.001534   
    433. D(Au 14,Fe 15,Au  8,Au 11)   -177.1299         0.001534   
    434. D(Au 13,Fe 15,Au  8,Au  6)    -95.6160         0.001534   
    435. D(Au 13,Fe 15,Au  8,Au  3)   -150.0453         0.001534   
    436. D(Au 13,Fe 15,Au  8,Au 11)    152.7675         0.001534   
    437. D(Au 12,Fe 15,Au  8,Au  6)   -174.1919         0.001534   
    438. D(Au 12,Fe 15,Au  8,Au  3)    131.3787         0.001534   
    439. D(Au 12,Fe 15,Au  8,Au 11)     74.1916         0.001534   
    440. D(Au 10,Fe 15,Au  8,Au  3)    105.1472         0.001534   
    441. D(Au 10,Fe 15,Au  8,Au 11)     47.9601         0.001534   
    442. D(Au  9,Fe 15,Au  8,Au  6)   -135.3618         0.001534   
    443. D(Au  9,Fe 15,Au  8,Au 11)    113.0218         0.001534   
    444. D(Au  7,Fe 15,Au  8,Au  6)    -19.3244         0.001534   
    445. D(Au  7,Fe 15,Au  8,Au  3)    -73.7537         0.001534   
    446. D(Au  7,Fe 15,Au  8,Au 11)   -130.9408         0.001534   
    447. D(Au  5,Fe 15,Au  8,Au  6)    115.8639         0.001534   
    448. D(Au  5,Fe 15,Au  8,Au  3)     61.4346         0.001534   
    449. D(Au  5,Fe 15,Au  8,Au 11)      4.2474         0.001534   
    450. D(Au  4,Fe 15,Au  8,Au  6)     62.3840         0.001534   
    451. D(Au  9,Fe 15,Au  8,Au  3)    170.2089         0.001534   
    452. D(Au  4,Fe 15,Au  8,Au  3)      7.9547         0.001534   
    453. D(Au  4,Fe 15,Au  8,Au 11)    -49.2324         0.001534   
    454. D(Au  2,Fe 15,Au  8,Au  6)     47.6177         0.001534   
    455. D(Au 10,Fe 15,Au  8,Au  6)    159.5766         0.001534   
    456. D(Au  2,Fe 15,Au  8,Au  3)     -6.8117         0.001534   
    457. D(Au  2,Fe 15,Au  8,Au 11)    -63.9988         0.001534   
    458. D(Au 14,Fe 15,Au  7,Au  6)     64.6875         0.001524   
    459. D(Au 13,Fe 15,Au  7,Au  6)    136.7408         0.001524   
    460. D(Au 12,Fe 15,Au  7,Au  6)    175.7937         0.001524   
    461. D(Au  9,Fe 15,Au  7,Au  6)     99.1433         0.001524   
    462. D(Au  8,Fe 15,Au  7,Au  6)     20.0753         0.001524   
    463. D(Au 14,Fe 15,Au  8,Au  3)   -119.9428         0.001534   
    464. D(Au  5,Fe 15,Au  7,Au  6)   -115.5100         0.001524   
    465. D(Au  4,Fe 15,Au  7,Au  6)   -147.8294         0.001524   
    466. D(Au  2,Fe 15,Au  7,Au  6)    -70.7296         0.001524   
    467. D(Au  2,Fe 15,Au 10,Au  1)    -14.9590         0.001509   
    468. D(Au 14,Fe 15,Au  6,Au  8)     76.4493         0.001502   
    469. D(Au 14,Fe 15,Au  6,Au  7)    -82.8620         0.001502   
    470. D(Au 14,Fe 15,Au  6,Au  3)    138.5710         0.001502   
    471. D(Au  5,Fe 15,Au 10,Au  1)     29.1584         0.001509   
    472. D(Au 14,Fe 15,Au  6,Au  2)   -159.3113         0.001502   
    473. D(Au 13,Fe 15,Au  6,Au 14)     41.4311         0.001502   
    474. D(Au 13,Fe 15,Au  6,Au  8)    117.8804         0.001502   
    475. D(Au 13,Fe 15,Au  6,Au  7)    -41.4309         0.001502   
    476. D(Au 13,Fe 15,Au  6,Au  3)   -179.9979         0.001502   
    477. D(Au 13,Fe 15,Au  6,Au  2)   -117.8802         0.001502   
    478. D(Au 12,Fe 15,Au  6,Au 14)     41.4336         0.001502   
    479. D(Au 13,Fe 15,Au 10,Au  1)    136.2565         0.001509   
    480. D(Au 12,Fe 15,Au  6,Au  8)    117.8829         0.001502   
    481. D(Au 12,Fe 15,Au  6,Au  7)    -41.4284         0.001502   
    482. D(Au 12,Fe 15,Au  6,Au  3)   -179.9954         0.001502   
    483. D(Au  6,Fe 15,Au 10,Au  1)    -85.3813         0.001509   
    484. D(Au 12,Fe 15,Au  6,Au  2)   -117.8777         0.001502   
    485. D(Au 10,Fe 15,Au  6,Au 14)    -98.7825         0.001502   
    486. D(Au 10,Fe 15,Au  6,Au  8)    -22.3331         0.001502   
    487. D(Au  7,Fe 15,Au 14,Au  6)    -64.6876         0.001524   
    488. D(Au 10,Fe 15,Au  6,Au  7)    178.3556         0.001502   
    489. D(Au 10,Fe 15,Au  6,Au  3)     39.7885         0.001502   
    490. D(Au 10,Fe 15,Au  6,Au  2)    101.9063         0.001502   
    491. D(Au  9,Fe 15,Au  6,Au 14)    -31.2103         0.001502   
    492. D(Au  9,Fe 15,Au  6,Au  8)     45.2391         0.001502   
    493. D(Au  9,Fe 15,Au  6,Au  7)   -114.0722         0.001502   
    -----------------------------------------------------------------

Number of atoms                         .... 16
Number of degrees of freedom            .... 493

         *************************************************************
         *                GEOMETRY OPTIMIZATION CYCLE   1            *
         *************************************************************
---------------------------------
CARTESIAN COORDINATES (ANGSTROEM)
---------------------------------
  Au     8.230202   10.969411    7.728472
  Au     7.861872   10.650457    4.940016
  Au     6.868324    9.248540    9.458598
  Au     9.757690    8.939761    8.903991
  Au     4.218074    8.393155    8.353876
  Au     5.851822    9.867457    6.703373
  Au     8.440001    6.846236   10.087843
  Au     5.641223    6.763017   10.176687
  Au     9.106958    6.583434    7.237570
  Au     6.771847    5.352994    5.820300
  Au     7.514366    7.888540    5.054245
  Au     9.863569    9.024959    6.108007
  Au     4.761624    7.456394    5.647699
  Au     4.589355    5.532717    7.782517
  Au     7.280494    4.811529    8.550490
  Fe     6.571448    7.276209    7.688283

----------------------------
CARTESIAN COORDINATES (A.U.)
----------------------------
  NO LB      ZA    FRAG     MASS         X           Y           Z
   0 Au   19.0000*   0   196.966   15.552827   20.729183   14.604695
   1 Au   19.0000*   0   196.966   14.856786   20.126447    9.335278
   2 Au   19.0000*   0   196.966   12.979252   17.477208   17.874159
   3 Au   19.0000*   0   196.966   18.439362   16.893700   16.826105
   4 Au   19.0000*   0   196.966    7.971005   15.860763   15.786537
   5 Au   19.0000*   0   196.966   11.058341   18.646791   12.667540
   6 Au   19.0000*   0   196.966   15.949291   12.937512   19.063261
   7 Au   19.0000*   0   196.966   10.660367   12.780250   19.231152
   8 Au   19.0000*   0   196.966   17.209656   12.440888   13.677025
   9 Au   19.0000*   0   196.966   12.796936   10.115692   10.998773
  10 Au   19.0000*   0   196.966   14.200093   14.907179    9.551139
  11 Au   19.0000*   0   196.966   18.639444   17.054702   11.542461
  12 Au   19.0000*   0   196.966    8.998165   14.090543   10.672605
  13 Au   19.0000*   0   196.966    8.672625   10.455320   14.706825
  14 Au   19.0000*   0   196.966   13.758140    9.092473   16.158085
  15 Fe   26.0000    0    55.850   12.418236   13.750041   14.528748
* core charge reduced due to ECP

--------------------------------
INTERNAL COORDINATES (ANGSTROEM)
--------------------------------
 Au     0   0   0     0.000000000000     0.00000000     0.00000000
 Au     1   0   0     2.830703552927     0.00000000     0.00000000
 Au     1   2   0     2.794538328239   118.49432833     0.00000000
 Au     1   2   3     2.799026037919   113.76650776    72.01679977
 Au     3   1   2     2.995984048450   112.24867697   328.17425145
 Au     5   3   1     2.750791893900    62.79612323     6.51285922
 Au     4   1   2     2.742381628025   118.20602933   263.86268275
 Au     7   4   1     2.801424014134   121.09140398   358.56943036
 Au     7   4   1     2.939039955839    62.64990839    89.89272300
 Au     9   7   4     2.995893916005   108.58007451   221.53569511
 Au    10   9   7     2.750848435555    62.79267377   117.90906366
 Au     9   7   4     2.794533619239   112.04376269   346.08239017
 Au     6   5   3     2.848894827281    62.70786233   129.91647308
 Au    13   6   5     2.878828942593   108.27820805   325.42512623
 Au     7   4   1     2.801418045213   121.09375717    76.68716152
 Fe    14  13   6     2.641463943325    59.17543789   325.47856614

---------------------------
INTERNAL COORDINATES (A.U.)
---------------------------
 Au     0   0   0     0.000000000000     0.00000000     0.00000000
 Au     1   0   0     5.349254481351     0.00000000     0.00000000
 Au     1   2   0     5.280912111118   118.49432833     0.00000000
 Au     1   2   3     5.289392653381   113.76650776    72.01679977
 Au     3   1   2     5.661589353167   112.24867697   328.17425145
 Au     5   3   1     5.198243330882    62.79612323     6.51285922
 Au     4   1   2     5.182350231665   118.20602933   263.86268275
 Au     7   4   1     5.293924171704   121.09140398   358.56943036
 Au     7   4   1     5.553980613188    62.64990839    89.89272300
 Au     9   7   4     5.661419027531   108.58007451   221.53569511
 Au    10   9   7     5.198350179125    62.79267377   117.90906366
 Au     9   7   4     5.280903212397   112.04376269   346.08239017
 Au     6   5   3     5.383631007905    62.70786233   129.91647308
 Au    13   6   5     5.440198287907   108.27820805   325.42512623
 Au     7   4   1     5.293912892078   121.09375717    76.68716152
 Fe    14  13   6     4.991643445511    59.17543789   325.47856614

---------------------
BASIS SET INFORMATION
---------------------
There are 2 groups of distinct atoms

 Group   1 Type Au  : 8s7p6d1f contracted to 6s4p3d1f pattern {311111/4111/411/1}
 Group   2 Type Fe  : 17s11p7d1f contracted to 6s4p4d1f pattern {842111/6311/4111/1}

Atom   0Au   basis set group =>   1
Atom   1Au   basis set group =>   1
Atom   2Au   basis set group =>   1
Atom   3Au   basis set group =>   1
Atom   4Au   basis set group =>   1
Atom   5Au   basis set group =>   1
Atom   6Au   basis set group =>   1
Atom   7Au   basis set group =>   1
Atom   8Au   basis set group =>   1
Atom   9Au   basis set group =>   1
Atom  10Au   basis set group =>   1
Atom  11Au   basis set group =>   1
Atom  12Au   basis set group =>   1
Atom  13Au   basis set group =>   1
Atom  14Au   basis set group =>   1
Atom  15Fe   basis set group =>   2
---------------------------------
AUXILIARY/J BASIS SET INFORMATION
---------------------------------
There are 2 groups of distinct atoms

 Group   1 Type Au  : 11s5p5d3f3g contracted to 8s5p5d2f3g pattern {41111111/11111/11111/21/111}
 Group   2 Type Fe  : 19s5p5d3f3g contracted to 8s5p5d2f3g pattern {121111111/11111/11111/21/111}

Atom   0Au   basis set group =>   1
Atom   1Au   basis set group =>   1
Atom   2Au   basis set group =>   1
Atom   3Au   basis set group =>   1
Atom   4Au   basis set group =>   1
Atom   5Au   basis set group =>   1
Atom   6Au   basis set group =>   1
Atom   7Au   basis set group =>   1
Atom   8Au   basis set group =>   1
Atom   9Au   basis set group =>   1
Atom  10Au   basis set group =>   1
Atom  11Au   basis set group =>   1
Atom  12Au   basis set group =>   1
Atom  13Au   basis set group =>   1
Atom  14Au   basis set group =>   1
Atom  15Fe   basis set group =>   2
-------------------------
ECP PARAMETER INFORMATION
-------------------------

 Group 1, Type Au ECP Def2-ECP (replacing 60 core electrons, lmax=3)

Atom   0Au   ECP group =>   1
Atom   1Au   ECP group =>   1
Atom   2Au   ECP group =>   1
Atom   3Au   ECP group =>   1
Atom   4Au   ECP group =>   1
Atom   5Au   ECP group =>   1
Atom   6Au   ECP group =>   1
Atom   7Au   ECP group =>   1
Atom   8Au   ECP group =>   1
Atom   9Au   ECP group =>   1
Atom  10Au   ECP group =>   1
Atom  11Au   ECP group =>   1
Atom  12Au   ECP group =>   1
Atom  13Au   ECP group =>   1
Atom  14Au   ECP group =>   1

------------------------------------------------------------------------------
                           ORCA GTO INTEGRAL CALCULATION
                           -- RI-GTO INTEGRALS CHOSEN --
------------------------------------------------------------------------------
------------------------------------------------------------------------------
                   ___                                                        
                  /   \      - P O W E R E D   B Y -                         
                 /     \                                                     
                 |  |  |   _    _      __       _____    __    __             
                 |  |  |  | |  | |    /  \     |  _  \  |  |  /  |          
                  \  \/   | |  | |   /    \    | | | |  |  | /  /          
                 / \  \   | |__| |  /  /\  \   | |_| |  |  |/  /          
                |  |  |   |  __  | /  /__\  \  |    /   |      \           
                |  |  |   | |  | | |   __   |  |    \   |  |\   \          
                \     /   | |  | | |  |  |  |  | |\  \  |  | \   \       
                 \___/    |_|  |_| |__|  |__|  |_| \__\ |__|  \__/        
                                                                              
                      - O R C A' S   B I G   F R I E N D -                    
                                      &                                       
                       - I N T E G R A L  F E E D E R -                       
                                                                              
 v1 FN, 2020, v2 2021                                                         
------------------------------------------------------------------------------


Reading SHARK input file pbe.SHARKINP.tmp ... ok
----------------------
SHARK INTEGRAL PACKAGE
----------------------

Number of atoms                             ...     16
Number of basis functions                   ...    645
Number of shells                            ...    225
Maximum angular momentum                    ...      3
Integral batch strategy                     ... SHARK/LIBINT Hybrid
RI-J (if used) integral strategy            ... SPLIT-RIJ (Revised 2003 algorithm where possible)
Printlevel                                  ...      1
Contraction scheme used                     ... SEGMENTED contraction
Coulomb Range Separation                    ... NOT USED
Exchange Range Separation                   ... NOT USED
Finite Nucleus Model                        ... NOT USED
Auxiliary Coulomb fitting basis             ... AVAILABLE
   # of basis functions in Aux-J            ...   1424
   # of shells in Aux-J                     ...    368
   Maximum angular momentum in Aux-J        ...      4
Auxiliary J/K fitting basis                 ... NOT available
Auxiliary Correlation fitting basis         ... NOT available
Auxiliary 'external' fitting basis          ... NOT available
Integral threshold                          ...     2.500000e-11
Primitive cut-off                           ...     2.500000e-12
Primitive pair pre-selection threshold      ...     2.500000e-12

Calculating pre-screening integrals         ... done (  0.4 sec) Dimension = 225
Organizing shell pair data                  ... done (  0.4 sec)
Shell pair information
Total number of shell pairs                 ...     25425
Shell pairs after pre-screening             ...     20313
Total number of primitive shell pairs       ...     67445
Primitive shell pairs kept                  ...     38866
          la=0 lb=0:   3187 shell pairs
          la=1 lb=0:   4664 shell pairs
          la=1 lb=1:   1732 shell pairs
          la=2 lb=0:   4035 shell pairs
          la=2 lb=1:   2832 shell pairs
          la=2 lb=2:   1168 shell pairs
          la=3 lb=0:   1051 shell pairs
          la=3 lb=1:    816 shell pairs
          la=3 lb=2:    718 shell pairs
          la=3 lb=3:    110 shell pairs

Calculating one electron integrals          ... done (  0.1 sec)
Calculating ECP integrals                   ... done ( 11.6 sec)
Calculating RI/J V-Matrix + Cholesky decomp.... done (  0.1 sec)
Calculating Nuclear repulsion               ... done (  0.0 sec) ENN=   6380.579020880466 Eh

SHARK setup successfully completed in  13.2 seconds

Maximum memory used throughout the entire GTOINT-calculation: 576.0 MB
-------------------------------------------------------------------------------
                                 ORCA SCF
-------------------------------------------------------------------------------

------------
SCF SETTINGS
------------
Hamiltonian:
 Density Functional     Method          .... DFT(GTOs)
 Exchange Functional    Exchange        .... PBE
   PBE kappa parameter   XKappa         ....  0.804000
   PBE mue parameter    XMuePBE         ....  0.219520
 Correlation Functional Correlation     .... PBE
   PBE beta parameter  CBetaPBE         ....  0.066725
 LDA part of GGA corr.  LDAOpt          .... PW91-LDA
 Gradients option       PostSCFGGA      .... off
   Density functional embedding theory  .... OFF
   NL short-range parameter             ....  6.400000
 RI-approximation to the Coulomb term is turned on
   Number of AuxJ basis functions       .... 1424


General Settings:
 Integral files         IntName         .... pbe
 Hartree-Fock type      HFTyp           .... UHF
 Total Charge           Charge          ....    0
 Multiplicity           Mult            ....    6
 Number of Electrons    NEL             ....  311
 Basis Dimension        Dim             ....  645
 Nuclear Repulsion      ENuc            ....   6380.5790208805 Eh

Convergence Acceleration:
 DIIS                   CNVDIIS         .... on
   Start iteration      DIISMaxIt       ....     0
   Startup error        DIISStart       ....  0.200000
   # of expansion vecs  DIISMaxEq       ....     5
   Bias factor          DIISBfac        ....   1.050
   Max. coefficient     DIISMaxC        ....  10.000
 Trust-Rad. Augm. Hess. CNVTRAH         .... auto
   Auto Start mean grad. ratio tolernc. ....  1.125000
   Auto Start start iteration           ....    20
   Auto Start num. interpolation iter.  ....    10
   Max. Number of Micro iterations      ....    16
   Max. Number of Macro iterations      .... Maxiter - #DIIS iter
   Number of Davidson start vectors     ....     2
   Converg. threshold I  (grad. norm)   ....   1.000e-05
   Converg. threshold II (energy diff.) ....   1.000e-08
   Grad. Scal. Fac. for Micro threshold ....   0.100
   Minimum threshold for Micro iter.    ....   0.010
   NR start threshold (gradient norm)   ....   0.001
   Initial trust radius                 ....   0.400
   Minimum AH scaling param. (alpha)    ....   1.000
   Maximum AH scaling param. (alpha)    .... 1000.000
   Orbital update algorithm             .... Taylor
   White noise on init. David. guess    .... on
   Maximum white noise                  ....   0.010
   Quad. conv. algorithm                .... NR
 SOSCF                  CNVSOSCF        .... off
 Level Shifting         CNVShift        .... on
   Level shift para.    LevelShift      ....    0.2500
   Turn off err/grad.   ShiftErr        ....    0.0000
 Zerner damping         CNVZerner       .... off
 Static damping         CNVDamp         .... on
   Fraction old density DampFac         ....    0.8500
   Max. Damping (<1)    DampMax         ....    0.9800
   Min. Damping (>=0)   DampMin         ....    0.0000
   Turn off err/grad.   DampErr         ....    0.0300
 Fernandez-Rico         CNVRico         .... off

SCF Procedure:
 Maximum # iterations   MaxIter         ....   125
 SCF integral mode      SCFMode         .... Direct
   Integral package                     .... SHARK and LIBINT hybrid scheme
 Reset frequency        DirectResetFreq ....    20
 Integral Threshold     Thresh          ....  2.500e-11 Eh
 Primitive CutOff       TCut            ....  2.500e-12 Eh

Convergence Tolerance:
 Convergence Check Mode ConvCheckMode   .... Total+1el-Energy
 Convergence forced     ConvForced      .... 0
 Energy Change          TolE            ....  1.000e-08 Eh
 1-El. energy change                    ....  1.000e-05 Eh
 DIIS Error             TolErr          ....  5.000e-07


Diagonalization of the overlap matrix:
Smallest eigenvalue                        ... 3.126e-04
Time for diagonalization                   ...    0.058 sec
Threshold for overlap eigenvalues          ... 1.000e-08
Number of eigenvalues below threshold      ... 0
Time for construction of square roots      ...    0.028 sec
Total time needed                          ...    0.087 sec

Time for model grid setup =    1.399 sec

------------------------------
INITIAL GUESS: MODEL POTENTIAL
------------------------------
Loading Hartree-Fock densities                     ... done
  calling /media/Programs/ORCA501/orca pbe_atom79.inp > pbe_atom79.out in order to generate an atomic fitting density for atom 0 (Au with ECP) on-the-fly... 
    atom 0 (Au), assumed electronic state with S=2: 1s2 2s2 2p6 3s2 3p6 4s2 3d10 4p6 5s2 4d10 5p6 6s1 4f14 5d10           ... done
Calculating cut-offs                               ... done
Initializing the effective Hamiltonian             ... done
Setting up the integral package (SHARK)            ... done
Starting the Coulomb interaction                   ... done (   2.8 sec)
Reading the grid                                   ... done
Mapping shells                                     ... done
Starting the XC term evaluation                    ... done (   2.8 sec)
  promolecular density results
     # of electrons  =   1211.015062133
     EX              =  -5541.423441144
     EC              =    -73.826814543
     EX+EC           =  -5615.250255687
Transforming the Hamiltonian                       ... done (   0.0 sec)
Diagonalizing the Hamiltonian                      ... done (   0.1 sec)
Back transforming the eigenvectors                 ... done (   0.0 sec)
Now organizing SCF variables                       ... done
                      ------------------
                      INITIAL GUESS DONE (   7.5 sec)
                      ------------------
-------------------
DFT GRID GENERATION
-------------------

General Integration Accuracy     IntAcc      ... 4.388
Radial Grid Type                 RadialGrid  ... OptM3 with GC (2021)
Angular Grid (max. ang.)         AngularGrid ... 4 (Lebedev-302)
Angular grid pruning method      GridPruning ... 4 (adaptive)
Weight generation scheme         WeightScheme... Becke
Basis function cutoff            BFCut       ... 1.0000e-11
Integration weight cutoff        WCut        ... 1.0000e-14
Angular grids for H and He will be reduced by one unit
Partially contracted basis set               ... off
Rotationally invariant grid construction     ... off

Total number of grid points                  ...   176356
Total number of batches                      ...     2763
Average number of points per batch           ...       63
Average number of grid points per atom       ...    11022
Time for grid setup =    3.190 sec

--------------
SCF ITERATIONS
--------------
ITER       Energy         Delta-E        Max-DP      RMS-DP      [F,P]     Damp
               ***  Starting incremental Fock matrix formation  ***
  0  -3297.1957057546   0.000000000000 0.27531045  0.00141726  0.5631363 0.8500
  1  -3299.3032542545  -2.107548499971 0.14708661  0.00096096  0.2434640 0.8500
                               ***Turning on DIIS***
  2  -3299.6078468481  -0.304592593532 0.06111079  0.00054231  0.2056827 0.8500
  3  -3299.7610835900  -0.153236741952 0.05406178  0.00048002  0.1732866 0.8500
  4  -3299.9344444813  -0.173360891239 0.04283012  0.00034529  0.1466825 0.8500
  5  -3300.0663894120  -0.131944930727 0.02877545  0.00032474  0.1242889 0.8500
  6  -3300.1921775505  -0.125788138466 0.05329053  0.00028654  0.1060072 0.8500
  7  -3300.2816383812  -0.089460830760 0.04721367  0.00024396  0.0901478 0.8500
  8  -3300.3609624910  -0.079324109738 0.02767499  0.00022339  0.0764129 0.8500
  9  -3300.4484514939  -0.087489002929 0.02504652  0.00019258  0.0646058 0.8500
 10  -3300.5124210692  -0.063969575259 0.02129614  0.00016740  0.0549259 0.8500
 11  -3300.5692607994  -0.056839730223 0.01678295  0.00015062  0.0466615 0.8500
 12  -3300.6211464392  -0.051885639790 0.02600648  0.00014038  0.0395416 0.8500
 13  -3300.6631181569  -0.041971717777 0.02435935  0.00012277  0.0336684 0.8500
 14  -3300.6987756625  -0.035657505563 0.10316077  0.00068513  0.0286565 0.0000
 15  -3300.8971759378  -0.198400275286 0.00291656  0.00002783  0.0438925 0.8500
 16  -3300.9006038184  -0.003427880602 0.00402812  0.00004042  0.0376119 0.8500
 17  -3300.9051797894  -0.004575971003 0.02016797  0.00022521  0.0270260 0.0000
 18  -3300.9022921468   0.002887642641 0.00433257  0.00001416  0.0443471 0.8500
 19  -3300.9037737902  -0.001481643457 0.00488948  0.00001901  0.0408290 0.8500
               *** Restarting incremental Fock matrix formation ***
                                   *** Resetting DIIS ***

 WARNING: the maximum gradient error descreased on average only by a factor   1.0
          during the last 20 iterations

                      *** Initiating the TRAH-SCF procedure ***


TRAH GRID
---------

General Integration Accuracy     IntAcc      ... 3.467
Radial Grid Type                 RadialGrid  ... OptM3 with GC (2021)
Angular Grid (max. ang.)         AngularGrid ... 1 (Lebedev-50)
Angular grid pruning method      GridPruning ... 4 (adaptive)
Weight generation scheme         WeightScheme... Becke
Basis function cutoff            BFCut       ... 1.0000e-11
Integration weight cutoff        WCut        ... 1.0000e-14
Angular grids for H and He will be reduced by one unit
Partially contracted basis set               ... off
Rotationally invariant grid construction     ... off

Total number of grid points                  ...    75983
Total number of batches                      ...     1195
Average number of points per batch           ...       63
Average number of grid points per atom       ...     4749

 --------------------------------------------------------------------------------------------
   Iter.        energy            ||Error||_2        Shift      TRadius  Mac/Mic        Rej.
 --------------------------------------------------------------------------------------------
WARNING: 2 diagonal Hessian elements are negative!
    0      -3300.912527601361     8.242217e-02                     0.400 (TRAH MAcro)   No
WARNING : negative HOMO - LUMO gap : (op =  beta) -0.001731
    0     dE    -1.594346e-03     5.276493e-02    -1.5937e-03      0.019 (TRAH MIcro)
    0     dE    -2.039338e-03     3.055694e-02    -2.0352e-03      0.045 (TRAH MIcro)
    0     dE    -2.330428e-03     1.265762e-02    -2.3186e-03      0.071 (TRAH MIcro)
    0     dE    -2.573132e-03     1.374884e-02    -2.5221e-03      0.142 (TRAH MIcro)
    0     dE    -2.834831e-03     9.933795e-03    -2.6691e-03      0.249 (TRAH MIcro)
    0     dE    -3.267873e-03     1.466477e-02    -2.9170e-03      0.400 (TRAH MIcro)
    0     dE    -3.432162e-03     1.084763e-02    -4.6535e-03      0.400 (TRAH MIcro)
    0     dE    -3.183538e-03     4.905056e-03    -5.7374e-03      0.321 (TRAH MIcro)
 ---------------------------------
          TRAH Step control 
 ---------------------------------
  predicted energy change = -0.003184
  actual energy  change   = 0.000321
  energy change ratio     = -0.100760
  old trust radius        = 0.400000
  new trust radius        = 0.280000
  reject step?            =  1
    1      -3300.912527601361     0.000000e+00                     0.280 (TRAH MAcro)  Yes
WARNING: 2 diagonal Hessian elements are negative!
    2      -3300.912527601361     8.242217e-02                     0.280 (TRAH MAcro)   No
WARNING : negative HOMO - LUMO gap : (op =  beta) -0.001731
    2     dE    -1.594348e-03     5.276903e-02    -1.5938e-03      0.019 (TRAH MIcro)
    2     dE    -2.039341e-03     3.056787e-02    -2.0352e-03      0.045 (TRAH MIcro)
    2     dE    -2.330432e-03     1.265756e-02    -2.3186e-03      0.071 (TRAH MIcro)
    2     dE    -2.573133e-03     1.375077e-02    -2.5221e-03      0.142 (TRAH MIcro)
    2     dE    -2.834831e-03     9.933110e-03    -2.6691e-03      0.249 (TRAH MIcro)
    2     dE    -2.980877e-03     7.977504e-03    -4.3836e-03      0.280 (TRAH MIcro)
    3      -3300.913019153677     4.780068e-02                     0.196 (TRAH MAcro)   No
    3     dE    -4.227504e-04     3.078108e-02    -4.2272e-04      0.009 (TRAH MIcro)
    3     dE    -8.358383e-04     1.349322e-02    -8.3475e-04      0.036 (TRAH MIcro)
    3     dE    -1.311106e-03     1.342164e-02    -1.2973e-03      0.103 (TRAH MIcro)
    3     dE    -1.405443e-03     7.247513e-03    -1.3853e-03      0.121 (TRAH MIcro)
    3     dE    -1.427019e-03     3.043435e-03    -1.4047e-03      0.126 (TRAH MIcro)
    4      -3300.914686201914     1.100396e-02                     0.235 (TRAH MAcro)   No
    4     dE    -2.185896e-05     1.234054e-02    -2.1859e-05      0.002 (TRAH MIcro)
    4     dE    -8.280917e-05     1.017485e-02    -8.2778e-05      0.019 (TRAH MIcro)
    4     dE    -2.235476e-04     5.267937e-03    -2.2210e-04      0.081 (TRAH MIcro)
    4     dE    -2.367506e-04     2.292417e-03    -2.3494e-04      0.088 (TRAH MIcro)
    4     dE    -2.410960e-04     1.926056e-03    -2.3914e-04      0.090 (TRAH MIcro)
    4     dE    -2.433212e-04     1.135763e-03    -2.4127e-04      0.092 (TRAH MIcro)
    4     dE    -2.439094e-04     6.295774e-04    -2.4182e-04      0.093 (TRAH MIcro)
    5      -3300.914953267721     4.911503e-03                     0.282 (TRAH MAcro)   No
    5     dE    -3.958796e-06     1.097716e-02    -3.9588e-06      0.001 (TRAH MIcro)
    5     dE    -7.366308e-06     8.834250e-04    -7.3662e-06      0.003 (TRAH MIcro)
    5     dE    -1.126388e-05     1.898248e-03    -1.1262e-05      0.012 (TRAH MIcro)
    5     dE    -1.256124e-05     8.540394e-04    -1.2558e-05      0.016 (TRAH MIcro)
    5     dE    -1.288739e-05     5.647324e-04    -1.2884e-05      0.017 (TRAH MIcro)
    5     dE    -1.310535e-05     3.015473e-04    -1.3101e-05      0.018 (TRAH MIcro)
    6      -3300.914966855495     3.407617e-04                           (NR   MAcro)
    6     dE    -2.262344e-08     2.776153e-04                           (NR   MIcro)
    6     dE    -6.651881e-08     1.631479e-04                           (NR   MIcro)
    6     dE    -9.075821e-08     1.612828e-04                           (NR   MIcro)
    6     dE    -1.113675e-07     1.064763e-04                           (NR   MIcro)
    6     dE    -1.158576e-07     5.844634e-05                           (NR   MIcro)
    6     dE    -1.167267e-07     3.435941e-05                           (NR   MIcro)
    6     dE    -1.170643e-07     1.703457e-05                           (NR   MIcro)
    6     dE    -1.171343e-07     7.754248e-06                           (NR   MIcro)
    6     dE    -1.171533e-07     3.141355e-06                           (NR   MIcro)
    6     dE    -1.171583e-07     1.881718e-06                           (NR   MIcro)
    6     dE    -1.171593e-07     1.255624e-06                           (NR   MIcro)
    6     dE    -1.171596e-07     8.074268e-07                           (NR   MIcro)
    7      -3300.914966972683     2.234251e-06                           (NR   MAcro)
    7     dE    -1.189812e-12     8.509540e-07                           (NR   MIcro)
    8      -3300.914966972693     8.509579e-07                           (NR   MAcro)

               *****************************************************
               *                     SUCCESS                       *
               *           SCF CONVERGED AFTER  73 CYCLES          *
               *****************************************************


----------------
TOTAL SCF ENERGY
----------------

Total Energy       :        -3300.91496697 Eh          -89822.46274 eV

Components:
Nuclear Repulsion  :         6380.57902088 Eh          173624.38205 eV
Electronic Energy  :        -9681.49398785 Eh         -263446.84479 eV
One Electron Energy:       -18073.52033147 Eh         -491805.49113 eV
Two Electron Energy:         8392.02634361 Eh          228358.64634 eV

Virial components:
Potential Energy   :        -5249.17268885 Eh         -142837.25057 eV
Kinetic Energy     :         1948.25772187 Eh           53014.78783 eV
Virial Ratio       :            2.69429071


DFT components:
N(Alpha)           :      157.999988889560 electrons
N(Beta)            :      152.999983070782 electrons
N(Total)           :      310.999971960341 electrons
E(X)               :     -235.017418528213 Eh       
E(C)               :      -13.597462559338 Eh       
E(XC)              :     -248.614881087550 Eh       
DFET-embed. en.    :        0.000000000000 Eh       

---------------
SCF CONVERGENCE
---------------

  Last Energy change         ...   -9.5497e-12  Tolerance :   1.0000e-08
  Last Orbital Gradient      ...    8.5096e-07  Tolerance :   1.0000e-05
  Last Orbital Rotation      ...    1.0699e-06

             **** THE GBW FILE WAS UPDATED (pbe.gbw) ****
             **** DENSITY pbe.scfp WAS UPDATED ****
             **** ENERGY FILE WAS UPDATED (pbe.en.tmp) ****
----------------------
UHF SPIN CONTAMINATION
----------------------

Warning: in a DFT calculation there is little theoretical justification to 
         calculate <S**2> as in Hartree-Fock theory. We will do it anyways
         but you should keep in mind that the values have only limited relevance

Expectation value of <S**2>     :     8.777181
Ideal value S*(S+1) for S=2.5   :     8.750000
Deviation                       :     0.027181

             **** THE GBW FILE WAS UPDATED (pbe.gbw) ****
             **** DENSITY pbe.scfp WAS UPDATED ****
----------------
ORBITAL ENERGIES
----------------
                 SPIN UP ORBITALS
  NO   OCC          E(Eh)            E(eV) 
   0   1.0000    -254.786972     -6933.1060 
   1   1.0000     -29.630290      -806.2812 
   2   1.0000     -25.571287      -695.8301 
   3   1.0000     -25.562445      -695.5895 
   4   1.0000     -25.560692      -695.5418 
   5   1.0000      -4.035555      -109.8130 
   6   1.0000      -4.035554      -109.8130 
   7   1.0000      -4.033864      -109.7670 
   8   1.0000      -4.033835      -109.7662 
   9   1.0000      -4.032179      -109.7212 
  10   1.0000      -4.032092      -109.7188 
  11   1.0000      -4.032075      -109.7183 
  12   1.0000      -4.030181      -109.6668 
  13   1.0000      -4.030177      -109.6667 
  14   1.0000      -4.027909      -109.6050 
  15   1.0000      -4.023470      -109.4842 
  16   1.0000      -4.023040      -109.4725 
  17   1.0000      -4.020034      -109.3907 
  18   1.0000      -4.019995      -109.3896 
  19   1.0000      -4.017519      -109.3222 
  20   1.0000      -3.410190       -92.7960 
  21   1.0000      -2.252071       -61.2820 
  22   1.0000      -2.252037       -61.2810 
  23   1.0000      -2.251641       -61.2703 
  24   1.0000      -2.251419       -61.2642 
  25   1.0000      -2.249882       -61.2224 
  26   1.0000      -2.248530       -61.1856 
  27   1.0000      -2.248489       -61.1845 
  28   1.0000      -2.247511       -61.1579 
  29   1.0000      -2.247430       -61.1557 
  30   1.0000      -2.245677       -61.1080 
  31   1.0000      -2.245615       -61.1063 
  32   1.0000      -2.245380       -61.0999 
  33   1.0000      -2.245246       -61.0963 
  34   1.0000      -2.244926       -61.0875 
  35   1.0000      -2.244842       -61.0853 
  36   1.0000      -2.244789       -61.0838 
  37   1.0000      -2.244312       -61.0708 
  38   1.0000      -2.244144       -61.0663 
  39   1.0000      -2.244066       -61.0641 
  40   1.0000      -2.243530       -61.0496 
  41   1.0000      -2.243188       -61.0402 
  42   1.0000      -2.243075       -61.0372 
  43   1.0000      -2.242805       -61.0298 
  44   1.0000      -2.242671       -61.0262 
  45   1.0000      -2.242401       -61.0188 
  46   1.0000      -2.241732       -61.0006 
  47   1.0000      -2.239969       -60.9526 
  48   1.0000      -2.239905       -60.9509 
  49   1.0000      -2.239403       -60.9372 
  50   1.0000      -2.239083       -60.9286 
  51   1.0000      -2.238046       -60.9003 
  52   1.0000      -2.237894       -60.8962 
  53   1.0000      -2.236832       -60.8673 
  54   1.0000      -2.236547       -60.8595 
  55   1.0000      -2.235746       -60.8378 
  56   1.0000      -2.235345       -60.8268 
  57   1.0000      -2.234954       -60.8162 
  58   1.0000      -2.234719       -60.8098 
  59   1.0000      -2.234140       -60.7940 
  60   1.0000      -2.233689       -60.7818 
  61   1.0000      -2.233480       -60.7761 
  62   1.0000      -2.232680       -60.7543 
  63   1.0000      -2.230063       -60.6831 
  64   1.0000      -2.229855       -60.6774 
  65   1.0000      -2.228808       -60.6489 
  66   1.0000      -2.227400       -60.6106 
  67   1.0000      -2.218324       -60.3637 
  68   1.0000      -2.214926       -60.2712 
  69   1.0000      -0.441421       -12.0117 
  70   1.0000      -0.392973       -10.6933 
  71   1.0000      -0.389342       -10.5945 
  72   1.0000      -0.387494       -10.5442 
  73   1.0000      -0.384045       -10.4504 
  74   1.0000      -0.382364       -10.4047 
  75   1.0000      -0.379632       -10.3303 
  76   1.0000      -0.377243       -10.2653 
  77   1.0000      -0.376956       -10.2575 
  78   1.0000      -0.363455        -9.8901 
  79   1.0000      -0.358175        -9.7464 
  80   1.0000      -0.357453        -9.7268 
  81   1.0000      -0.356046        -9.6885 
  82   1.0000      -0.353121        -9.6089 
  83   1.0000      -0.352294        -9.5864 
  84   1.0000      -0.346622        -9.4321 
  85   1.0000      -0.345359        -9.3977 
  86   1.0000      -0.344371        -9.3708 
  87   1.0000      -0.343092        -9.3360 
  88   1.0000      -0.342834        -9.3290 
  89   1.0000      -0.340235        -9.2583 
  90   1.0000      -0.339694        -9.2435 
  91   1.0000      -0.336476        -9.1560 
  92   1.0000      -0.336454        -9.1554 
  93   1.0000      -0.334665        -9.1067 
  94   1.0000      -0.331198        -9.0124 
  95   1.0000      -0.330437        -8.9916 
  96   1.0000      -0.326923        -8.8960 
  97   1.0000      -0.325436        -8.8556 
  98   1.0000      -0.324758        -8.8371 
  99   1.0000      -0.324036        -8.8175 
 100   1.0000      -0.321669        -8.7531 
 101   1.0000      -0.316930        -8.6241 
 102   1.0000      -0.316581        -8.6146 
 103   1.0000      -0.315106        -8.5745 
 104   1.0000      -0.311462        -8.4753 
 105   1.0000      -0.308127        -8.3846 
[...]
 260( 0) :     0.376239 a.u.    10.238 eV
 261( 0) :     0.381314 a.u.    10.376 eV
 262( 0) :     0.384781 a.u.    10.470 eV
 263( 0) :     0.391110 a.u.    10.643 eV
 264( 0) :     0.391501 a.u.    10.653 eV
 265( 0) :     0.396600 a.u.    10.792 eV
 266( 0) :     0.396703 a.u.    10.795 eV
 267( 0) :     0.403878 a.u.    10.990 eV
 268( 0) :     0.407340 a.u.    11.084 eV
 269( 0) :     0.416164 a.u.    11.324 eV
 270( 0) :     0.422434 a.u.    11.495 eV
 271( 0) :     0.425467 a.u.    11.578 eV
 272( 0) :     0.431050 a.u.    11.729 eV
 273( 0) :     0.437220 a.u.    11.897 eV
 274( 0) :     0.437891 a.u.    11.916 eV
 275( 0) :     0.439781 a.u.    11.967 eV
 276( 0) :     0.444244 a.u.    12.088 eV
 277( 0) :     0.448937 a.u.    12.216 eV
 278( 0) :     0.454176 a.u.    12.359 eV
 279( 0) :     0.459447 a.u.    12.502 eV
 280( 0) :     0.459521 a.u.    12.504 eV
 281( 0) :     0.459923 a.u.    12.515 eV
 282( 0) :     0.465266 a.u.    12.661 eV
 283( 0) :     0.472171 a.u.    12.848 eV
 284( 0) :     0.477931 a.u.    13.005 eV
 285( 0) :     0.485008 a.u.    13.198 eV
 286( 0) :     0.485380 a.u.    13.208 eV
 287( 0) :     0.490316 a.u.    13.342 eV
 288( 0) :     0.490544 a.u.    13.348 eV
 289( 0) :     0.491909 a.u.    13.386 eV
 290( 0) :     0.496052 a.u.    13.498 eV
 291( 0) :     0.497632 a.u.    13.541 eV
 292( 0) :     0.500107 a.u.    13.609 eV
 293( 0) :     0.504878 a.u.    13.738 eV
 294( 0) :     0.514442 a.u.    13.999 eV
 295( 0) :     0.518475 a.u.    14.108 eV
 296( 0) :     0.518722 a.u.    14.115 eV
 297( 0) :     0.520322 a.u.    14.159 eV
 298( 0) :     0.520599 a.u.    14.166 eV
 299( 0) :     0.528796 a.u.    14.389 eV
 300( 0) :     0.532225 a.u.    14.483 eV
 301( 0) :     0.546065 a.u.    14.859 eV
 302( 0) :     0.546804 a.u.    14.879 eV
 303( 0) :     0.547937 a.u.    14.910 eV
 304( 0) :     0.562608 a.u.    15.309 eV
 305( 0) :     0.563096 a.u.    15.323 eV
 306( 0) :     0.572485 a.u.    15.578 eV
 307( 0) :     0.578709 a.u.    15.747 eV
 308( 0) :     0.579936 a.u.    15.781 eV
 309( 0) :     0.645395 a.u.    17.562 eV
 310( 0) :     0.650751 a.u.    17.708 eV
 311( 0) :     0.671327 a.u.    18.268 eV
 312( 0) :     0.675234 a.u.    18.374 eV
 313( 0) :     0.676070 a.u.    18.397 eV
 314( 0) :     0.679073 a.u.    18.479 eV
 315( 0) :     0.686715 a.u.    18.686 eV
 316( 0) :     0.694597 a.u.    18.901 eV
 317( 0) :     0.700713 a.u.    19.067 eV
 318( 0) :     0.703972 a.u.    19.156 eV
 319( 0) :     0.716167 a.u.    19.488 eV
 320( 0) :     0.732366 a.u.    19.929 eV
 321( 0) :     0.743072 a.u.    20.220 eV
 322( 0) :     0.748400 a.u.    20.365 eV
 323( 0) :     0.760449 a.u.    20.693 eV
 324( 0) :     0.767299 a.u.    20.879 eV
 325( 0) :     0.778171 a.u.    21.175 eV
 326( 0) :     0.780953 a.u.    21.251 eV
 327( 0) :     0.788786 a.u.    21.464 eV
 328( 0) :     0.794417 a.u.    21.617 eV
 329( 0) :     0.796046 a.u.    21.662 eV
 330( 0) :     0.808875 a.u.    22.011 eV
 331( 0) :     0.821338 a.u.    22.350 eV
 332( 0) :     0.832255 a.u.    22.647 eV
 333( 0) :     0.837178 a.u.    22.781 eV
 334( 0) :     0.856775 a.u.    23.314 eV
 335( 0) :     0.863178 a.u.    23.488 eV
 336( 0) :     0.868633 a.u.    23.637 eV
 337( 0) :     0.873183 a.u.    23.761 eV
 338( 0) :     0.876495 a.u.    23.851 eV
 339( 0) :     0.880588 a.u.    23.962 eV
 340( 0) :     0.886376 a.u.    24.120 eV
 341( 0) :     0.889323 a.u.    24.200 eV
 342( 0) :     0.896294 a.u.    24.389 eV
 343( 0) :     0.898191 a.u.    24.441 eV
 344( 0) :     0.915439 a.u.    24.910 eV
 345( 0) :     0.923280 a.u.    25.124 eV
 346( 0) :     0.947609 a.u.    25.786 eV
 347( 0) :     0.948171 a.u.    25.801 eV
 348( 0) :     0.962442 a.u.    26.189 eV
 349( 0) :     0.962728 a.u.    26.197 eV
 350( 0) :     0.978363 a.u.    26.623 eV
 351( 0) :     0.993299 a.u.    27.029 eV
 352( 0) :     1.043294 a.u.    28.389 eV
 353( 0) :     1.105163 a.u.    30.073 eV
 354( 0) :     1.123532 a.u.    30.573 eV
 355( 0) :     1.129036 a.u.    30.723 eV
 356( 0) :     1.166058 a.u.    31.730 eV
 357( 0) :     1.183484 a.u.    32.204 eV
 358( 0) :     1.209249 a.u.    32.905 eV
 359( 0) :     1.210132 a.u.    32.929 eV
 360( 0) :     1.217832 a.u.    33.139 eV
 361( 0) :     1.245026 a.u.    33.879 eV
 362( 0) :     1.251828 a.u.    34.064 eV
 363( 0) :     1.259006 a.u.    34.259 eV
 364( 0) :     1.263308 a.u.    34.376 eV
 365( 0) :     1.273917 a.u.    34.665 eV
 366( 0) :     1.277049 a.u.    34.750 eV
 367( 0) :     1.277807 a.u.    34.771 eV
 368( 0) :     1.284664 a.u.    34.957 eV
 369( 0) :     1.300293 a.u.    35.383 eV
 370( 0) :     1.303715 a.u.    35.476 eV
 371( 0) :     1.308722 a.u.    35.612 eV
 372( 0) :     1.311733 a.u.    35.694 eV
 373( 0) :     1.321443 a.u.    35.958 eV
 374( 0) :     1.322179 a.u.    35.978 eV
 375( 0) :     1.336675 a.u.    36.373 eV
 376( 0) :     1.346557 a.u.    36.642 eV
 377( 0) :     1.346833 a.u.    36.649 eV
 378( 0) :     1.359091 a.u.    36.983 eV
 379( 0) :     1.367637 a.u.    37.215 eV
 380( 0) :     1.367811 a.u.    37.220 eV
 381( 0) :     1.370728 a.u.    37.299 eV
 382( 0) :     1.387768 a.u.    37.763 eV
 383( 0) :     1.393555 a.u.    37.921 eV
 384( 0) :     1.400634 a.u.    38.113 eV
 385( 0) :     1.401405 a.u.    38.134 eV
 386( 0) :     1.407103 a.u.    38.289 eV
 387( 0) :     1.408506 a.u.    38.327 eV
 388( 0) :     1.411986 a.u.    38.422 eV
 389( 0) :     1.415888 a.u.    38.528 eV
 390( 0) :     1.417957 a.u.    38.585 eV
 391( 0) :     1.420670 a.u.    38.658 eV
 392( 0) :     1.421201 a.u.    38.673 eV
 393( 0) :     1.427932 a.u.    38.856 eV
 394( 0) :     1.429119 a.u.    38.888 eV
 395( 0) :     1.432312 a.u.    38.975 eV
 396( 0) :     1.434747 a.u.    39.041 eV
 397( 0) :     1.437731 a.u.    39.123 eV
 398( 0) :     1.441199 a.u.    39.217 eV
 399( 0) :     1.444052 a.u.    39.295 eV
 400( 0) :     1.447888 a.u.    39.399 eV
 401( 0) :     1.448230 a.u.    39.408 eV
 402( 0) :     1.452312 a.u.    39.519 eV
 403( 0) :     1.459362 a.u.    39.711 eV
 404( 0) :     1.460126 a.u.    39.732 eV
 405( 0) :     1.461489 a.u.    39.769 eV
 406( 0) :     1.463491 a.u.    39.824 eV
 407( 0) :     1.469418 a.u.    39.985 eV
 408( 0) :     1.472605 a.u.    40.072 eV
 409( 0) :     1.475389 a.u.    40.147 eV
 410( 0) :     1.475878 a.u.    40.161 eV
 411( 0) :     1.477826 a.u.    40.214 eV
 412( 0) :     1.479922 a.u.    40.271 eV
 413( 0) :     1.480878 a.u.    40.297 eV
 414( 0) :     1.484252 a.u.    40.389 eV
 415( 0) :     1.485403 a.u.    40.420 eV
 416( 0) :     1.486840 a.u.    40.459 eV
 417( 0) :     1.488866 a.u.    40.514 eV
 418( 0) :     1.490832 a.u.    40.568 eV
 419( 0) :     1.490932 a.u.    40.570 eV
 420( 0) :     1.493238 a.u.    40.633 eV
 421( 0) :     1.493891 a.u.    40.651 eV
 422( 0) :     1.493981 a.u.    40.653 eV
 423( 0) :     1.495730 a.u.    40.701 eV
 424( 0) :     1.497458 a.u.    40.748 eV
 425( 0) :     1.499659 a.u.    40.808 eV
 426( 0) :     1.500047 a.u.    40.818 eV
 427( 0) :     1.500842 a.u.    40.840 eV
 428( 0) :     1.502208 a.u.    40.877 eV
 429( 0) :     1.502873 a.u.    40.895 eV
 430( 0) :     1.505655 a.u.    40.971 eV
 431( 0) :     1.505974 a.u.    40.980 eV
 432( 0) :     1.506531 a.u.    40.995 eV
 433( 0) :     1.510030 a.u.    41.090 eV
 434( 0) :     1.510110 a.u.    41.092 eV
 435( 0) :     1.513665 a.u.    41.189 eV
 436( 0) :     1.515679 a.u.    41.244 eV
 437( 0) :     1.516374 a.u.    41.263 eV
 438( 0) :     1.516898 a.u.    41.277 eV
 439( 0) :     1.517775 a.u.    41.301 eV
 440( 0) :     1.518230 a.u.    41.313 eV
 441( 0) :     1.520972 a.u.    41.388 eV
 442( 0) :     1.523099 a.u.    41.446 eV
 443( 0) :     1.525622 a.u.    41.514 eV
 444( 0) :     1.527303 a.u.    41.560 eV
 445( 0) :     1.527937 a.u.    41.577 eV
 446( 0) :     1.530613 a.u.    41.650 eV
 447( 0) :     1.533120 a.u.    41.718 eV
 448( 0) :     1.533778 a.u.    41.736 eV
 449( 0) :     1.535310 a.u.    41.778 eV
 450( 0) :     1.538487 a.u.    41.864 eV
 451( 0) :     1.541512 a.u.    41.947 eV
 452( 0) :     1.543404 a.u.    41.998 eV
 453( 0) :     1.545618 a.u.    42.058 eV
 454( 0) :     1.546149 a.u.    42.073 eV
 455( 0) :     1.549927 a.u.    42.176 eV
 456( 0) :     1.552612 a.u.    42.249 eV
 457( 0) :     1.553376 a.u.    42.270 eV
 458( 0) :     1.555955 a.u.    42.340 eV
 459( 0) :     1.557753 a.u.    42.389 eV
 460( 0) :     1.558582 a.u.    42.411 eV
 461( 0) :     1.563799 a.u.    42.553 eV
 462( 0) :     1.564070 a.u.    42.561 eV
 463( 0) :     1.568541 a.u.    42.682 eV
 464( 0) :     1.569539 a.u.    42.709 eV
 465( 0) :     1.569869 a.u.    42.718 eV
 466( 0) :     1.571720 a.u.    42.769 eV
 467( 0) :     1.572138 a.u.    42.780 eV
 468( 0) :     1.573931 a.u.    42.829 eV
 469( 0) :     1.578208 a.u.    42.945 eV
 470( 0) :     1.580705 a.u.    43.013 eV
 471( 0) :     1.580792 a.u.    43.016 eV
 472( 0) :     1.583103 a.u.    43.078 eV
 473( 0) :     1.587529 a.u.    43.199 eV
 474( 0) :     1.589077 a.u.    43.241 eV
 475( 0) :     1.593473 a.u.    43.361 eV
 476( 0) :     1.594910 a.u.    43.400 eV
 477( 0) :     1.595178 a.u.    43.407 eV
 478( 0) :     1.598522 a.u.    43.498 eV
 479( 0) :     1.599104 a.u.    43.514 eV
 480( 0) :     1.605281 a.u.    43.682 eV
 481( 0) :     1.607655 a.u.    43.747 eV
 482( 0) :     1.609547 a.u.    43.798 eV
 483( 0) :     1.610956 a.u.    43.836 eV
 484( 0) :     1.614267 a.u.    43.926 eV
 485( 0) :     1.616635 a.u.    43.991 eV
 486( 0) :     1.618990 a.u.    44.055 eV
 487( 0) :     1.619743 a.u.    44.075 eV
 488( 0) :     1.627110 a.u.    44.276 eV
 489( 0) :     1.631649 a.u.    44.399 eV
 490( 0) :     1.633003 a.u.    44.436 eV
 491( 0) :     1.639769 a.u.    44.620 eV
 492( 0) :     1.648833 a.u.    44.867 eV
 493( 0) :     1.649806 a.u.    44.894 eV
 494( 0) :     1.650053 a.u.    44.900 eV
 495( 0) :     1.654504 a.u.    45.021 eV
 496( 0) :     1.662691 a.u.    45.244 eV
 497( 0) :     1.667216 a.u.    45.367 eV
 498( 0) :     1.678917 a.u.    45.686 eV
 499( 0) :     1.684845 a.u.    45.847 eV
 500( 0) :     1.686524 a.u.    45.893 eV
 501( 0) :     1.690980 a.u.    46.014 eV
 502( 0) :     1.696566 a.u.    46.166 eV
 503( 0) :     1.705566 a.u.    46.411 eV
 504( 0) :     1.706700 a.u.    46.442 eV
 505( 0) :     1.713630 a.u.    46.630 eV
 506( 0) :     1.719263 a.u.    46.784 eV
 507( 0) :     1.724830 a.u.    46.935 eV
 508( 0) :     1.730273 a.u.    47.083 eV
 509( 0) :     1.740375 a.u.    47.358 eV
 510( 0) :     1.744721 a.u.    47.476 eV
 511( 0) :     1.755724 a.u.    47.776 eV
 512( 0) :     1.767003 a.u.    48.083 eV
 513( 0) :     1.767682 a.u.    48.101 eV
 514( 0) :     1.771690 a.u.    48.210 eV
 515( 0) :     1.772075 a.u.    48.221 eV
 516( 0) :     1.785058 a.u.    48.574 eV
 517( 0) :     1.787202 a.u.    48.632 eV
 518( 0) :     1.792268 a.u.    48.770 eV
 519( 0) :     1.796512 a.u.    48.886 eV
 520( 0) :     1.809622 a.u.    49.242 eV
 521( 0) :     1.812803 a.u.    49.329 eV
 522( 0) :     1.818695 a.u.    49.489 eV
 523( 0) :     1.823515 a.u.    49.620 eV
 524( 0) :     1.828534 a.u.    49.757 eV
 525( 0) :     1.838247 a.u.    50.021 eV
 526( 0) :     1.849384 a.u.    50.324 eV
 527( 0) :     1.860106 a.u.    50.616 eV
 528( 0) :     1.867634 a.u.    50.821 eV
 529( 0) :     1.884652 a.u.    51.284 eV
 530( 0) :     1.889725 a.u.    51.422 eV
 531( 0) :     1.903744 a.u.    51.804 eV
 532( 0) :     1.922171 a.u.    52.305 eV
 533( 0) :     1.931154 a.u.    52.549 eV
 534( 0) :     2.006812 a.u.    54.608 eV
 535( 0) :     2.012678 a.u.    54.768 eV
 536( 0) :     2.025157 a.u.    55.107 eV
 537( 0) :     2.138202 a.u.    58.183 eV
 538( 0) :     2.141820 a.u.    58.282 eV
 539( 0) :     2.179923 a.u.    59.319 eV
 540( 0) :     2.272132 a.u.    61.828 eV
 541( 0) :     2.293047 a.u.    62.397 eV
 542( 0) :     2.323470 a.u.    63.225 eV
 543( 0) :     2.395002 a.u.    65.171 eV
 544( 0) :     2.430079 a.u.    66.126 eV
 545( 0) :     2.441734 a.u.    66.443 eV
 546( 0) :     2.443006 a.u.    66.478 eV
 547( 0) :     2.465221 a.u.    67.082 eV
 548( 0) :     2.487021 a.u.    67.675 eV
 549( 0) :     2.495528 a.u.    67.907 eV
 550( 0) :     2.502860 a.u.    68.106 eV
 551( 0) :     2.509988 a.u.    68.300 eV
 552( 0) :     2.511210 a.u.    68.333 eV
 553( 0) :     2.527719 a.u.    68.783 eV
 554( 0) :     2.541760 a.u.    69.165 eV
 555( 0) :     2.557559 a.u.    69.595 eV
 556( 0) :     2.598305 a.u.    70.703 eV
 557( 0) :     3.387153 a.u.    92.169 eV
 558( 0) :     3.632930 a.u.    98.857 eV
 559( 0) :     3.645143 a.u.    99.189 eV
 560( 0) :     3.650858 a.u.    99.345 eV
 561( 0) :     3.684564 a.u.   100.262 eV
 562( 0) :     3.757935 a.u.   102.259 eV
 563( 0) :     3.868167 a.u.   105.258 eV
 564( 0) :     3.871997 a.u.   105.362 eV
 565( 0) :     3.877716 a.u.   105.518 eV
 566( 0) :     3.880370 a.u.   105.590 eV
 567( 0) :     3.883912 a.u.   105.687 eV
 568( 0) :     3.891070 a.u.   105.881 eV
 569( 0) :     3.894005 a.u.   105.961 eV
 570( 0) :    23.999880 a.u.   653.070 eV
 571( 0) :    24.203006 a.u.   658.597 eV
 572( 0) :    24.259123 a.u.   660.124 eV
 573( 0) :    24.385637 a.u.   663.567 eV
 574( 0) :    24.491877 a.u.   666.458 eV
 575( 0) :    24.594190 a.u.   669.242 eV
 576( 0) :    24.751801 a.u.   673.531 eV
 577( 0) :    24.793371 a.u.   674.662 eV
 578( 0) :    24.838685 a.u.   675.895 eV
 579( 0) :    25.155457 a.u.   684.515 eV
 580( 0) :    25.229918 a.u.   686.541 eV
 581( 0) :    25.356392 a.u.   689.983 eV
 582( 0) :    25.481950 a.u.   693.399 eV
 583( 0) :    25.583959 a.u.   696.175 eV
 584( 0) :    25.638273 a.u.   697.653 eV
 585( 0) :    25.677771 a.u.   698.728 eV
 586( 0) :    25.738124 a.u.   700.370 eV
 587( 0) :    25.791199 a.u.   701.814 eV
 588( 0) :    25.937546 a.u.   705.797 eV
 589( 0) :    26.016175 a.u.   707.936 eV
 590( 0) :    26.066814 a.u.   709.314 eV
 591( 0) :    26.109088 a.u.   710.464 eV
 592( 0) :    26.208904 a.u.   713.181 eV
 593( 0) :    26.314326 a.u.   716.049 eV
 594( 0) :    26.424210 a.u.   719.039 eV
 595( 0) :    26.488237 a.u.   720.782 eV
 596( 0) :    26.571466 a.u.   723.046 eV
 597( 0) :    26.576709 a.u.   723.189 eV
 598( 0) :    26.767122 a.u.   728.370 eV
 599( 0) :    26.781415 a.u.   728.759 eV
 600( 0) :    26.994859 a.u.   734.567 eV
 601( 0) :    27.106755 a.u.   737.612 eV
 602( 0) :    27.149656 a.u.   738.780 eV
 603( 0) :    27.289689 a.u.   742.590 eV
 604( 0) :    27.693899 a.u.   753.589 eV
 605( 0) :    27.737611 a.u.   754.779 eV
 606( 0) :    27.832240 a.u.   757.354 eV
 607( 0) :    27.987875 a.u.   761.589 eV
 608( 0) :    28.359065 a.u.   771.689 eV
 609( 0) :    28.739252 a.u.   782.035 eV
 610( 0) :    28.991967 a.u.   788.912 eV
 611( 0) :    29.050320 a.u.   790.499 eV
 612( 0) :    30.361326 a.u.   826.174 eV
 613( 0) :    30.395929 a.u.   827.115 eV
 614( 0) :    32.203505 a.u.   876.302 eV
 615( 0) :    43.907773 a.u.  1194.791 eV
 616( 0) :    44.035027 a.u.  1198.254 eV
 617( 0) :    44.070693 a.u.  1199.225 eV
 618( 0) :    44.091019 a.u.  1199.778 eV
 619( 0) :    44.124103 a.u.  1200.678 eV
 620( 0) :    44.136588 a.u.  1201.018 eV
 621( 0) :    44.142427 a.u.  1201.177 eV
 622( 0) :    44.153052 a.u.  1201.466 eV
 623( 0) :    44.153908 a.u.  1201.489 eV
 624( 0) :    44.159857 a.u.  1201.651 eV
 625( 0) :    44.167284 a.u.  1201.853 eV
 626( 0) :    44.201162 a.u.  1202.775 eV
 627( 0) :    44.209785 a.u.  1203.009 eV
 628( 0) :    44.230481 a.u.  1203.573 eV
 629( 0) :    44.237507 a.u.  1203.764 eV
 630( 0) :   205.086260 a.u.  5580.681 eV
 631( 0) :   205.138950 a.u.  5582.115 eV
 632( 0) :   205.155384 a.u.  5582.562 eV
 633( 0) :   205.163016 a.u.  5582.769 eV
 634( 0) :   205.179622 a.u.  5583.221 eV
 635( 0) :   205.188100 a.u.  5583.452 eV
 636( 0) :   205.190011 a.u.  5583.504 eV
 637( 0) :   205.194179 a.u.  5583.617 eV
 638( 0) :   205.194827 a.u.  5583.635 eV
 639( 0) :   205.199653 a.u.  5583.766 eV
 640( 0) :   205.201665 a.u.  5583.821 eV
 641( 0) :   205.212107 a.u.  5584.105 eV
 642( 0) :   205.216202 a.u.  5584.217 eV
 643( 0) :   205.219288 a.u.  5584.301 eV
 644( 0) :   205.228249 a.u.  5584.545 eV
-------
TIMINGS
-------

Total SCF time: 0 days 0 hours 2 min 31 sec 

Total time                  ....     151.503 sec
Sum of individual times     ....     148.739 sec  ( 98.2%)

Fock matrix formation       ....     141.707 sec  ( 93.5%)
  Split-RI-J                ....      40.703 sec  ( 28.7% of F)
  XC integration            ....      91.845 sec  ( 64.8% of F)
    Basis function eval.    ....      13.334 sec  ( 14.5% of XC)
    Density eval.           ....      41.913 sec  ( 45.6% of XC)
    XC-Functional eval.     ....       8.067 sec  (  8.8% of XC)
    XC-Potential eval.      ....      20.883 sec  ( 22.7% of XC)
Diagonalization             ....       1.720 sec  (  1.1%)
Density matrix formation    ....       0.279 sec  (  0.2%)
Population analysis         ....       0.901 sec  (  0.6%)
Initial guess               ....       0.222 sec  (  0.1%)
Orbital Transformation      ....       0.000 sec  (  0.0%)
Orbital Orthonormalization  ....       0.185 sec  (  0.1%)
DIIS solution               ....       0.585 sec  (  0.4%)
Grid generation             ....       3.325 sec  (  2.2%)

Maximum memory used throughout the entire SCF-calculation: 663.2 MB

-------------------------   --------------------
FINAL SINGLE POINT ENERGY     -3300.920591225420
-------------------------   --------------------

                                *** OPTIMIZATION RUN DONE ***

                            ***************************************
                            *     ORCA property calculations      *
                            ***************************************

                                    ---------------------
                                    Active property flags
                                    ---------------------
   (+) Dipole Moment


------------------------------------------------------------------------------
                       ORCA ELECTRIC PROPERTIES CALCULATION
------------------------------------------------------------------------------

Dipole Moment Calculation                       ... on
Quadrupole Moment Calculation                   ... off
Polarizability Calculation                      ... off
GBWName                                         ... pbe.gbw
Electron density                                ... pbe.scfp
The origin for moment calculation is the CENTER OF MASS  = (13.414066, 14.869236 14.189680)

-------------
DIPOLE MOMENT
-------------
                                X             Y             Z
Electronic contribution:     13.20460      15.77942      -5.58963
Nuclear contribution   :    -13.36478     -15.79734       5.45239
                        -----------------------------------------
Total Dipole Moment    :     -0.16019      -0.01792      -0.13724
                        -----------------------------------------
Magnitude (a.u.)       :      0.21170
Magnitude (Debye)      :      0.53809



--------------------
Rotational spectrum 
--------------------
 
Rotational constants in cm-1:     0.001113     0.000903     0.000829 
Rotational constants in MHz :    33.363074    27.076883    24.863345 

 Dipole components along the rotational axes: 
x,y,z [a.u.] :    -0.028243     0.209798     0.001713 
x,y,z [Debye]:    -0.071789     0.533263     0.004355 

 

Timings for individual modules:

Sum of individual times         ...    22288.788 sec (= 371.480 min)
GTO integral calculation        ...      454.277 sec (=   7.571 min)   2.0 %
SCF iterations                  ...    17336.043 sec (= 288.934 min)  77.8 %
SCF Gradient evaluation         ...     4477.909 sec (=  74.632 min)  20.1 %
Geometry relaxation             ...       20.559 sec (=   0.343 min)   0.1 %
                             ****ORCA TERMINATED NORMALLY****
TOTAL RUN TIME: 0 days 6 hours 11 minutes 50 seconds 520 msec
