
                                 *****************
                                 * O   R   C   A *
                                 *****************

                                            #,                                       
                                            ###                                      
                                            ####                                     
                                            #####                                    
                                            ######                                   
                                           ########,                                 
                                     ,,################,,,,,                         
                               ,,#################################,,                 
                          ,,##########################################,,             
                       ,#########################################, ''#####,          
                    ,#############################################,,   '####,        
                  ,##################################################,,,,####,       
                ,###########''''           ''''###############################       
              ,#####''   ,,,,##########,,,,          '''####'''          '####       
            ,##' ,,,,###########################,,,                        '##       
           ' ,,###''''                  '''############,,,                           
         ,,##''                                '''############,,,,        ,,,,,,###''
      ,#''                                            '''#######################'''  
     '                                                          ''''####''''         
             ,#######,   #######,   ,#######,      ##                                
            ,#'     '#,  ##    ##  ,#'     '#,    #''#        ######   ,####,        
            ##       ##  ##   ,#'  ##            #'  '#       #        #'  '#        
            ##       ##  #######   ##           ,######,      #####,   #    #        
            '#,     ,#'  ##    ##  '#,     ,#' ,#      #,         ##   #,  ,#        
             '#######'   ##     ##  '#######'  #'      '#     #####' # '####'        



                  #######################################################
                  #                        -***-                        #
                  #          Department of theory and spectroscopy      #
                  #    Directorship and core code : Frank Neese         #
                  #        Max Planck Institute fuer Kohlenforschung    #
                  #                Kaiser Wilhelm Platz 1               #
                  #                 D-45470 Muelheim/Ruhr               #
                  #                      Germany                        #
                  #                                                     #
                  #                  All rights reserved                #
                  #                        -***-                        #
                  #######################################################


                         Program Version 5.0.3 -  RELEASE  -


 With contributions from (in alphabetic order):
   Daniel Aravena         : Magnetic Suceptibility
   Michael Atanasov       : Ab Initio Ligand Field Theory (pilot matlab implementation)
   Alexander A. Auer      : GIAO ZORA, VPT2 properties, NMR spectrum
   Ute Becker             : Parallelization
   Giovanni Bistoni       : ED, misc. LED, open-shell LED, HFLD
   Martin Brehm           : Molecular dynamics
   Dmytro Bykov           : SCF Hessian
   Vijay G. Chilkuri      : MRCI spin determinant printing, contributions to CSF-ICE
   Dipayan Datta          : RHF DLPNO-CCSD density
   Achintya Kumar Dutta   : EOM-CC, STEOM-CC
   Dmitry Ganyushin       : Spin-Orbit,Spin-Spin,Magnetic field MRCI
   Miquel Garcia          : C-PCM and meta-GGA Hessian, CC/C-PCM, Gaussian charge scheme
   Yang Guo               : DLPNO-NEVPT2, F12-NEVPT2, CIM, IAO-localization
   Andreas Hansen         : Spin unrestricted coupled pair/coupled cluster methods
   Benjamin Helmich-Paris : MC-RPA, TRAH-SCF, COSX integrals
   Lee Huntington         : MR-EOM, pCC
   Robert Izsak           : Overlap fitted RIJCOSX, COSX-SCS-MP3, EOM
   Marcus Kettner         : VPT2
   Christian Kollmar      : KDIIS, OOCD, Brueckner-CCSD(T), CCSD density, CASPT2, CASPT2-K
   Simone Kossmann        : Meta GGA functionals, TD-DFT gradient, OOMP2, MP2 Hessian
   Martin Krupicka        : Initial AUTO-CI
   Lucas Lang             : DCDCAS
   Marvin Lechner         : AUTO-CI (C++ implementation), FIC-MRCC
   Dagmar Lenk            : GEPOL surface, SMD
   Dimitrios Liakos       : Extrapolation schemes; Compound Job, initial MDCI parallelization
   Dimitrios Manganas     : Further ROCIS development; embedding schemes
   Dimitrios Pantazis     : SARC Basis sets
   Anastasios Papadopoulos: AUTO-CI, single reference methods and gradients
   Taras Petrenko         : DFT Hessian,TD-DFT gradient, ASA, ECA, R-Raman, ABS, FL, XAS/XES, NRVS
   Peter Pinski           : DLPNO-MP2, DLPNO-MP2 Gradient
   Christoph Reimann      : Effective Core Potentials
   Marius Retegan         : Local ZFS, SOC
   Christoph Riplinger    : Optimizer, TS searches, QM/MM, DLPNO-CCSD(T), (RO)-DLPNO pert. Triples
   Tobias Risthaus        : Range-separated hybrids, TD-DFT gradient, RPA, STAB
   Michael Roemelt        : Original ROCIS implementation
   Masaaki Saitow         : Open-shell DLPNO-CCSD energy and density
   Barbara Sandhoefer     : DKH picture change effects
   Avijit Sen             : IP-ROCIS
   Kantharuban Sivalingam : CASSCF convergence, NEVPT2, FIC-MRCI
   Bernardo de Souza      : ESD, SOC TD-DFT
   Georgi Stoychev        : AutoAux, RI-MP2 NMR, DLPNO-MP2 response
   Willem Van den Heuvel  : Paramagnetic NMR
   Boris Wezisla          : Elementary symmetry handling
   Frank Wennmohs         : Technical directorship


 We gratefully acknowledge several colleagues who have allowed us to
 interface, adapt or use parts of their codes:
   Stefan Grimme, W. Hujo, H. Kruse, P. Pracht,  : VdW corrections, initial TS optimization,
                  C. Bannwarth, S. Ehlert          DFT functionals, gCP, sTDA/sTD-DF
   Ed Valeev, F. Pavosevic, A. Kumar             : LibInt (2-el integral package), F12 methods
   Garnet Chan, S. Sharma, J. Yang, R. Olivares  : DMRG
   Ulf Ekstrom                                   : XCFun DFT Library
   Mihaly Kallay                                 : mrcc  (arbitrary order and MRCC methods)
   Jiri Pittner, Ondrej Demel                    : Mk-CCSD
   Frank Weinhold                                : gennbo (NPA and NBO analysis)
   Christopher J. Cramer and Donald G. Truhlar   : smd solvation model
   Lars Goerigk                                  : TD-DFT with DH, B97 family of functionals
   V. Asgeirsson, H. Jonsson                     : NEB implementation
   FAccTs GmbH                                   : IRC, NEB, NEB-TS, DLPNO-Multilevel, CI-OPT
                                                   MM, QMMM, 2- and 3-layer-ONIOM, Crystal-QMMM,
                                                   LR-CPCM, SF, NACMEs, symmetry and pop. for TD-DFT,
                                                   nearIR, NL-DFT gradient (VV10), updates on ESD,
                                                   ML-optimized integration grids
   S Lehtola, MJT Oliveira, MAL Marques          : LibXC Library
   Liviu Ungur et al                             : ANISO software


 Your calculation uses the libint2 library for the computation of 2-el integrals
 For citations please refer to: http://libint.valeyev.net

 Your ORCA version has been built with support for libXC version: 5.1.0
 For citations please refer to: https://tddft.org/programs/libxc/

 This ORCA versions uses:
   CBLAS   interface :  Fast vector & matrix operations
   LAPACKE interface :  Fast linear algebra routines
   SCALAPACK package :  Parallel linear algebra routines
   Shared memory     :  Shared parallel matrices
   BLAS/LAPACK       :  OpenBLAS 0.3.15  USE64BITINT DYNAMIC_ARCH NO_AFFINITY Sandybridge SINGLE_THREADED
        Core in use  :  Sandybridge
   Copyright (c) 2011-2014, The OpenBLAS Project




***************************************
The coordinates will be read from file: pbe.xyz
***************************************


================================================================================

cite the ECPs for Au [Def2-ECP] as follows:
Ce-Yb(ecp-28): M. Dolg, H. Stoll, H.Preuss, J. Chem. Phys., 1989, 90, 1730-1734.
Y-Cd(ecp-28), Hf-Hg(ecp-46): D. Andrae,U. Haeussermann, M. Dolg, H. Stoll, H. Preuss, Theor. Chim. Acta, 1990, 77, 123-141.
In-Sb(ecp-28), Tl-Bi(ecp-46): B. Metz, H. Stoll, M. Dolg, J. Chem. Phys., 2000, 113, 2563-2569.
Te-Xe(ecp-28), Po-Rn(ecp-46): K. A. Peterson, D. Figgen, E. Goll, H. Stoll, M. Dolg, J. Chem. Phys., 2003, 119, 11113-11123.
Rb(ecp-28), Cs(ecp-46): T. Leininger, A. Nicklass, W. Kuechle, H. Stoll, M. Dolg, A. Bergner, Chem. Phys. Lett., 1996, 255, 274-280.
Sr(ecp-28), Ba(ecp-46): M. Kaupp, P. V. Schleyer, H. Stoll and H. Preuss, J. Chem. Phys., 1991, 94, 1360-1366.
La(ecp-46): M. Dolg, H. Stoll, A. Savin, H. Preuss, Theor. Chim. Acta, 1989, 75, 173-194.
Lu(ecp-28): X. Cao, M. Dolg, J. Chem. Phys., 2001, 115, 7348-7355.

ECP parameters for Au [Def2-ECP] have been obtained from:
TURBOMOLE (7.0.2)

----- Orbital basis set information -----
Your calculation utilizes the basis: def2-TZVP
   F. Weigend and R. Ahlrichs, Phys. Chem. Chem. Phys. 7, 3297 (2005).

----- AuxJ basis set information -----
Your calculation utilizes the auxiliary basis: def2/J
   F. Weigend, Phys. Chem. Chem. Phys. 8, 1057 (2006).

================================================================================
                                        WARNINGS
                       Please study these warnings very carefully!
================================================================================


WARNING: your system is open-shell and RHF/RKS was chosen
  ===> : WILL SWITCH to UHF/UKS


INFO   : the flag for use of the SHARK integral package has been found!



***************************************
The coordinates will be read from file: pbe.xyz
***************************************


================================================================================

cite the ECPs for Au [Def2-ECP] as follows:
Ce-Yb(ecp-28): M. Dolg, H. Stoll, H.Preuss, J. Chem. Phys., 1989, 90, 1730-1734.
Y-Cd(ecp-28), Hf-Hg(ecp-46): D. Andrae,U. Haeussermann, M. Dolg, H. Stoll, H. Preuss, Theor. Chim. Acta, 1990, 77, 123-141.
In-Sb(ecp-28), Tl-Bi(ecp-46): B. Metz, H. Stoll, M. Dolg, J. Chem. Phys., 2000, 113, 2563-2569.
Te-Xe(ecp-28), Po-Rn(ecp-46): K. A. Peterson, D. Figgen, E. Goll, H. Stoll, M. Dolg, J. Chem. Phys., 2003, 119, 11113-11123.
Rb(ecp-28), Cs(ecp-46): T. Leininger, A. Nicklass, W. Kuechle, H. Stoll, M. Dolg, A. Bergner, Chem. Phys. Lett., 1996, 255, 274-280.
Sr(ecp-28), Ba(ecp-46): M. Kaupp, P. V. Schleyer, H. Stoll and H. Preuss, J. Chem. Phys., 1991, 94, 1360-1366.
La(ecp-46): M. Dolg, H. Stoll, A. Savin, H. Preuss, Theor. Chim. Acta, 1989, 75, 173-194.
Lu(ecp-28): X. Cao, M. Dolg, J. Chem. Phys., 2001, 115, 7348-7355.

ECP parameters for Au [Def2-ECP] have been obtained from:
TURBOMOLE (7.0.2)

----- Orbital basis set information -----
Your calculation utilizes the basis: def2-TZVP
   F. Weigend and R. Ahlrichs, Phys. Chem. Chem. Phys. 7, 3297 (2005).

----- AuxJ basis set information -----
Your calculation utilizes the auxiliary basis: def2/J
   F. Weigend, Phys. Chem. Chem. Phys. 8, 1057 (2006).

================================================================================
                                        WARNINGS
                       Please study these warnings very carefully!
================================================================================


INFO   : the flag for use of the SHARK integral package has been found!

================================================================================
                                       INPUT FILE
================================================================================
NAME = pbeSP.inp
|  1> !PBE def2-TZVP VERYSLOWCONV
|  2> 
|  3> %scf
|  4>   AutoTRAHIter 200
|  5>   maxiter 400
|  6> end
|  7> 
|  8> 
|  9> %pal nprocs 6 end 
| 10> 
| 11> *xyzfile 0 5 pbe.xyz
| 12> 
| 13> $new_job
| 14> 
| 15> !PBE def2-TZVP VERYSLOWCONV
| 16> 
| 17> %scf
| 18>   AutoTRAHIter 200
| 19>   maxiter 400
| 20> end
| 21>  
| 22> 
| 23> %pal nprocs 6 end 
| 24> 
| 25> *xyzfile 0 3 pbe.xyz
| 26> 
| 27> 
| 28> 
| 29> 
| 30> 
| 31>                          ****END OF INPUT****
================================================================================


                 $$$$$$$$$$$$$$$$$$$$$$$$$$$$$$$$$$$$$$$$$$$$$$ 
                 $ THERE ARE  2 JOBS TO BE PROCESSED THIS RUN $
                 $$$$$$$$$$$$$$$$$$$$$$$$$$$$$$$$$$$$$$$$$$$$$$ 




                 $$$$$$$$$$$$$$$$  JOB NUMBER  1 $$$$$$$$$$$$$$


                       ****************************
                       * Single Point Calculation *
                       ****************************

---------------------------------
CARTESIAN COORDINATES (ANGSTROEM)
---------------------------------
  Au     6.540330    7.326721    4.145086
  Au     9.087409    7.211841    3.177305
  Au     8.934277    6.859719    5.890226
  Au     9.292394    9.348486    7.130298
  Au     8.505809    9.570835    4.445429
  Au     7.198131   11.168757    6.188074
  Au     5.195621    7.681754    8.536558
  Au     7.829330    7.111059    8.341089
  Au     6.942459    9.862786    8.804202
  Au     4.777284   10.400561    7.106101
  Au     2.773832    8.613747    7.655246
  Au     4.426366    7.802938    5.642007
  Fe     6.794667    8.582143    6.423171

----------------------------
CARTESIAN COORDINATES (A.U.)
----------------------------
  NO LB      ZA    FRAG     MASS         X           Y           Z
   0 Au   19.0000*   0   196.966   12.359433   13.845496    7.833077
   1 Au   19.0000*   0   196.966   17.172715   13.628404    6.004237
   2 Au   19.0000*   0   196.966   16.883338   12.962990   11.130915
   3 Au   19.0000*   0   196.966   17.560081   17.666079   13.474311
   4 Au   19.0000*   0   196.966   16.073650   18.086257    8.400642
   5 Au   19.0000*   0   196.966   13.602496   21.105893   11.693766
   6 Au   19.0000*   0   196.966    9.818301   14.516411   16.131757
   7 Au   19.0000*   0   196.966   14.795290   13.437955   15.762374
   8 Au   19.0000*   0   196.966   13.119345   18.637964   16.637530
   9 Au   19.0000*   0   196.966    9.027758   19.654211   13.428585
  10 Au   19.0000*   0   196.966    5.241783   16.277623   14.466318
  11 Au   19.0000*   0   196.966    8.364619   14.745415   10.661848
  12 Fe   26.0000    0    55.850   12.840061   16.217900   12.138035
* core charge reduced due to ECP

--------------------------------
INTERNAL COORDINATES (ANGSTROEM)
--------------------------------
 Au     0   0   0     0.000000000000     0.00000000     0.00000000
 Au     1   0   0     2.727161220792     0.00000000     0.00000000
 Au     2   1   0     2.739959945581    66.53743805     0.00000000
 Au     3   2   1     2.803567488159   108.46540832   266.63648763
 Au     2   1   3     2.740666030936    66.50582386   283.79907824
 Au     5   2   1     2.701886747465   155.53154897    25.45919417
 Au     1   2   3     4.606443392775   127.89354336    12.84433359
 Au     3   2   1     2.700149840650   155.45390087   335.24274302
 Au     7   1   2     2.807129012812    88.23043905    51.06805972
 Au     6   5   2     2.700629876829   119.00368186   339.20202029
 Au    10   6   5     2.740087667061   155.37193751    19.62900468
 Au     1   2   3     2.633704831443   163.53022439    38.83908972
 Fe    12   1   2     2.612705986993    59.75408141   359.18674408

---------------------------
INTERNAL COORDINATES (A.U.)
---------------------------
 Au     0   0   0     0.000000000000     0.00000000     0.00000000
 Au     1   0   0     5.153587830346     0.00000000     0.00000000
 Au     2   1   0     5.177773915063    66.53743805     0.00000000
 Au     3   2   1     5.297974750586   108.46540832   266.63648763
 Au     2   1   3     5.179108223011    66.50582386   283.79907824
 Au     5   2   1     5.105825997581   155.53154897    25.45919417
 Au     1   2   3     8.704916463755   127.89354336    12.84433359
 Au     3   2   1     5.102543719379   155.45390087   335.24274302
 Au     7   1   2     5.304705056799    88.23043905    51.06805972
 Au     6   5   2     5.103450856293   119.00368186   339.20202029
 Au    10   6   5     5.178015273680   155.37193751    19.62900468
 Au     1   2   3     4.976980849013   163.53022439    38.83908972
 Fe    12   1   2     4.937298783873    59.75408141   359.18674408

---------------------
BASIS SET INFORMATION
---------------------
There are 2 groups of distinct atoms

 Group   1 Type Au  : 8s7p6d1f contracted to 6s4p3d1f pattern {311111/4111/411/1}
 Group   2 Type Fe  : 17s11p7d1f contracted to 6s4p4d1f pattern {842111/6311/4111/1}

Atom   0Au   basis set group =>   1
Atom   1Au   basis set group =>   1
Atom   2Au   basis set group =>   1
Atom   3Au   basis set group =>   1
Atom   4Au   basis set group =>   1
Atom   5Au   basis set group =>   1
Atom   6Au   basis set group =>   1
Atom   7Au   basis set group =>   1
Atom   8Au   basis set group =>   1
Atom   9Au   basis set group =>   1
Atom  10Au   basis set group =>   1
Atom  11Au   basis set group =>   1
Atom  12Fe   basis set group =>   2
---------------------------------
AUXILIARY/J BASIS SET INFORMATION
---------------------------------
There are 2 groups of distinct atoms

 Group   1 Type Au  : 11s5p5d3f3g contracted to 8s5p5d2f3g pattern {41111111/11111/11111/21/111}
 Group   2 Type Fe  : 19s5p5d3f3g contracted to 8s5p5d2f3g pattern {121111111/11111/11111/21/111}

Atom   0Au   basis set group =>   1
Atom   1Au   basis set group =>   1
Atom   2Au   basis set group =>   1
Atom   3Au   basis set group =>   1
Atom   4Au   basis set group =>   1
Atom   5Au   basis set group =>   1
Atom   6Au   basis set group =>   1
Atom   7Au   basis set group =>   1
Atom   8Au   basis set group =>   1
Atom   9Au   basis set group =>   1
Atom  10Au   basis set group =>   1
Atom  11Au   basis set group =>   1
Atom  12Fe   basis set group =>   2
-------------------------
ECP PARAMETER INFORMATION
-------------------------

 Group 1, Type Au ECP Def2-ECP (replacing 60 core electrons, lmax=3)

Atom   0Au   ECP group =>   1
Atom   1Au   ECP group =>   1
Atom   2Au   ECP group =>   1
Atom   3Au   ECP group =>   1
Atom   4Au   ECP group =>   1
Atom   5Au   ECP group =>   1
Atom   6Au   ECP group =>   1
Atom   7Au   ECP group =>   1
Atom   8Au   ECP group =>   1
Atom   9Au   ECP group =>   1
Atom  10Au   ECP group =>   1
Atom  11Au   ECP group =>   1



           ************************************************************
           *        Program running with 6 parallel MPI-processes     *
           *              working on a common directory               *
           ************************************************************
------------------------------------------------------------------------------
                           ORCA GTO INTEGRAL CALCULATION
                           -- RI-GTO INTEGRALS CHOSEN --
------------------------------------------------------------------------------
------------------------------------------------------------------------------
                   ___                                                        
                  /   \      - P O W E R E D   B Y -                         
                 /     \                                                     
                 |  |  |   _    _      __       _____    __    __             
                 |  |  |  | |  | |    /  \     |  _  \  |  |  /  |          
                  \  \/   | |  | |   /    \    | | | |  |  | /  /          
                 / \  \   | |__| |  /  /\  \   | |_| |  |  |/  /          
                |  |  |   |  __  | /  /__\  \  |    /   |      \           
                |  |  |   | |  | | |   __   |  |    \   |  |\   \          
                \     /   | |  | | |  |  |  |  | |\  \  |  | \   \       
                 \___/    |_|  |_| |__|  |__|  |_| \__\ |__|  \__/        
                                                                              
                      - O R C A' S   B I G   F R I E N D -                    
                                      &                                       
                       - I N T E G R A L  F E E D E R -                       
                                                                              
 v1 FN, 2020, v2 2021                                                         
------------------------------------------------------------------------------


Reading SHARK input file pbeSP.SHARKINP.tmp ... ok
----------------------
SHARK INTEGRAL PACKAGE
----------------------

Number of atoms                             ...     13
Number of basis functions                   ...    525
Number of shells                            ...    183
Maximum angular momentum                    ...      3
Integral batch strategy                     ... SHARK/LIBINT Hybrid
RI-J (if used) integral strategy            ... SPLIT-RIJ (Revised 2003 algorithm where possible)
Printlevel                                  ...      1
Contraction scheme used                     ... SEGMENTED contraction
Coulomb Range Separation                    ... NOT USED
Exchange Range Separation                   ... NOT USED
Finite Nucleus Model                        ... NOT USED
Auxiliary Coulomb fitting basis             ... AVAILABLE
   # of basis functions in Aux-J            ...   1157
   # of shells in Aux-J                     ...    299
   Maximum angular momentum in Aux-J        ...      4
Auxiliary J/K fitting basis                 ... NOT available
Auxiliary Correlation fitting basis         ... NOT available
Auxiliary 'external' fitting basis          ... NOT available
Integral threshold                          ...     1.000000e-10
Primitive cut-off                           ...     1.000000e-11
Primitive pair pre-selection threshold      ...     1.000000e-11

Calculating pre-screening integrals         ... done (  0.2 sec) Dimension = 183
Organizing shell pair data                  ... done (  1.3 sec)
Shell pair information
Total number of shell pairs                 ...     16836
Shell pairs after pre-screening             ...     13562
Total number of primitive shell pairs       ...     45389
Primitive shell pairs kept                  ...     26699
          la=0 lb=0:   2138 shell pairs
          la=1 lb=0:   3106 shell pairs
          la=1 lb=1:   1157 shell pairs
          la=2 lb=0:   2704 shell pairs
          la=2 lb=1:   1880 shell pairs
          la=2 lb=2:    783 shell pairs
          la=3 lb=0:    710 shell pairs
          la=3 lb=1:    542 shell pairs
          la=3 lb=2:    468 shell pairs
          la=3 lb=3:     74 shell pairs

Calculating one electron integrals          ... done (  0.1 sec)
Calculating ECP integrals                   ... done ( 13.5 sec)
Calculating RI/J V-Matrix + Cholesky decomp.... done (  0.1 sec)
Calculating Nuclear repulsion               ... done (  0.0 sec) ENN=   4354.726656852991 Eh

SHARK setup successfully completed in  15.8 seconds

Maximum memory used throughout the entire GTOINT-calculation: 30.6 MB


           ************************************************************
           *        Program running with 6 parallel MPI-processes     *
           *              working on a common directory               *
           ************************************************************
-------------------------------------------------------------------------------
                                 ORCA SCF
-------------------------------------------------------------------------------

------------
SCF SETTINGS
------------
Hamiltonian:
 Density Functional     Method          .... DFT(GTOs)
 Exchange Functional    Exchange        .... PBE
   PBE kappa parameter   XKappa         ....  0.804000
   PBE mue parameter    XMuePBE         ....  0.219520
 Correlation Functional Correlation     .... PBE
   PBE beta parameter  CBetaPBE         ....  0.066725
 LDA part of GGA corr.  LDAOpt          .... PW91-LDA
 Gradients option       PostSCFGGA      .... off
   Density functional embedding theory  .... OFF
   NL short-range parameter             ....  6.400000
 RI-approximation to the Coulomb term is turned on
   Number of AuxJ basis functions       .... 1157


General Settings:
 Integral files         IntName         .... pbeSP
 Hartree-Fock type      HFTyp           .... UHF
 Total Charge           Charge          ....    0
 Multiplicity           Mult            ....    5
 Number of Electrons    NEL             ....  254
 Basis Dimension        Dim             ....  525
 Nuclear Repulsion      ENuc            ....   4354.7266568530 Eh

Convergence Acceleration:
 DIIS                   CNVDIIS         .... on
   Start iteration      DIISMaxIt       ....     0
   Startup error        DIISStart       ....  0.200000
   # of expansion vecs  DIISMaxEq       ....     5
   Bias factor          DIISBfac        ....   1.050
   Max. coefficient     DIISMaxC        ....  10.000
 Trust-Rad. Augm. Hess. CNVTRAH         .... auto
   Auto Start mean grad. ratio tolernc. ....  1.125000
   Auto Start start iteration           ....   200
   Auto Start num. interpolation iter.  ....    10
   Max. Number of Micro iterations      ....    16
   Max. Number of Macro iterations      .... Maxiter - #DIIS iter
   Number of Davidson start vectors     ....     2
   Converg. threshold I  (grad. norm)   ....   5.000e-05
   Converg. threshold II (energy diff.) ....   1.000e-06
   Grad. Scal. Fac. for Micro threshold ....   0.100
   Minimum threshold for Micro iter.    ....   0.010
   NR start threshold (gradient norm)   ....   0.001
   Initial trust radius                 ....   0.400
   Minimum AH scaling param. (alpha)    ....   1.000
   Maximum AH scaling param. (alpha)    .... 1000.000
   Orbital update algorithm             .... Taylor
   White noise on init. David. guess    .... on
   Maximum white noise                  ....   0.010
   Quad. conv. algorithm                .... NR
 SOSCF                  CNVSOSCF        .... off
 Level Shifting         CNVShift        .... on
   Level shift para.    LevelShift      ....    0.2500
   Turn off err/grad.   ShiftErr        ....    0.0000
 Zerner damping         CNVZerner       .... off
 Static damping         CNVDamp         .... on
   Fraction old density DampFac         ....    0.9200
   Max. Damping (<1)    DampMax         ....    0.9800
   Min. Damping (>=0)   DampMin         ....    0.0000
   Turn off err/grad.   DampErr         ....    0.0030
 Fernandez-Rico         CNVRico         .... off

SCF Procedure:
 Maximum # iterations   MaxIter         ....   400
 SCF integral mode      SCFMode         .... Direct
   Integral package                     .... SHARK and LIBINT hybrid scheme
 Reset frequency        DirectResetFreq ....    20
 Integral Threshold     Thresh          ....  1.000e-10 Eh
 Primitive CutOff       TCut            ....  1.000e-11 Eh

Convergence Tolerance:
 Convergence Check Mode ConvCheckMode   .... Total+1el-Energy
 Convergence forced     ConvForced      .... 0
 Energy Change          TolE            ....  1.000e-06 Eh
 1-El. energy change                    ....  1.000e-03 Eh
 DIIS Error             TolErr          ....  1.000e-06


Diagonalization of the overlap matrix:
Smallest eigenvalue                        ... 4.795e-04
Time for diagonalization                   ...    0.077 sec
Threshold for overlap eigenvalues          ... 1.000e-08
Number of eigenvalues below threshold      ... 0
Time for construction of square roots      ...    0.054 sec
Total time needed                          ...    0.132 sec

Time for model grid setup =    0.527 sec

------------------------------
INITIAL GUESS: MODEL POTENTIAL
------------------------------
Loading Hartree-Fock densities                     ... done
  calling /home/ehlert/src/miniconda3/envs/orca500/Programs/ORCA501/orca pbeSP_atom79.inp > pbeSP_atom79.out in order to generate an atomic fitting density for atom 0 (Au with ECP) on-the-fly... 
    atom 0 (Au), assumed electronic state with S=2: 1s2 2s2 2p6 3s2 3p6 4s2 3d10 4p6 5s2 4d10 5p6 6s1 4f14 5d10           ... done
Calculating cut-offs                               ... done
Initializing the effective Hamiltonian             ... done
Setting up the integral package (SHARK)            ... done
Starting the Coulomb interaction                   ... done (   0.7 sec)
Reading the grid                                   ... done
Mapping shells                                     ... done
Starting the XC term evaluation                    ... done (   0.7 sec)
  promolecular density results
     # of electrons  =    974.013352940
     EX              =  -4443.967587990
     EC              =    -59.271069863
     EX+EC           =  -4503.238657853
Transforming the Hamiltonian                       ... done (   0.1 sec)
Diagonalizing the Hamiltonian                      ... done (   0.1 sec)
Back transforming the eigenvectors                 ... done (   0.0 sec)
Now organizing SCF variables                       ... done
                      ------------------
                      INITIAL GUESS DONE (   3.0 sec)
                      ------------------
-------------------
DFT GRID GENERATION
-------------------

General Integration Accuracy     IntAcc      ... 4.388
Radial Grid Type                 RadialGrid  ... OptM3 with GC (2021)
Angular Grid (max. ang.)         AngularGrid ... 4 (Lebedev-302)
Angular grid pruning method      GridPruning ... 4 (adaptive)
Weight generation scheme         WeightScheme... Becke
Basis function cutoff            BFCut       ... 1.0000e-10
Integration weight cutoff        WCut        ... 1.0000e-14
Angular grids for H and He will be reduced by one unit
Partially contracted basis set               ... off
Rotationally invariant grid construction     ... off

Total number of grid points                  ...   144900
Total number of batches                      ...     2271
Average number of points per batch           ...       63
Average number of grid points per atom       ...    11146
Time for grid setup =    2.357 sec

--------------
SCF ITERATIONS
--------------
ITER       Energy         Delta-E        Max-DP      RMS-DP      [F,P]     Damp
               ***  Starting incremental Fock matrix formation  ***
  0  -2890.3630203768   0.000000000000 0.12178930  0.00088021  0.5102834 0.9200
  1  -2891.5604912784  -1.197470901627 0.10123049  0.00077444  0.3179924 0.9200
                               ***Turning on DIIS***
  2  -2892.1864704715  -0.625979193037 0.07325577  0.00060951  0.2412119 0.9200
  3  -2892.4274309298  -0.240960458328 0.04935051  0.00046130  0.2211477 0.9200
  4  -2892.4642165504  -0.036785620565 0.02204771  0.00037213  0.2029296 0.9200
  5  -2892.4532116539   0.011004896468 0.02476321  0.00032812  0.1861799 0.9200
  6  -2892.5098801168  -0.056668462920 0.02607978  0.00031668  0.1707560 0.9200
  7  -2892.6101678171  -0.100287700277 0.02672567  0.00029969  0.1566907 0.9200
  8  -2892.6793420904  -0.069174273292 0.02742963  0.00028184  0.1440798 0.9200
  9  -2892.7287944743  -0.049452383968 0.02714911  0.00027234  0.1324778 0.9200
 10  -2892.7681043180  -0.039309843679 0.02736616  0.00024804  0.1217574 0.9200
 11  -2892.7932721354  -0.025167817430 0.02320418  0.00021723  0.1119962 0.9200
 12  -2892.8304465017  -0.037174366226 0.01755655  0.00020645  0.1029485 0.9200
 13  -2892.8793692944  -0.048922792749 0.01983647  0.00019038  0.0944945 0.9200
 14  -2892.9148595631  -0.035490268704 0.02104951  0.00017755  0.0868623 0.9200
 15  -2892.9461980046  -0.031338441439 0.02168005  0.00017004  0.0798423 0.9200
 16  -2892.9742251715  -0.028027166974 0.02146446  0.00015753  0.0733896 0.9200
 17  -2892.9981356140  -0.023910442427 0.01810852  0.00014124  0.0675213 0.9200
 18  -2893.0236068522  -0.025471238273 0.01445226  0.00013368  0.0620721 0.9200
 19  -2893.0483744019  -0.024767549628 0.01520930  0.00012526  0.0569951 0.9200
               *** Restarting incremental Fock matrix formation ***
                                   *** Resetting DIIS ***
 20  -2893.0698802430  -0.021505841163 0.01470359  0.00011996  0.0523966 0.9200
 21  -2893.0899906876  -0.020110444530 0.01464525  0.00011644  0.0481009 0.9200
 22  -2893.1091924093  -0.019201721746 0.01294387  0.00011282  0.0441842 0.9200
 23  -2893.1270137244  -0.017821315133 0.01384513  0.00011199  0.0406164 0.9200
 24  -2893.1435536310  -0.016539906567 0.01439820  0.00011632  0.0373445 0.9200
 25  -2893.1592690808  -0.015715449741 0.01515356  0.00012563  0.0343496 0.9200
 26  -2893.1743927708  -0.015123690050 0.01855505  0.00013903  0.0315912 0.9200
 27  -2893.1889938921  -0.014601121334 0.02131470  0.00015407  0.0290540 0.9200
 28  -2893.2030836729  -0.014089780755 0.02490407  0.00016754  0.0267162 0.9200
 29  -2893.2166809926  -0.013597319685 0.02902164  0.00017680  0.0245641 0.9200
 30  -2893.2298482028  -0.013167210228 0.03156381  0.00018153  0.0225907 0.9200
 31  -2893.2424734550  -0.012625252227 0.03280531  0.00018195  0.0207772 0.9200
 32  -2893.2544421060  -0.011968650927 0.03327635  0.00017893  0.0191064 0.9200
 33  -2893.2657134640  -0.011271358017 0.03306584  0.00017352  0.0175673 0.9200
 34  -2893.2762947266  -0.010581262601 0.03210444  0.00016666  0.0161536 0.9200
 35  -2893.2862180488  -0.009923322214 0.03079147  0.00015882  0.0148573 0.9200
 36  -2893.2954641156  -0.009246066776 0.02927824  0.00015025  0.0136653 0.9200
 37  -2893.3040504003  -0.008586284768 0.02758468  0.00014151  0.0125659 0.9200
 38  -2893.3120130826  -0.007962682281 0.02577692  0.00013295  0.0115539 0.9200
 39  -2893.3194098281  -0.007396745482 0.02396283  0.00012456  0.0106259 0.9200
               *** Restarting incremental Fock matrix formation ***
                                   *** Resetting DIIS ***
 40  -2893.3262672677  -0.006857439572 0.02232900  0.00011633  0.0097740 0.9200
 41  -2893.3326248607  -0.006357592993 0.02075268  0.00010839  0.0089776 0.9200
 42  -2893.3384997757  -0.005874915055 0.01919148  0.00010079  0.0082464 0.9200
 43  -2893.3439225565  -0.005422780742 0.01765738  0.00009376  0.0075782 0.9200
 44  -2893.3489289183  -0.005006361816 0.01625716  0.00008724  0.0069693 0.9200
 45  -2893.3535512968  -0.004622378510 0.01501888  0.00008109  0.0064114 0.9200
 46  -2893.3578195145  -0.004268217673 0.01390152  0.00007524  0.0058968 0.9200
 47  -2893.3617593414  -0.003939826981 0.01283202  0.00006977  0.0054216 0.9200
 48  -2893.3653944031  -0.003635061672 0.01179556  0.00006473  0.0049845 0.9200
 49  -2893.3687514043  -0.003357001228 0.01084332  0.00006004  0.0045844 0.9200
 50  -2893.3718488537  -0.003097449376 0.00999285  0.00005559  0.0042171 0.9200
 51  -2893.3747055123  -0.002856658635 0.00921372  0.00005143  0.0038785 0.9200
 52  -2893.3773398456  -0.002634333287 0.00847811  0.00004762  0.0035663 0.9200
 53  -2893.3797701267  -0.002430281022 0.00779119  0.00004412  0.0032795 0.9200
 54  -2893.3820122298  -0.002242103113 0.00716948  0.00004085  0.0030163 0.9200
 55  -2893.3840790182  -0.002066788403 0.08255152  0.00047207  0.0027743 0.0000
 56  -2893.4081620110  -0.024082992806 0.00131484  0.00001370  0.0009366 0.0000
 57  -2893.4081195842   0.000042426737 0.00009570  0.00000072  0.0033806 0.9200
 58  -2893.4081235926  -0.000004008393 0.00011719  0.00000114  0.0032574 0.9200
 59  -2893.4081286487  -0.000005056042 0.00011792  0.00000147  0.0031098 0.9200
               *** Restarting incremental Fock matrix formation ***
                                   *** Resetting DIIS ***
 60  -2893.4081319555  -0.000003306807 0.00584793  0.00004355  0.0029621 0.0000
 61  -2893.4073953274   0.000736628097 0.00025985  0.00000144  0.0116201 0.9200
 62  -2893.4074489548  -0.000053627416 0.00029820  0.00000188  0.0111593 0.9200
 63  -2893.4075181537  -0.000069198903 0.00030142  0.00000207  0.0105650 0.9200
 64  -2893.4075909893  -0.000072835621 0.00028715  0.00000219  0.0099238 0.9200
 65  -2893.4076622154  -0.000071226109 0.00076273  0.00000579  0.0092704 0.9200
 66  -2893.4078383592  -0.000176143743 0.00049704  0.00000518  0.0072694 0.9200
 67  -2893.4079580659  -0.000119706732 0.00040612  0.00000445  0.0056677 0.9200
 68  -2893.4080333028  -0.000075236924 0.00033633  0.00000385  0.0044281 0.9200
 69  -2893.4080804438  -0.000047140985 0.00027400  0.00000337  0.0034654 0.9200
 70  -2893.4081104225  -0.000029978640 0.00275667  0.00003733  0.0027178 0.0000
 71  -2893.4080618129   0.000048609533 0.00003544  0.00000043  0.0045159 0.9200
 72  -2893.4080685933  -0.000006780339 0.00006151  0.00000076  0.0043992 0.9200
 73  -2893.4080797203  -0.000011127055 0.00008032  0.00000102  0.0042111 0.9200
 74  -2893.4080931234  -0.000013403029 0.00009359  0.00000122  0.0039782 0.9200
 75  -2893.4081074099  -0.000014286529 0.00024986  0.00000278  0.0037175 0.9200
 76  -2893.4081420288  -0.000034618873 0.00295834  0.00003398  0.0028345 0.0000
 77  -2893.4079741558   0.000167872977 0.00008343  0.00000048  0.0059516 0.9200
 78  -2893.4079831243  -0.000008968570 0.00010750  0.00000068  0.0058274 0.9200
 79  -2893.4079958043  -0.000012679971 0.00011081  0.00000077  0.0056536 0.9200
               *** Restarting incremental Fock matrix formation ***
                                   *** Resetting DIIS ***
 80  -2893.4080089996  -0.000013195322 0.00092892  0.00000682  0.0054583 0.9200
 81  -2893.4081062108  -0.000097211147 0.00047863  0.00000522  0.0030577 0.9200
 82  -2893.4081478424  -0.000041631647 0.00448054  0.00005018  0.0015340 0.0000
 83  -2893.4073314378   0.000816404618 0.00009254  0.00000075  0.0107946 0.9200
 84  -2893.4073669599  -0.000035522077 0.00011791  0.00000118  0.0105652 0.9200
 85  -2893.4074208330  -0.000053873064 0.00012718  0.00000146  0.0102120 0.9200
 86  -2893.4074835435  -0.000062710553 0.00014489  0.00000165  0.0097877 0.9200
 87  -2893.4075493134  -0.000065769931 0.00095716  0.00000776  0.0093238 0.9200
 88  -2893.4078019761  -0.000252662677 0.00061824  0.00000675  0.0066564 0.9200
 89  -2893.4079548650  -0.000152888840 0.00052414  0.00000586  0.0047692 0.9200
 90  -2893.4080445486  -0.000089683689 0.00043967  0.00000506  0.0033455 0.9200
 91  -2893.4080967245  -0.000052175832 0.00462553  0.00005409  0.0022395 0.0000
 92  -2893.4076550859   0.000441638542 0.00003619  0.00000042  0.0085573 0.9200
 93  -2893.4076706067  -0.000015520815 0.00006273  0.00000071  0.0084350 0.9200
 94  -2893.4076956131  -0.000025006356 0.00008157  0.00000093  0.0082336 0.9200
 95  -2893.4077260832  -0.000030470075 0.00009484  0.00000108  0.0079821 0.9200
 96  -2893.4077592465  -0.000033163362 0.00092058  0.00000754  0.0076998 0.9200
 97  -2893.4079478486  -0.000188602079 0.00055831  0.00000622  0.0051415 0.9200
 98  -2893.4080510402  -0.000103191619 0.00046422  0.00000535  0.0034643 0.9200
 99  -2893.4081074284  -0.000056388184 0.00501577  0.00005751  0.0022281 0.0000
               *** Restarting incremental Fock matrix formation ***
                                   *** Resetting DIIS ***
100  -2893.4075204392   0.000586989177 0.00168702  0.00001228  0.0096338 0.9200
101  -2893.4078486115  -0.000328172283 0.00091188  0.00000989  0.0053493 0.9200
102  -2893.4079989548  -0.000150343235 0.00888208  0.00010009  0.0025468 0.0000
103  -2893.4049976526   0.003001302159 0.00017578  0.00000125  0.0206364 0.9200
104  -2893.4051095682  -0.000111915597 0.00022385  0.00000189  0.0202603 0.9200
105  -2893.4052785749  -0.000169006657 0.00022975  0.00000226  0.0196866 0.9200
106  -2893.4054747715  -0.000196196603 0.00022148  0.00000248  0.0190040 0.9200
107  -2893.4056806167  -0.000205845286 0.00204355  0.00001658  0.0182632 0.9200
108  -2893.4066898325  -0.001009215766 0.00123769  0.00001374  0.0126346 0.9200
109  -2893.4072685839  -0.000578751386 0.00103402  0.00001168  0.0088231 0.9200
110  -2893.4075958927  -0.000327308796 0.00086019  0.00000994  0.0059938 0.9200
111  -2893.4077797085  -0.000183815850 0.00073668  0.00000837  0.0038211 0.9200
112  -2893.4078807790  -0.000101070498 0.00779281  0.00008678  0.0021429 0.0000
113  -2893.4067064147   0.001174364355 0.00006384  0.00000073  0.0139960 0.9200
114  -2893.4067461592  -0.000039744526 0.00011097  0.00000127  0.0138054 0.9200
115  -2893.4068114809  -0.000065321724 0.00014506  0.00000168  0.0134872 0.9200
116  -2893.4068920793  -0.000080598330 0.00016981  0.00000197  0.0130847 0.9200
117  -2893.4069807214  -0.000088642098 0.00157052  0.00001276  0.0126278 0.9200
118  -2893.4074970861  -0.000516364737 0.00095301  0.00001059  0.0083185 0.9200
119  -2893.4077768943  -0.000279808153 0.00079442  0.00000920  0.0055195 0.9200
               *** Restarting incremental Fock matrix formation ***
                                   *** Resetting DIIS ***
120  -2893.4079285259  -0.000151631642 0.00105152  0.00001156  0.0034579 0.9200
121  -2893.4080101590  -0.000081633098 0.01034945  0.00011825  0.0007369 0.0000
122  -2893.4040102752   0.003999883781 0.00015577  0.00000122  0.0237338 0.9200
123  -2893.4041419434  -0.000131668188 0.00019370  0.00000189  0.0233416 0.9200
124  -2893.4043401849  -0.000198241456 0.00021132  0.00000231  0.0227503 0.9200
125  -2893.4045708786  -0.000230693784 0.00023920  0.00000258  0.0220493 0.9200
126  -2893.4048140572  -0.000243178509 0.00246283  0.00002038  0.0212893 0.9200
127  -2893.4062105650  -0.001396507804 0.00149029  0.00001665  0.0143925 0.9200
128  -2893.4069840584  -0.000773493449 0.00123978  0.00001417  0.0098393 0.9200
129  -2893.4074100127  -0.000425954257 0.00105718  0.00001210  0.0064845 0.9200
130  -2893.4076422023  -0.000232189612 0.00092632  0.00001022  0.0039172 0.9200
131  -2893.4077649023  -0.000122699981 0.00983035  0.00010658  0.0019472 0.0000
132  -2893.4059901952   0.001774707014 0.00007315  0.00000084  0.0170980 0.9200
133  -2893.4060451944  -0.000054999178 0.00012659  0.00000147  0.0168821 0.9200
134  -2893.4061353490  -0.000090154533 0.00016550  0.00000193  0.0165227 0.9200
135  -2893.4062466345  -0.000111285571 0.00019850  0.00000226  0.0160683 0.9200
136  -2893.4063692524  -0.000122617823 0.00199612  0.00001610  0.0155529 0.9200
137  -2893.4071552349  -0.000785982524 0.00118798  0.00001321  0.0100846 0.9200
138  -2893.4075713487  -0.000416113809 0.00098408  0.00001145  0.0065938 0.9200
139  -2893.4077916624  -0.000220313763 0.00090255  0.00000996  0.0040424 0.9200
               *** Restarting incremental Fock matrix formation ***
                                   *** Resetting DIIS ***
140  -2893.4079058403  -0.000114177863 0.01158421  0.00013389  0.0020906 0.0000
141  -2893.4024956070   0.005410233338 0.00027550  0.00000168  0.0290693 0.9200
142  -2893.4027039060  -0.000208299040 0.00034865  0.00000234  0.0284532 0.9200
143  -2893.4030002025  -0.000296296483 0.00035291  0.00000269  0.0276002 0.9200
144  -2893.4033340157  -0.000333813178 0.00033670  0.00000289  0.0266361 0.9200
145  -2893.4036788492  -0.000344833566 0.00280642  0.00002270  0.0256213 0.9200
146  -2893.4055061994  -0.001827350120 0.00165873  0.00001843  0.0178794 0.9200
147  -2893.4065394179  -0.001033218578 0.00137679  0.00001551  0.0126461 0.9200
148  -2893.4071175148  -0.000578096841 0.00114680  0.00001312  0.0087761 0.9200
149  -2893.4074402310  -0.000322716210 0.00099751  0.00001096  0.0058184 0.9200
150  -2893.4076180059  -0.000177774931 0.00083763  0.00000904  0.0035448 0.9200
151  -2893.4077147759  -0.000096769998 0.00858473  0.00009199  0.0018053 0.0000
152  -2893.4065750996   0.001139676323 0.00007656  0.00000087  0.0147635 0.9200
153  -2893.4066190212  -0.000043921651 0.00013773  0.00000153  0.0145630 0.9200
154  -2893.4066916564  -0.000072635138 0.00018483  0.00000202  0.0142253 0.9200
155  -2893.4067819474  -0.000090291032 0.00021992  0.00000238  0.0137940 0.9200
156  -2893.4068818894  -0.000099941971 0.00152084  0.00001315  0.0133003 0.9200
157  -2893.4074328873  -0.000550997925 0.00100215  0.00001114  0.0088637 0.9200
158  -2893.4077354543  -0.000302567013 0.00085327  0.00000984  0.0059443 0.9200
159  -2893.4079009922  -0.000165537921 0.00079855  0.00000868  0.0037731 0.9200
               *** Restarting incremental Fock matrix formation ***
                                   *** Resetting DIIS ***
160  -2893.4079891124  -0.000088120191 0.01038180  0.00011961  0.0020876 0.0000
161  -2893.4037312414   0.004257871032 0.00025437  0.00000153  0.0260191 0.9200
162  -2893.4038952122  -0.000163970801 0.00032205  0.00000209  0.0254636 0.9200
163  -2893.4041262195  -0.000231007321 0.00032599  0.00000235  0.0247029 0.9200
164  -2893.4043848557  -0.000258636173 0.00031101  0.00000250  0.0238495 0.9200
165  -2893.4046508798  -0.000266024051 0.00251579  0.00002020  0.0229562 0.9200
166  -2893.4060914777  -0.001440597930 0.00147010  0.00001629  0.0160190 0.9200
167  -2893.4069010732  -0.000809595537 0.00121445  0.00001364  0.0113518 0.9200
168  -2893.4073521657  -0.000451092521 0.00100758  0.00001148  0.0079129 0.9200
169  -2893.4076034786  -0.000251312837 0.00087347  0.00000955  0.0052933 0.9200
170  -2893.4077421356  -0.000138657006 0.00072999  0.00000783  0.0032857 0.9200
171  -2893.4078182006  -0.000076065006 0.00743790  0.00007919  0.0017548 0.0000
172  -2893.4069917703   0.000826430254 0.00006977  0.00000079  0.0127694 0.9200
173  -2893.4070258561  -0.000034085801 0.00012545  0.00000138  0.0125886 0.9200
174  -2893.4070822582  -0.000056402082 0.00016829  0.00000183  0.0122838 0.9200
175  -2893.4071523263  -0.000070068072 0.00020019  0.00000215  0.0118944 0.9200
176  -2893.4072297736  -0.000077447331 0.00124743  0.00001108  0.0114485 0.9200
177  -2893.4076307949  -0.000401021299 0.00085476  0.00000951  0.0077216 0.9200
178  -2893.4078548436  -0.000224048719 0.00073902  0.00000845  0.0052351 0.9200
179  -2893.4079792240  -0.000124380407 0.00069317  0.00000748  0.0033732 0.9200
               *** Restarting incremental Fock matrix formation ***
                                   *** Resetting DIIS ***
180  -2893.4080465859  -0.000067361851 0.00910232  0.00010454  0.0019205 0.0000
181  -2893.4047795453   0.003267040577 0.00022837  0.00000136  0.0228790 0.9200
182  -2893.4049065532  -0.000127007896 0.00028918  0.00000185  0.0223843 0.9200
183  -2893.4050846886  -0.000178135371 0.00029273  0.00000207  0.0217097 0.9200
184  -2893.4052835142  -0.000198825613 0.00027927  0.00000219  0.0209552 0.9200
185  -2893.4054876434  -0.000204129152 0.00220634  0.00001762  0.0201673 0.9200
186  -2893.4065887622  -0.001101118827 0.00128391  0.00001421  0.0140957 0.9200
187  -2893.4072078219  -0.000619059699 0.00105892  0.00001188  0.0100103 0.9200
188  -2893.4075528729  -0.000345051013 0.00087916  0.00000999  0.0070026 0.9200
189  -2893.4077453412  -0.000192468285 0.00076151  0.00000829  0.0047136 0.9200
190  -2893.4078518635  -0.000106522302 0.00794640  0.00008481  0.0029607 0.0000
191  -2893.4068112138   0.001040649705 0.00007142  0.00000082  0.0137532 0.9200
192  -2893.4068530840  -0.000041870230 0.00012415  0.00000143  0.0135418 0.9200
193  -2893.4069218568  -0.000068772758 0.00016554  0.00000189  0.0131892 0.9200
194  -2893.4070065117  -0.000084654916 0.00019868  0.00000222  0.0127431 0.9200
195  -2893.4070992947  -0.000092783031 0.00129708  0.00001142  0.0122369 0.9200
196  -2893.4075481055  -0.000448810789 0.00088759  0.00000983  0.0083690 0.9200
197  -2893.4078029161  -0.000254810564 0.00075664  0.00000871  0.0057574 0.9200
198  -2893.4079461888  -0.000143272774 0.00071203  0.00000768  0.0037986 0.9200
199  -2893.4080253842  -0.000079195406 0.00800004  0.00008361  0.0022714 0.0000
               *** Restarting incremental Fock matrix formation ***
                                   *** Resetting DIIS ***
200  -2893.4070247786   0.001000605670 0.00199926  0.00001601  0.0127502 0.9200

 WARNING: the maximum gradient error descreased on average only by a factor   1.1
          during the last 200 iterations

                      *** Initiating the TRAH-SCF procedure ***


TRAH GRID
---------

General Integration Accuracy     IntAcc      ... 3.467
Radial Grid Type                 RadialGrid  ... OptM3 with GC (2021)
Angular Grid (max. ang.)         AngularGrid ... 1 (Lebedev-50)
Angular grid pruning method      GridPruning ... 4 (adaptive)
Weight generation scheme         WeightScheme... Becke
Basis function cutoff            BFCut       ... 1.0000e-10
Integration weight cutoff        WCut        ... 1.0000e-14
Angular grids for H and He will be reduced by one unit
Partially contracted basis set               ... off
Rotationally invariant grid construction     ... off

Total number of grid points                  ...    62543
Total number of batches                      ...      984
Average number of points per batch           ...       63
Average number of grid points per atom       ...     4811

 --------------------------------------------------------------------------------------------
   Iter.        energy            ||Error||_2        Shift      TRadius  Mac/Mic        Rej.
 --------------------------------------------------------------------------------------------
WARNING: 92 diagonal Hessian elements are negative!
    0      -2893.390467187046     2.701906e-01                     0.400 (TRAH MAcro)   No
WARNING : small    HOMO - LUMO gap : (op = alpha) 0.008493
WARNING : negative HOMO - LUMO gap : (op =  beta) -0.067131
    0     dE    -1.278467e-02     1.543812e-01    -1.2756e-02      0.047 (TRAH MIcro)
    0     dE    -1.783266e-02     3.195696e-02    -1.7552e-02      0.126 (TRAH MIcro)
    0     dE    -1.795889e-02     1.903792e-02    -1.7728e-02      0.114 (TRAH MIcro)
    0     dE    -1.805344e-02     6.416480e-03    -1.7851e-02      0.106 (TRAH MIcro)
    1      -2893.407709859799     1.375165e-02                     0.480 (TRAH MAcro)   No
WARNING : small    HOMO - LUMO gap : (op = alpha) 0.014100
    1     dE    -5.226786e-05     2.851631e-02    -5.2267e-05      0.004 (TRAH MIcro)
    1     dE    -4.622297e-04     1.679272e-02    -4.6074e-04      0.057 (TRAH MIcro)
    1     dE    -4.853387e-04     5.639027e-03    -4.8369e-04      0.058 (TRAH MIcro)
    1     dE    -4.936530e-04     3.379080e-03    -4.9190e-04      0.060 (TRAH MIcro)
    1     dE    -4.960424e-04     1.298332e-03    -4.9426e-04      0.060 (TRAH MIcro)
    2      -2893.408210933093     2.701571e-03                     0.576 (TRAH MAcro)   No
WARNING : small    HOMO - LUMO gap : (op = alpha) 0.014224
    2     dE    -9.924386e-07     7.154138e-03    -9.9244e-07      0.000 (TRAH MIcro)
    2     dE    -1.792946e-06     2.093129e-03    -1.7929e-06      0.001 (TRAH MIcro)
    2     dE    -2.301384e-06     6.515325e-04    -2.3014e-06      0.002 (TRAH MIcro)
    2     dE    -2.495250e-06     4.795177e-04    -2.4952e-06      0.003 (TRAH MIcro)
    2     dE    -2.615280e-06     3.737570e-04    -2.6152e-06      0.004 (TRAH MIcro)
    2     dE    -2.625268e-06     2.291748e-04    -2.6252e-06      0.004 (TRAH MIcro)
    3      -2893.408213557610     2.287855e-04                           (NR   MAcro)
WARNING : small    HOMO - LUMO gap : (op = alpha) 0.014210
    3     dE    -3.109327e-09     1.726786e-04                           (NR   MIcro)
    3     dE    -5.034949e-09     9.443691e-05                           (NR   MIcro)
    3     dE    -6.265274e-09     3.723660e-05                           (NR   MIcro)
    3     dE    -6.938865e-09     3.450903e-05                           (NR   MIcro)
    3     dE    -7.159781e-09     2.768323e-05                           (NR   MIcro)
    3     dE    -7.233279e-09     1.329520e-05                           (NR   MIcro)
    3     dE    -7.247289e-09     6.545757e-06                           (NR   MIcro)
    3     dE    -7.251959e-09     1.905523e-06                           (NR   MIcro)
    4      -2893.408213564835     1.902127e-06                           (NR   MAcro)
WARNING : small    HOMO - LUMO gap : (op = alpha) 0.014210

               *****************************************************
               *                     SUCCESS                       *
               *           SCF CONVERGED AFTER 229 CYCLES          *
               *****************************************************


----------------
TOTAL SCF ENERGY
----------------

Total Energy       :        -2893.40821356 Eh          -78733.64023 eV

Components:
Nuclear Repulsion  :         4354.72665685 Eh          118498.13666 eV
Electronic Energy  :        -7248.13487042 Eh         -197231.77689 eV
One Electron Energy:       -13309.40399458 Eh         -362167.29492 eV
Two Electron Energy:         6061.26912416 Eh          164935.51803 eV

Virial components:
Potential Energy   :        -4704.42182753 Eh         -128013.82602 eV
Kinetic Energy     :         1811.01361396 Eh           49280.18579 eV
Virial Ratio       :            2.59767336


DFT components:
N(Alpha)           :      128.999982410252 electrons
N(Beta)            :      124.999979770530 electrons
N(Total)           :      253.999962180782 electrons
E(X)               :     -198.898596514592 Eh       
E(C)               :      -11.085303923939 Eh       
E(XC)              :     -209.983900438531 Eh       
DFET-embed. en.    :        0.000000000000 Eh       

---------------
SCF CONVERGENCE
---------------

  Last Energy change         ...   -7.2246e-09  Tolerance :   1.0000e-06
  Last Orbital Gradient      ...    1.9021e-06  Tolerance :   5.0000e-05
  Last Orbital Rotation      ...    3.5176e-04

             **** THE GBW FILE WAS UPDATED (pbeSP.gbw) ****
             **** DENSITY pbeSP.scfp WAS UPDATED ****
             **** ENERGY FILE WAS UPDATED (pbeSP.en.tmp) ****
----------------------
UHF SPIN CONTAMINATION
----------------------

Warning: in a DFT calculation there is little theoretical justification to 
         calculate <S**2> as in Hartree-Fock theory. We will do it anyways
         but you should keep in mind that the values have only limited relevance

Expectation value of <S**2>     :     6.292478
Ideal value S*(S+1) for S=2.0   :     6.000000
Deviation                       :     0.292478

             **** THE GBW FILE WAS UPDATED (pbeSP.gbw) ****
             **** DENSITY pbeSP.scfp WAS UPDATED ****
----------------
ORBITAL ENERGIES
----------------
                 SPIN UP ORBITALS
  NO   OCC          E(Eh)            E(eV) 
   0   1.0000    -254.768992     -6932.6167 
   1   1.0000     -29.611274      -805.7637 
   2   1.0000     -25.549119      -695.2269 
   3   1.0000     -25.545784      -695.1361 
   4   1.0000     -25.543322      -695.0691 
   5   1.0000      -4.029997      -109.6618 
   6   1.0000      -4.029978      -109.6613 
   7   1.0000      -4.028194      -109.6127 
   8   1.0000      -4.027901      -109.6048 
   9   1.0000      -4.024529      -109.5130 
  10   1.0000      -4.024473      -109.5115 
  11   1.0000      -4.023166      -109.4759 
  12   1.0000      -4.023120      -109.4747 
  13   1.0000      -4.023077      -109.4735 
  14   1.0000      -4.023042      -109.4725 
  15   1.0000      -4.019246      -109.3692 
  16   1.0000      -4.019244      -109.3692 
  17   1.0000      -3.390296       -92.2546 
  18   1.0000      -2.249704       -61.2175 
  19   1.0000      -2.246013       -61.1171 
  20   1.0000      -2.246003       -61.1168 
  21   1.0000      -2.245994       -61.1166 
  22   1.0000      -2.245896       -61.1139 
  23   1.0000      -2.244474       -61.0752 
  24   1.0000      -2.242907       -61.0326 
  25   1.0000      -2.241807       -61.0027 
  26   1.0000      -2.241367       -60.9907 
  27   1.0000      -2.240966       -60.9798 
  28   1.0000      -2.240852       -60.9767 
  29   1.0000      -2.240700       -60.9726 
  30   1.0000      -2.239492       -60.9397 
  31   1.0000      -2.239340       -60.9355 
  32   1.0000      -2.238946       -60.9248 
  33   1.0000      -2.238385       -60.9095 
  34   1.0000      -2.237121       -60.8752 
  35   1.0000      -2.236455       -60.8570 
  36   1.0000      -2.236442       -60.8567 
  37   1.0000      -2.236129       -60.8482 
  38   1.0000      -2.235940       -60.8430 
  39   1.0000      -2.235323       -60.8262 
  40   1.0000      -2.235230       -60.8237 
  41   1.0000      -2.235124       -60.8208 
  42   1.0000      -2.234503       -60.8039 
  43   1.0000      -2.234393       -60.8009 
  44   1.0000      -2.233341       -60.7723 
  45   1.0000      -2.232819       -60.7581 
  46   1.0000      -2.231238       -60.7151 
  47   1.0000      -2.231163       -60.7130 
  48   1.0000      -2.231053       -60.7101 
  49   1.0000      -2.230985       -60.7082 
  50   1.0000      -2.230345       -60.6908 
  51   1.0000      -2.230333       -60.6904 
  52   1.0000      -2.229639       -60.6716 
  53   1.0000      -2.229605       -60.6706 
  54   1.0000      -2.209951       -60.1358 
  55   1.0000      -2.203239       -59.9532 
  56   1.0000      -2.197264       -59.7906 
  57   1.0000      -0.429370       -11.6838 
  58   1.0000      -0.388234       -10.5644 
  59   1.0000      -0.386584       -10.5195 
  60   1.0000      -0.382417       -10.4061 
  61   1.0000      -0.376329       -10.2404 
  62   1.0000      -0.374712       -10.1964 
  63   1.0000      -0.372996       -10.1497 
  64   1.0000      -0.366838        -9.9822 
  65   1.0000      -0.354629        -9.6499 
  66   1.0000      -0.353520        -9.6198 
  67   1.0000      -0.345795        -9.4096 
  68   1.0000      -0.343867        -9.3571 
  69   1.0000      -0.342941        -9.3319 
  70   1.0000      -0.339584        -9.2406 
  71   1.0000      -0.337525        -9.1845 
  72   1.0000      -0.336084        -9.1453 
  73   1.0000      -0.335413        -9.1270 
  74   1.0000      -0.331529        -9.0214 
  75   1.0000      -0.331403        -9.0179 
  76   1.0000      -0.328825        -8.9478 
  77   1.0000      -0.324864        -8.8400 
  78   1.0000      -0.324556        -8.8316 
  79   1.0000      -0.322708        -8.7813 
  80   1.0000      -0.320862        -8.7311 
  81   1.0000      -0.319293        -8.6884 
  82   1.0000      -0.312566        -8.5053 
  83   1.0000      -0.307752        -8.3744 
  84   1.0000      -0.302589        -8.2339 
  85   1.0000      -0.299017        -8.1367 
  86   1.0000      -0.298875        -8.1328 
  87   1.0000      -0.295649        -8.0450 
  88   1.0000      -0.290644        -7.9088 
  89   1.0000      -0.290405        -7.9023 
  90   1.0000      -0.289980        -7.8908 
  91   1.0000      -0.289399        -7.8749 
  92   1.0000      -0.286225        -7.7886 
  93   1.0000      -0.282369        -7.6837 
  94   1.0000      -0.282065        -7.6754 
  95   1.0000      -0.281676        -7.6648 
  96   1.0000      -0.281412        -7.6576 
  97   1.0000      -0.277565        -7.5529 
  98   1.0000      -0.277522        -7.5517 
  99   1.0000      -0.271402        -7.3852 
 100   1.0000      -0.270875        -7.3709 
 101   1.0000      -0.269009        -7.3201 
 102   1.0000      -0.265891        -7.2353 
 103   1.0000      -0.265140        -7.2148 
 104   1.0000      -0.264552        -7.1988 
 105   1.0000      -0.263361        -7.1664 
 106   1.0000      -0.261227        -7.1084 
 107   1.0000      -0.261009        -7.1024 
 108   1.0000      -0.260704        -7.0941 
 109   1.0000      -0.260520        -7.0891 
 110   1.0000      -0.259020        -7.0483 
 111   1.0000      -0.257646        -7.0109 
 112   1.0000      -0.257166        -6.9979 
 113   1.0000      -0.256444        -6.9782 
 114   1.0000      -0.255888        -6.9631 
 115   1.0000      -0.255525        -6.9532 
 116   1.0000      -0.250902        -6.8274 
 117   1.0000      -0.249821        -6.7980 
 118   1.0000      -0.248906        -6.7731 
 119   1.0000      -0.246805        -6.7159 
 120   1.0000      -0.246028        -6.6948 
 121   1.0000      -0.242100        -6.5879 
 122   1.0000      -0.239803        -6.5254 
 123   1.0000      -0.236183        -6.4269 
 124   1.0000      -0.234511        -6.3814 
 125   1.0000      -0.233946        -6.3660 
 126   1.0000      -0.217994        -5.9319 
 127   1.0000      -0.203810        -5.5460 
 128   1.0000      -0.183539        -4.9944 
 129   0.0000      -0.169329        -4.6077 
 130   0.0000      -0.138195        -3.7605 
 131   0.0000      -0.137504        -3.7417 
 132   0.0000      -0.133477        -3.6321 
 133   0.0000      -0.114636        -3.1194 
 134   0.0000      -0.107911        -2.9364 
 135   0.0000      -0.071394        -1.9427 
 136   0.0000      -0.059850        -1.6286 
 137   0.0000      -0.057949        -1.5769 
 138   0.0000      -0.056524        -1.5381 
 139   0.0000      -0.051134        -1.3914 
 140   0.0000      -0.044820        -1.2196 
 141   0.0000      -0.036048        -0.9809 
 142   0.0000      -0.024579        -0.6688 
 143   0.0000      -0.017479        -0.4756 
 144   0.0000      -0.015818        -0.4304 
 145   0.0000       0.006264         0.1705 
 146   0.0000       0.006728         0.1831 
 147   0.0000       0.030350         0.8259 
 148   0.0000       0.035362         0.9623 
 149   0.0000       0.038786         1.0554 
 150   0.0000       0.045178         1.2294 
 151   0.0000       0.045828         1.2470 
 152   0.0000       0.048573         1.3217 
 153   0.0000       0.052709         1.4343 
 154   0.0000       0.053637         1.4595 
 155   0.0000       0.058887         1.6024 
 156   0.0000       0.060294         1.6407 
 157   0.0000       0.062669         1.7053 
 158   0.0000       0.073349         1.9959 
 159   0.0000       0.078255         2.1294 
 160   0.0000       0.082413         2.2426 
 161   0.0000       0.089275         2.4293 
 162   0.0000       0.091687         2.4949 
 163   0.0000       0.094652         2.5756 
 164   0.0000       0.110475         3.0062 
 165   0.0000       0.111602         3.0369 
 166   0.0000       0.119255         3.2451 
 167   0.0000       0.124375         3.3844 
 168   0.0000       0.125798         3.4231 
 169   0.0000       0.144389         3.9290 
 170   0.0000       0.145192         3.9509 
 171   0.0000       0.152118         4.1393 
 172   0.0000       0.154641         4.2080 
 173   0.0000       0.161710         4.4004 
 174   0.0000       0.169277         4.6063 
 175   0.0000       0.170452         4.6382 
 176   0.0000       0.178912         4.8685 
 177   0.0000       0.180071         4.9000 
 178   0.0000       0.185468         5.0468 
 179   0.0000       0.194457         5.2915 
 180   0.0000       0.202442         5.5087 
 181   0.0000       0.207675         5.6511 
 182   0.0000       0.212444         5.7809 
 183   0.0000       0.217677         5.9233 
 184   0.0000       0.226675         6.1681 
 185   0.0000       0.227256         6.1840 
 186   0.0000       0.230871         6.2823 
 187   0.0000       0.237819         6.4714 
 188   0.0000       0.237926         6.4743 
 189   0.0000       0.243397         6.6232 
 190   0.0000       0.246021         6.6946 
 191   0.0000       0.257580         7.0091 
 192   0.0000       0.266520         7.2524 
 193   0.0000       0.267968         7.2918 
 194   0.0000       0.272646         7.4191 
 195   0.0000       0.276468         7.5231 
 196   0.0000       0.288044         7.8381 
 197   0.0000       0.288503         7.8506 
 198   0.0000       0.288983         7.8636 
 199   0.0000       0.299393         8.1469 
 200   0.0000       0.300446         8.1755 
 201   0.0000       0.302990         8.2448 
 202   0.0000       0.307526         8.3682 
 203   0.0000       0.309553         8.4234 
 204   0.0000       0.312114         8.4931 
 205   0.0000       0.324937         8.8420 
 206   0.0000       0.325829         8.8663 
 207   0.0000       0.327039         8.8992 
 208   0.0000       0.339226         9.2308 
 209   0.0000       0.339617         9.2414 
 210   0.0000       0.341068         9.2809 
 211   0.0000       0.344015         9.3611 
 212   0.0000       0.359218         9.7748 
 213   0.0000       0.360964         9.8223 
 214   0.0000       0.366444         9.9714 
 215   0.0000       0.370670        10.0865 
 216   0.0000       0.373117        10.1530 
 217   0.0000       0.378236        10.2923 
 218   0.0000       0.396487        10.7890 
 219   0.0000       0.398565        10.8455 
 220   0.0000       0.399061        10.8590 
 221   0.0000       0.401443        10.9238 
 222   0.0000       0.407762        11.0958 
 223   0.0000       0.418155        11.3786 
 224   0.0000       0.420964        11.4550 
 225   0.0000       0.429418        11.6851 
 226   0.0000       0.431786        11.7495 
 227   0.0000       0.439195        11.9511 
 228   0.0000       0.440437        11.9849 
 229   0.0000       0.445621        12.1260 
 230   0.0000       0.445903        12.1336 
 231   0.0000       0.450450        12.2574 
 232   0.0000       0.463914        12.6237 
 233   0.0000       0.476068        12.9545 
 234   0.0000       0.480513        13.0754 
 235   0.0000       0.483300        13.1513 
 236   0.0000       0.485785        13.2189 
 237   0.0000       0.486916        13.2497 
 238   0.0000       0.489026        13.3071 
 239   0.0000       0.492869        13.4117 
 240   0.0000       0.496264        13.5040 
 241   0.0000       0.499365        13.5884 
 242   0.0000       0.499520        13.5926 
 243   0.0000       0.507369        13.8062 
 244   0.0000       0.511644        13.9225 
 245   0.0000       0.518861        14.1189 
 246   0.0000       0.536983        14.6121 
 247   0.0000       0.543131        14.7793 
 248   0.0000       0.548431        14.9236 
 249   0.0000       0.554570        15.0906 
 250   0.0000       0.557056        15.1583 
 251   0.0000       0.568370        15.4661 
 252   0.0000       0.587624        15.9901 
 253   0.0000       0.593836        16.1591 
 254   0.0000       0.622836        16.9482 
 255   0.0000       0.635270        17.2866 
 256   0.0000       0.668962        18.2034 
 257   0.0000       0.669824        18.2268 
 258   0.0000       0.682782        18.5794 
 259   0.0000       0.685059        18.6414 
 260   0.0000       0.689992        18.7756 
 261   0.0000       0.709990        19.3198 
 262   0.0000       0.713415        19.4130 
 263   0.0000       0.719202        19.5705 
 264   0.0000       0.736792        20.0491 
 265   0.0000       0.741932        20.1890 
 266   0.0000       0.746269        20.3070 
 267   0.0000       0.755173        20.5493 
 268   0.0000       0.763593        20.7784 
 269   0.0000       0.789729        21.4896 
 270   0.0000       0.793091        21.5811 
 271   0.0000       0.814949        22.1759 
 272   0.0000       0.832162        22.6443 
 273   0.0000       0.833806        22.6890 
 274   0.0000       0.851844        23.1799 
 275   0.0000       0.870886        23.6980 
 276   0.0000       0.904700        24.6181 
 277   0.0000       0.904961        24.6252 
 278   0.0000       0.915753        24.9189 
 279   0.0000       0.917673        24.9711 
 280   0.0000       0.923992        25.1431 
 281   0.0000       0.931646        25.3514 
 282   0.0000       0.935553        25.4577 
 283   0.0000       0.943622        25.6772 
 284   0.0000       0.951039        25.8791 
 285   0.0000       0.979306        26.6483 
 286   0.0000       1.028637        27.9906 
 287   0.0000       1.029744        28.0208 
 288   0.0000       1.061524        28.8855 
 289   0.0000       1.103390        30.0248 
 290   0.0000       1.106491        30.1091 
 291   0.0000       1.168340        31.7922 
 292   0.0000       1.185607        32.2620 
 293   0.0000       1.199388        32.6370 
 294   0.0000       1.224876        33.3306 
 295   0.0000       1.227097        33.3910 
 296   0.0000       1.256179        34.1824 
 297   0.0000       1.261200        34.3190 
 298   0.0000       1.278488        34.7894 
 299   0.0000       1.292774        35.1782 
 300   0.0000       1.295065        35.2405 
 301   0.0000       1.298466        35.3331 
 302   0.0000       1.323490        36.0140 
 303   0.0000       1.327571        36.1250 
 304   0.0000       1.327769        36.1304 
 305   0.0000       1.328689        36.1555 
 306   0.0000       1.353779        36.8382 
 307   0.0000       1.359376        36.9905 
 308   0.0000       1.366516        37.1848 
 309   0.0000       1.376162        37.4473 
 310   0.0000       1.376842        37.4658 
 311   0.0000       1.382942        37.6318 
 312   0.0000       1.388674        37.7877 
 313   0.0000       1.390225        37.8300 
 314   0.0000       1.395583        37.9757 
 315   0.0000       1.401647        38.1407 
 316   0.0000       1.402957        38.1764 
 317   0.0000       1.409169        38.3454 
 318   0.0000       1.410804        38.3899 
 319   0.0000       1.411702        38.4144 
 320   0.0000       1.427885        38.8547 
 321   0.0000       1.428092        38.8604 
 322   0.0000       1.435117        39.0515 
 323   0.0000       1.435207        39.0540 
 324   0.0000       1.442996        39.2659 
 325   0.0000       1.444146        39.2972 
 326   0.0000       1.450177        39.4613 
 327   0.0000       1.454029        39.5661 
 328   0.0000       1.455900        39.6171 
 329   0.0000       1.459962        39.7276 
 330   0.0000       1.464006        39.8376 
 331   0.0000       1.466184        39.8969 
 332   0.0000       1.467640        39.9365 
 333   0.0000       1.471311        40.0364 
 334   0.0000       1.472789        40.0766 
 335   0.0000       1.476347        40.1734 
 336   0.0000       1.478928        40.2437 
 337   0.0000       1.479640        40.2631 
 338   0.0000       1.482467        40.3400 
 339   0.0000       1.484341        40.3910 
 340   0.0000       1.484635        40.3990 
 341   0.0000       1.487068        40.4652 
 342   0.0000       1.488454        40.5029 
 343   0.0000       1.489187        40.5228 
 344   0.0000       1.491990        40.5991 
 345   0.0000       1.492366        40.6093 
 346   0.0000       1.495427        40.6926 
 347   0.0000       1.496281        40.7159 
 348   0.0000       1.502146        40.8755 
 349   0.0000       1.502628        40.8886 
 350   0.0000       1.503695        40.9176 
 351   0.0000       1.505509        40.9670 
 352   0.0000       1.506439        40.9923 
 353   0.0000       1.508852        41.0580 
 354   0.0000       1.509843        41.0849 
 355   0.0000       1.510289        41.0970 
 356   0.0000       1.513476        41.1838 
 357   0.0000       1.514961        41.2242 
 358   0.0000       1.515978        41.2519 
 359   0.0000       1.517884        41.3037 
 360   0.0000       1.519385        41.3446 
 361   0.0000       1.520981        41.3880 
 362   0.0000       1.522850        41.4388 
 363   0.0000       1.523907        41.4676 
 364   0.0000       1.526639        41.5420 
 365   0.0000       1.527880        41.5757 
 366   0.0000       1.530373        41.6436 
 367   0.0000       1.532772        41.7088 
 368   0.0000       1.534512        41.7562 
 369   0.0000       1.536079        41.7988 
 370   0.0000       1.539365        41.8883 
 371   0.0000       1.540752        41.9260 
 372   0.0000       1.543971        42.0136 
 373   0.0000       1.545783        42.0629 
 374   0.0000       1.546818        42.0911 
 375   0.0000       1.547117        42.0992 
 376   0.0000       1.549061        42.1521 
 377   0.0000       1.550227        42.1838 
 378   0.0000       1.551864        42.2284 
 379   0.0000       1.553383        42.2697 
 380   0.0000       1.553862        42.2827 
 381   0.0000       1.554856        42.3098 
 382   0.0000       1.559699        42.4416 
 383   0.0000       1.563574        42.5470 
 384   0.0000       1.565287        42.5936 
 385   0.0000       1.568438        42.6794 
 386   0.0000       1.570430        42.7336 
 387   0.0000       1.575678        42.8764 
 388   0.0000       1.578790        42.9611 
 389   0.0000       1.587770        43.2054 
 390   0.0000       1.588456        43.2241 
 391   0.0000       1.589081        43.2411 
 392   0.0000       1.597786        43.4780 
 393   0.0000       1.599356        43.5207 
 394   0.0000       1.599622        43.5279 
 395   0.0000       1.601590        43.5815 
 396   0.0000       1.602776        43.6137 
 397   0.0000       1.609751        43.8035 
 398   0.0000       1.609869        43.8068 
 399   0.0000       1.613005        43.8921 
 400   0.0000       1.614489        43.9325 
 401   0.0000       1.616045        43.9748 
 402   0.0000       1.622631        44.1540 
 403   0.0000       1.633479        44.4492 
 404   0.0000       1.633798        44.4579 
 405   0.0000       1.637836        44.5678 
 406   0.0000       1.641877        44.6777 
 407   0.0000       1.648272        44.8518 
 408   0.0000       1.654601        45.0240 
 409   0.0000       1.676957        45.6323 
 410   0.0000       1.678092        45.6632 
 411   0.0000       1.683215        45.8026 
 412   0.0000       1.689377        45.9703 
 413   0.0000       1.700746        46.2797 
 414   0.0000       1.709092        46.5068 
 415   0.0000       1.717802        46.7438 
 416   0.0000       1.718272        46.7566 
 417   0.0000       1.724881        46.9364 
 418   0.0000       1.738879        47.3173 
 419   0.0000       1.739600        47.3369 
 420   0.0000       1.757118        47.8136 
 421   0.0000       1.781366        48.4734 
 422   0.0000       1.784059        48.5467 
 423   0.0000       1.804555        49.1044 
 424   0.0000       1.808998        49.2253 
 425   0.0000       1.809882        49.2494 
 426   0.0000       1.815790        49.4102 
 427   0.0000       1.822945        49.6049 
 428   0.0000       1.828034        49.7433 
 429   0.0000       1.861776        50.6615 
 430   0.0000       1.890041        51.4306 
 431   0.0000       1.896816        51.6150 
 432   0.0000       1.907663        51.9101 
 433   0.0000       1.925160        52.3863 
 434   0.0000       1.976779        53.7909 
 435   0.0000       2.028205        55.1903 
 436   0.0000       2.059183        56.0332 
 437   0.0000       2.130000        57.9602 
 438   0.0000       2.247662        61.1620 
 439   0.0000       2.271152        61.8012 
 440   0.0000       2.282535        62.1109 
 441   0.0000       2.355060        64.0844 
 442   0.0000       2.359519        64.2058 
 443   0.0000       2.418562        65.8124 
 444   0.0000       2.437726        66.3339 
 445   0.0000       2.448126        66.6169 
 446   0.0000       2.448468        66.6262 
 447   0.0000       2.482235        67.5451 
 448   0.0000       2.498079        67.9762 
 449   0.0000       2.510164        68.3050 
 450   0.0000       2.531260        68.8791 
 451   0.0000       2.558926        69.6319 
 452   0.0000       3.231579        87.9357 
 453   0.0000       3.509032        95.4856 
 454   0.0000       3.568467        97.1029 
 455   0.0000       3.602016        98.0158 
 456   0.0000       3.683061       100.2212 
 457   0.0000       3.685674       100.2923 
 458   0.0000       3.889784       105.8464 
 459   0.0000       3.890389       105.8629 
 460   0.0000       3.891263       105.8867 
 461   0.0000       3.893244       105.9405 
 462   0.0000       3.901491       106.1650 
 463   0.0000       3.910536       106.4111 
 464   0.0000       3.912549       106.4659 
 465   0.0000      23.778441       647.0443 
 466   0.0000      23.785193       647.2280 
 467   0.0000      23.823940       648.2824 
 468   0.0000      24.075409       655.1252 
 469   0.0000      24.326901       661.9686 
 470   0.0000      24.463709       665.6914 
 471   0.0000      24.483927       666.2415 
 472   0.0000      24.850720       676.2225 
 473   0.0000      25.036769       681.2851 
 474   0.0000      25.198153       685.6766 
 475   0.0000      25.253737       687.1891 
 476   0.0000      25.263998       687.4683 
 477   0.0000      25.400950       691.1950 
 478   0.0000      25.402929       691.2488 
 479   0.0000      26.056741       709.0400 
 480   0.0000      26.108298       710.4429 
 481   0.0000      26.109024       710.4627 
 482   0.0000      26.287200       715.3111 
 483   0.0000      26.290670       715.4055 
 484   0.0000      26.320163       716.2081 
 485   0.0000      26.572351       723.0704 
 486   0.0000      26.603505       723.9182 
 487   0.0000      26.736967       727.5499 
 488   0.0000      26.771731       728.4958 
 489   0.0000      27.008282       734.9327 
 490   0.0000      27.254756       741.6396 
 491   0.0000      27.271449       742.0939 
 492   0.0000      27.278096       742.2747 
 493   0.0000      27.898134       759.1468 
 494   0.0000      27.986902       761.5623 
 495   0.0000      28.199894       767.3581 
 496   0.0000      28.380744       772.2793 
 497   0.0000      28.467214       774.6323 
 498   0.0000      28.802126       783.7457 
 499   0.0000      29.559429       804.3530 
 500   0.0000      30.641604       833.8004 
 501   0.0000      43.848408      1193.1758 
 502   0.0000      43.990688      1197.0475 
 503   0.0000      44.026126      1198.0118 
 504   0.0000      44.036876      1198.3043 
 505   0.0000      44.063822      1199.0376 
 506   0.0000      44.119775      1200.5601 
 507   0.0000      44.131140      1200.8694 
 508   0.0000      44.137964      1201.0551 
 509   0.0000      44.149042      1201.3565 
 510   0.0000      44.166887      1201.8421 
 511   0.0000      44.197779      1202.6827 
 512   0.0000      44.212882      1203.0937 
 513   0.0000     205.069736      5580.2312 
 514   0.0000     205.128538      5581.8313 
 515   0.0000     205.138065      5582.0905 
 516   0.0000     205.143734      5582.2448 
 517   0.0000     205.157567      5582.6212 
 518   0.0000     205.182588      5583.3021 
 519   0.0000     205.187884      5583.4462 
 520   0.0000     205.189999      5583.5037 
 521   0.0000     205.192556      5583.5733 
 522   0.0000     205.201604      5583.8195 
 523   0.0000     205.212664      5584.1205 
 524   0.0000     205.216571      5584.2268 

                 SPIN DOWN ORBITALS
  NO   OCC          E(Eh)            E(eV) 
   0   1.0000    -254.768254     -6932.5967 
   1   1.0000     -29.549960      -804.0953 
   2   1.0000     -25.500744      -693.9105 
   3   1.0000     -25.500011      -693.8906 
   4   1.0000     -25.498530      -693.8503 
   5   1.0000      -4.029424      -109.6462 
   6   1.0000      -4.029402      -109.6456 
   7   1.0000      -4.026503      -109.5667 
   8   1.0000      -4.026210      -109.5587 
   9   1.0000      -4.024172      -109.5033 
  10   1.0000      -4.024115      -109.5017 
  11   1.0000      -4.022371      -109.4543 
  12   1.0000      -4.022312      -109.4527 
  13   1.0000      -4.022284      -109.4519 
  14   1.0000      -4.022242      -109.4508 
  15   1.0000      -4.018977      -109.3619 
  16   1.0000      -4.018976      -109.3619 
  17   1.0000      -3.252102       -88.4942 
  18   1.0000      -2.247719       -61.1635 
  19   1.0000      -2.245231       -61.0958 
  20   1.0000      -2.245150       -61.0936 
  21   1.0000      -2.244771       -61.0833 
  22   1.0000      -2.244705       -61.0815 
  23   1.0000      -2.242246       -61.0146 
  24   1.0000      -2.240900       -60.9780 
  25   1.0000      -2.240380       -60.9638 
  26   1.0000      -2.240121       -60.9568 
  27   1.0000      -2.240083       -60.9558 
  28   1.0000      -2.239993       -60.9533 
  29   1.0000      -2.239904       -60.9509 
  30   1.0000      -2.238689       -60.9178 
  31   1.0000      -2.238513       -60.9130 
[...]
CHARGE
  0 Aus       :     2.640371  s :     2.640371
      pz      :     2.122527  p :     6.496341
      px      :     2.301632
      py      :     2.072182
      dz2     :     1.952984  d :     9.814563
      dxz     :     1.956029
      dyz     :     1.959788
      dx2y2   :     1.968530
      dxy     :     1.977233
      f0      :     0.000802  f :     0.006404
      f+1     :     0.001104
      f-1     :     0.000524
      f+2     :     0.001419
      f-2     :     0.000772
      f+3     :     0.001102
      f-3     :     0.000680
  1 Aus       :     2.806426  s :     2.806426
      pz      :     2.092626  p :     6.249758
      px      :     2.087336
      py      :     2.069796
      dz2     :     1.954492  d :     9.851713
      dxz     :     1.984720
      dyz     :     1.972325
      dx2y2   :     1.955338
      dxy     :     1.984838
      f0      :     0.001020  f :     0.004363
      f+1     :     0.000585
      f-1     :     0.000615
      f+2     :     0.000752
      f-2     :     0.000339
      f+3     :     0.000562
      f-3     :     0.000490
  2 Aus       :     2.553230  s :     2.553230
      pz      :     2.308345  p :     6.548173
      px      :     2.117567
      py      :     2.122262
      dz2     :     1.973417  d :     9.898468
      dxz     :     1.978071
      dyz     :     1.981747
      dx2y2   :     1.995197
      dxy     :     1.970037
      f0      :     0.001715  f :     0.006244
      f+1     :     0.001145
      f-1     :     0.000926
      f+2     :     0.000901
      f-2     :     0.000500
      f+3     :     0.000458
      f-3     :     0.000599
  3 Aus       :     2.563369  s :     2.563369
      pz      :     2.175615  p :     6.482629
      px      :     2.118226
      py      :     2.188788
      dz2     :     1.972376  d :     9.890441
      dxz     :     1.984645
      dyz     :     1.981119
      dx2y2   :     1.970003
      dxy     :     1.982297
      f0      :     0.000943  f :     0.005349
      f+1     :     0.000767
      f-1     :     0.000534
      f+2     :     0.000816
      f-2     :     0.000753
      f+3     :     0.000789
      f-3     :     0.000748
  4 Aus       :     2.552799  s :     2.552799
      pz      :     2.188718  p :     6.547639
      px      :     2.127579
      py      :     2.231342
      dz2     :     1.987097  d :     9.898635
      dxz     :     1.967798
      dyz     :     1.982480
      dx2y2   :     1.982856
      dxy     :     1.978404
      f0      :     0.001094  f :     0.006220
      f+1     :     0.000807
      f-1     :     0.000945
      f+2     :     0.000930
      f-2     :     0.001071
      f+3     :     0.000683
      f-3     :     0.000690
  5 Aus       :     2.586391  s :     2.586391
      pz      :     2.164694  p :     6.449053
      px      :     2.200351
      py      :     2.084008
      dz2     :     1.965685  d :     9.844364
      dxz     :     1.969587
      dyz     :     1.979610
      dx2y2   :     1.940635
      dxy     :     1.988847
      f0      :     0.000719  f :     0.005937
      f+1     :     0.000634
      f-1     :     0.000869
      f+2     :     0.000874
      f-2     :     0.000944
      f+3     :     0.000860
      f-3     :     0.001037
  6 Aus       :     2.552630  s :     2.552630
      pz      :     2.129630  p :     6.547786
      px      :     2.285278
      py      :     2.132879
      dz2     :     1.984926  d :     9.898985
      dxz     :     1.965299
      dyz     :     1.983443
      dx2y2   :     1.988388
      dxy     :     1.976929
      f0      :     0.000878  f :     0.006214
      f+1     :     0.000973
      f-1     :     0.000466
      f+2     :     0.000733
      f-2     :     0.000630
      f+3     :     0.001277
      f-3     :     0.001258
  7 Aus       :     2.586199  s :     2.586199
      pz      :     2.131043  p :     6.449322
      px      :     2.192005
      py      :     2.126275
      dz2     :     1.976501  d :     9.844431
      dxz     :     1.966533
      dyz     :     1.955752
      dx2y2   :     1.965864
      dxy     :     1.979781
      f0      :     0.000968  f :     0.005944
      f+1     :     0.001079
      f-1     :     0.000723
      f+2     :     0.000731
      f-2     :     0.000742
      f+3     :     0.000912
      f-3     :     0.000789
  8 Aus       :     2.563292  s :     2.563292
      pz      :     2.124426  p :     6.482906
      px      :     2.180002
      py      :     2.178477
      dz2     :     1.971706  d :     9.890514
      dxz     :     1.992537
      dyz     :     1.965218
      dx2y2   :     1.984727
      dxy     :     1.976326
      f0      :     0.000709  f :     0.005347
      f+1     :     0.000763
      f-1     :     0.000942
      f+2     :     0.000825
      f-2     :     0.000659
      f+3     :     0.000827
      f-3     :     0.000623
  9 Aus       :     2.553493  s :     2.553493
      pz      :     2.130732  p :     6.547794
      px      :     2.245948
      py      :     2.171115
      dz2     :     1.980858  d :     9.898682
      dxz     :     1.975528
      dyz     :     1.986493
      dx2y2   :     1.989691
      dxy     :     1.966112
      f0      :     0.000750  f :     0.006226
      f+1     :     0.000750
      f-1     :     0.000405
      f+2     :     0.001062
      f-2     :     0.000856
      f+3     :     0.001124
      f-3     :     0.001279
 10 Aus       :     2.806636  s :     2.806636
      pz      :     2.076601  p :     6.249686
      px      :     2.106535
      py      :     2.066551
      dz2     :     1.975538  d :     9.851648
      dxz     :     1.966550
      dyz     :     1.975897
      dx2y2   :     1.982019
      dxy     :     1.951644
      f0      :     0.000483  f :     0.004358
      f+1     :     0.000776
      f-1     :     0.000303
      f+2     :     0.000563
      f-2     :     0.000735
      f+3     :     0.000661
      f-3     :     0.000837
 11 Aus       :     2.640604  s :     2.640604
      pz      :     2.214574  p :     6.496135
      px      :     2.190463
      py      :     2.091099
      dz2     :     1.976486  d :     9.814486
      dxz     :     1.930217
      dyz     :     1.987381
      dx2y2   :     1.969194
      dxy     :     1.951208
      f0      :     0.000835  f :     0.006396
      f+1     :     0.001459
      f-1     :     0.000408
      f+2     :     0.001259
      f-2     :     0.001046
      f+3     :     0.000700
      f-3     :     0.000689
 12 Fes       :     6.304387  s :     6.304387
      pz      :     4.212698  p :    12.624025
      px      :     4.206147
      py      :     4.205179
      dz2     :     1.358172  d :     7.652398
      dxz     :     1.759242
      dyz     :     1.522012
      dx2y2   :     1.604561
      dxy     :     1.408411
      f0      :     0.000074  f :     0.000593
      f+1     :     0.000081
      f-1     :     0.000106
      f+2     :     0.000087
      f-2     :     0.000083
      f+3     :     0.000069
      f-3     :     0.000093

SPIN
  0 Aus       :    -0.005946  s :    -0.005946
      pz      :     0.002548  p :    -0.004013
      px      :    -0.003249
      py      :    -0.003312
      dz2     :     0.019116  d :     0.034656
      dxz     :     0.006004
      dyz     :     0.015529
      dx2y2   :     0.004796
      dxy     :    -0.010790
      f0      :     0.000109  f :     0.000319
      f+1     :     0.000023
      f-1     :     0.000126
      f+2     :     0.000058
      f-2     :     0.000010
      f+3     :    -0.000012
      f-3     :     0.000005
  1 Aus       :    -0.005932  s :    -0.005932
      pz      :    -0.007040  p :    -0.022416
      px      :     0.000257
      py      :    -0.015633
      dz2     :    -0.008931  d :    -0.017248
      dxz     :    -0.000088
      dyz     :    -0.005886
      dx2y2   :    -0.002924
      dxy     :     0.000582
      f0      :    -0.000036  f :    -0.000067
      f+1     :     0.000001
      f-1     :    -0.000009
      f+2     :    -0.000006
      f-2     :     0.000002
      f+3     :    -0.000005
      f-3     :    -0.000013
  2 Aus       :    -0.076441  s :    -0.076441
      pz      :    -0.004926  p :    -0.025000
      px      :    -0.002434
      py      :    -0.017641
      dz2     :    -0.001942  d :    -0.008468
      dxz     :    -0.004498
      dyz     :    -0.006993
      dx2y2   :     0.000709
      dxy     :     0.004255
      f0      :     0.000003  f :    -0.000003
      f+1     :     0.000003
      f-1     :    -0.000016
      f+2     :    -0.000036
      f-2     :     0.000013
      f+3     :    -0.000007
      f-3     :     0.000037
  3 Aus       :    -0.046272  s :    -0.046272
      pz      :    -0.021791  p :    -0.040634
      px      :     0.003488
      py      :    -0.022332
      dz2     :    -0.011762  d :    -0.021806
      dxz     :    -0.003607
      dyz     :    -0.011714
      dx2y2   :    -0.000750
      dxy     :     0.006027
      f0      :     0.000007  f :     0.000040
      f+1     :    -0.000002
      f-1     :    -0.000003
      f+2     :     0.000030
      f-2     :    -0.000030
      f+3     :     0.000008
      f-3     :     0.000029
  4 Aus       :    -0.076826  s :    -0.076826
      pz      :    -0.003520  p :    -0.024950
      px      :    -0.003125
      py      :    -0.018305
      dz2     :    -0.002144  d :    -0.008182
      dxz     :     0.001547
      dyz     :    -0.008756
      dx2y2   :     0.003037
      dxy     :    -0.001866
      f0      :    -0.000026  f :    -0.000001
      f+1     :     0.000017
      f-1     :    -0.000011
      f+2     :     0.000013
      f-2     :     0.000004
      f+3     :    -0.000003
      f-3     :     0.000005
  5 Aus       :    -0.023376  s :    -0.023376
      pz      :    -0.039852  p :    -0.083670
      px      :    -0.044136
      py      :     0.000318
      dz2     :    -0.000576  d :     0.002337
      dxz     :    -0.008216
      dyz     :    -0.001385
      dx2y2   :     0.013715
      dxy     :    -0.001202
      f0      :     0.000029  f :     0.000149
      f+1     :    -0.000003
      f-1     :     0.000022
      f+2     :     0.000037
      f-2     :    -0.000037
      f+3     :     0.000025
      f-3     :     0.000075
  6 Aus       :    -0.076830  s :    -0.076830
      pz      :    -0.006164  p :    -0.024992
      px      :     0.000169
      py      :    -0.018997
      dz2     :     0.004016  d :    -0.008375
      dxz     :     0.002364
      dyz     :    -0.001484
      dx2y2   :    -0.004638
      dxy     :    -0.008633
      f0      :    -0.000003  f :    -0.000002
      f+1     :     0.000056
      f-1     :    -0.000020
      f+2     :     0.000006
      f-2     :     0.000002
      f+3     :    -0.000019
      f-3     :    -0.000025
  7 Aus       :    -0.023318  s :    -0.023318
      pz      :    -0.017134  p :    -0.083879
      px      :    -0.038432
      py      :    -0.028313
      dz2     :    -0.008480  d :     0.002187
      dxz     :     0.003610
      dyz     :     0.015457
      dx2y2   :    -0.009555
      dxy     :     0.001155
      f0      :     0.000021  f :     0.000147
      f+1     :    -0.000011
      f-1     :     0.000042
      f+2     :     0.000058
      f-2     :     0.000035
      f+3     :     0.000014
      f-3     :    -0.000012
  8 Aus       :    -0.046089  s :    -0.046089
      pz      :    -0.004685  p :    -0.040647
      px      :    -0.017050
      py      :    -0.018912
      dz2     :     0.008857  d :    -0.021800
      dxz     :    -0.012276
      dyz     :     0.008740
      dx2y2   :    -0.009940
      dxy     :    -0.017181
      f0      :     0.000027  f :     0.000039
      f+1     :    -0.000029
      f-1     :     0.000069
      f+2     :     0.000023
      f-2     :    -0.000017
      f+3     :    -0.000027
      f-3     :    -0.000007
  9 Aus       :    -0.076346  s :    -0.076346
      pz      :    -0.007846  p :    -0.025003
      px      :     0.000813
      py      :    -0.017970
      dz2     :     0.002667  d :    -0.008688
      dxz     :    -0.009158
      dyz     :    -0.000258
      dx2y2   :    -0.002120
      dxy     :     0.000181
      f0      :    -0.000001  f :    -0.000004
      f+1     :    -0.000004
      f-1     :    -0.000003
      f+2     :    -0.000046
      f-2     :     0.000031
      f+3     :    -0.000026
      f-3     :     0.000045
 10 Aus       :    -0.006149  s :    -0.006149
      pz      :    -0.002606  p :    -0.022407
      px      :    -0.005128
      py      :    -0.014673
      dz2     :    -0.000803  d :    -0.017187
      dxz     :    -0.003215
      dyz     :    -0.000584
      dx2y2   :    -0.002738
      dxy     :    -0.009846
      f0      :    -0.000015  f :    -0.000067
      f+1     :    -0.000002
      f-1     :    -0.000006
      f+2     :    -0.000002
      f-2     :    -0.000009
      f+3     :    -0.000018
      f-3     :    -0.000014
 11 Aus       :    -0.006001  s :    -0.006001
      pz      :    -0.004750  p :    -0.003977
      px      :     0.005535
      py      :    -0.004762
      dz2     :    -0.006078  d :     0.034767
      dxz     :     0.024030
      dyz     :    -0.005942
      dx2y2   :     0.002709
      dxy     :     0.020049
      f0      :     0.000052  f :     0.000320
      f+1     :     0.000007
      f-1     :     0.000001
      f+2     :     0.000081
      f-2     :     0.000018
      f+3     :     0.000057
      f-3     :     0.000103
 12 Fes       :     0.011187  s :     0.011187
      pz      :     0.007455  p :     0.022615
      px      :     0.006410
      py      :     0.008750
      dz2     :     0.775025  d :     2.874222
      dxz     :     0.368926
      dyz     :     0.552322
      dx2y2   :     0.516157
      dxy     :     0.661792
      f0      :     0.000006  f :     0.000027
      f+1     :     0.000003
      f-1     :     0.000002
      f+2     :     0.000012
      f-2     :    -0.000001
      f+3     :     0.000004
      f-3     :     0.000001


                      *****************************
                      * MAYER POPULATION ANALYSIS *
                      *****************************

  NA   - Mulliken gross atomic population
  ZA   - Total nuclear charge
  QA   - Mulliken gross atomic charge
  VA   - Mayer's total valence
  BVA  - Mayer's bonded valence
  FA   - Mayer's free valence

  ATOM       NA         ZA         QA         VA         BVA        FA
  0 Au    18.9585    19.0000     0.0415     1.9196     1.9163     0.0033
  1 Au    18.6317    19.0000     0.3683     1.4562     1.4556     0.0007
  2 Au    18.9261    19.0000     0.0739     1.8264     1.7978     0.0286
  3 Au    18.7919    19.0000     0.2081     1.6161     1.6014     0.0147
  4 Au    18.9250    19.0000     0.0750     1.8252     1.7964     0.0288
  5 Au    18.6835    19.0000     0.3165     1.6304     1.6231     0.0073
  6 Au    18.9252    19.0000     0.0748     1.8251     1.7963     0.0288
  7 Au    18.6837    19.0000     0.3163     1.6310     1.6237     0.0073
  8 Au    18.7919    19.0000     0.2081     1.6165     1.6019     0.0146
  9 Au    18.9259    19.0000     0.0741     1.8252     1.7967     0.0285
 10 Au    18.6319    19.0000     0.3681     1.4561     1.4554     0.0007
 11 Au    18.9595    19.0000     0.0405     1.9199     1.9166     0.0033
 12 Fe    28.1652    26.0000    -2.1652     7.3365     5.0210     2.3155

  Mayer bond orders larger than 0.100000
B(  0-Au,  1-Au) :   0.3580 B(  0-Au,  2-Au) :   0.1481 B(  0-Au,  4-Au) :   0.1483 
B(  0-Au, 11-Au) :   0.4725 B(  0-Au, 12-Fe) :   0.5808 B(  1-Au,  2-Au) :   0.3512 
B(  1-Au,  4-Au) :   0.3509 B(  2-Au,  3-Au) :   0.2331 B(  2-Au,  4-Au) :   0.1575 
B(  2-Au,  7-Au) :   0.3294 B(  2-Au, 12-Fe) :   0.4044 B(  3-Au,  4-Au) :   0.2314 
B(  3-Au,  5-Au) :   0.1196 B(  3-Au,  7-Au) :   0.1183 B(  3-Au,  8-Au) :   0.1515 
B(  3-Au, 12-Fe) :   0.5444 B(  4-Au,  5-Au) :   0.3290 B(  4-Au, 12-Fe) :   0.4054 
B(  5-Au,  8-Au) :   0.1181 B(  5-Au,  9-Au) :   0.3291 B(  5-Au, 12-Fe) :   0.4944 
B(  6-Au,  7-Au) :   0.3292 B(  6-Au,  8-Au) :   0.2314 B(  6-Au,  9-Au) :   0.1581 
B(  6-Au, 10-Au) :   0.3512 B(  6-Au, 11-Au) :   0.1485 B(  6-Au, 12-Fe) :   0.4043 
B(  7-Au,  8-Au) :   0.1206 B(  7-Au, 12-Fe) :   0.4931 B(  8-Au,  9-Au) :   0.2336 
B(  8-Au, 12-Fe) :   0.5439 B(  9-Au, 10-Au) :   0.3512 B(  9-Au, 11-Au) :   0.1475 
B(  9-Au, 12-Fe) :   0.4032 B( 10-Au, 11-Au) :   0.3577 B( 11-Au, 12-Fe) :   0.5816 


-------
TIMINGS
-------

Total SCF time: 0 days 0 hours 4 min 59 sec 

Total time                  ....     299.345 sec
Sum of individual times     ....     294.297 sec  ( 98.3%)

Fock matrix formation       ....     250.403 sec  ( 83.7%)
  Split-RI-J                ....      87.224 sec  ( 34.8% of F)
  XC integration            ....     160.992 sec  ( 64.3% of F)
    Basis function eval.    ....      22.504 sec  ( 14.0% of XC)
    Density eval.           ....      79.939 sec  ( 49.7% of XC)
    XC-Functional eval.     ....       2.594 sec  (  1.6% of XC)
    XC-Potential eval.      ....      50.670 sec  ( 31.5% of XC)
Diagonalization             ....      28.712 sec  (  9.6%)
Density matrix formation    ....       0.789 sec  (  0.3%)
Population analysis         ....       0.247 sec  (  0.1%)
Initial guess               ....       0.500 sec  (  0.2%)
Orbital Transformation      ....       0.000 sec  (  0.0%)
Orbital Orthonormalization  ....       0.448 sec  (  0.1%)
DIIS solution               ....      11.028 sec  (  3.7%)
Grid generation             ....       2.619 sec  (  0.9%)

Maximum memory used throughout the entire SCF-calculation: 79.3 MB

-------------------------   --------------------
FINAL SINGLE POINT ENERGY     -2893.394832262011
-------------------------   --------------------


                            ***************************************
                            *     ORCA property calculations      *
                            ***************************************

                                    ---------------------
                                    Active property flags
                                    ---------------------
   (+) Dipole Moment


------------------------------------------------------------------------------
                       ORCA ELECTRIC PROPERTIES CALCULATION
------------------------------------------------------------------------------

Dipole Moment Calculation                       ... on
Quadrupole Moment Calculation                   ... off
Polarizability Calculation                      ... off
GBWName                                         ... pbeSP_job2.gbw
Electron density                                ... pbeSP_job2.scfp
The origin for moment calculation is the CENTER OF MASS  = (12.835020, 16.213821 12.135506)

-------------
DIPOLE MOMENT
-------------
                                X             Y             Z
Electronic contribution:      0.02183       0.01199       0.09189
Nuclear contribution   :      0.10390       0.08408       0.05212
                        -----------------------------------------
Total Dipole Moment    :      0.12573       0.09607       0.14401
                        -----------------------------------------
Magnitude (a.u.)       :      0.21396
Magnitude (Debye)      :      0.54383



--------------------
Rotational spectrum 
--------------------
 
Rotational constants in cm-1:     0.001767     0.001060     0.000968 
Rotational constants in MHz :    52.958543    31.782223    29.009440 

 Dipole components along the rotational axes: 
x,y,z [a.u.] :     0.001734     0.213948    -0.000047 
x,y,z [Debye]:     0.004408     0.543813    -0.000119 

 

Timings for individual modules:

Sum of individual times         ...      316.588 sec (=   5.276 min)
GTO integral calculation        ...       16.588 sec (=   0.276 min)   5.2 %
SCF iterations                  ...      300.000 sec (=   5.000 min)  94.8 %



                             ****ORCA TERMINATED NORMALLY****
TOTAL RUN TIME: 0 days 0 hours 21 minutes 17 seconds 244 msec
