
                                 *****************
                                 * O   R   C   A *
                                 *****************

                                            #,                                       
                                            ###                                      
                                            ####                                     
                                            #####                                    
                                            ######                                   
                                           ########,                                 
                                     ,,################,,,,,                         
                               ,,#################################,,                 
                          ,,##########################################,,             
                       ,#########################################, ''#####,          
                    ,#############################################,,   '####,        
                  ,##################################################,,,,####,       
                ,###########''''           ''''###############################       
              ,#####''   ,,,,##########,,,,          '''####'''          '####       
            ,##' ,,,,###########################,,,                        '##       
           ' ,,###''''                  '''############,,,                           
         ,,##''                                '''############,,,,        ,,,,,,###''
      ,#''                                            '''#######################'''  
     '                                                          ''''####''''         
             ,#######,   #######,   ,#######,      ##                                
            ,#'     '#,  ##    ##  ,#'     '#,    #''#        ######   ,####,        
            ##       ##  ##   ,#'  ##            #'  '#       #        #'  '#        
            ##       ##  #######   ##           ,######,      #####,   #    #        
            '#,     ,#'  ##    ##  '#,     ,#' ,#      #,         ##   #,  ,#        
             '#######'   ##     ##  '#######'  #'      '#     #####' # '####'        



                  #######################################################
                  #                        -***-                        #
                  #          Department of theory and spectroscopy      #
                  #    Directorship and core code : Frank Neese         #
                  #        Max Planck Institute fuer Kohlenforschung    #
                  #                Kaiser Wilhelm Platz 1               #
                  #                 D-45470 Muelheim/Ruhr               #
                  #                      Germany                        #
                  #                                                     #
                  #                  All rights reserved                #
                  #                        -***-                        #
                  #######################################################


                         Program Version 5.0.3 -  RELEASE  -


 With contributions from (in alphabetic order):
   Daniel Aravena         : Magnetic Suceptibility
   Michael Atanasov       : Ab Initio Ligand Field Theory (pilot matlab implementation)
   Alexander A. Auer      : GIAO ZORA, VPT2 properties, NMR spectrum
   Ute Becker             : Parallelization
   Giovanni Bistoni       : ED, misc. LED, open-shell LED, HFLD
   Martin Brehm           : Molecular dynamics
   Dmytro Bykov           : SCF Hessian
   Vijay G. Chilkuri      : MRCI spin determinant printing, contributions to CSF-ICE
   Dipayan Datta          : RHF DLPNO-CCSD density
   Achintya Kumar Dutta   : EOM-CC, STEOM-CC
   Dmitry Ganyushin       : Spin-Orbit,Spin-Spin,Magnetic field MRCI
   Miquel Garcia          : C-PCM and meta-GGA Hessian, CC/C-PCM, Gaussian charge scheme
   Yang Guo               : DLPNO-NEVPT2, F12-NEVPT2, CIM, IAO-localization
   Andreas Hansen         : Spin unrestricted coupled pair/coupled cluster methods
   Benjamin Helmich-Paris : MC-RPA, TRAH-SCF, COSX integrals
   Lee Huntington         : MR-EOM, pCC
   Robert Izsak           : Overlap fitted RIJCOSX, COSX-SCS-MP3, EOM
   Marcus Kettner         : VPT2
   Christian Kollmar      : KDIIS, OOCD, Brueckner-CCSD(T), CCSD density, CASPT2, CASPT2-K
   Simone Kossmann        : Meta GGA functionals, TD-DFT gradient, OOMP2, MP2 Hessian
   Martin Krupicka        : Initial AUTO-CI
   Lucas Lang             : DCDCAS
   Marvin Lechner         : AUTO-CI (C++ implementation), FIC-MRCC
   Dagmar Lenk            : GEPOL surface, SMD
   Dimitrios Liakos       : Extrapolation schemes; Compound Job, initial MDCI parallelization
   Dimitrios Manganas     : Further ROCIS development; embedding schemes
   Dimitrios Pantazis     : SARC Basis sets
   Anastasios Papadopoulos: AUTO-CI, single reference methods and gradients
   Taras Petrenko         : DFT Hessian,TD-DFT gradient, ASA, ECA, R-Raman, ABS, FL, XAS/XES, NRVS
   Peter Pinski           : DLPNO-MP2, DLPNO-MP2 Gradient
   Christoph Reimann      : Effective Core Potentials
   Marius Retegan         : Local ZFS, SOC
   Christoph Riplinger    : Optimizer, TS searches, QM/MM, DLPNO-CCSD(T), (RO)-DLPNO pert. Triples
   Tobias Risthaus        : Range-separated hybrids, TD-DFT gradient, RPA, STAB
   Michael Roemelt        : Original ROCIS implementation
   Masaaki Saitow         : Open-shell DLPNO-CCSD energy and density
   Barbara Sandhoefer     : DKH picture change effects
   Avijit Sen             : IP-ROCIS
   Kantharuban Sivalingam : CASSCF convergence, NEVPT2, FIC-MRCI
   Bernardo de Souza      : ESD, SOC TD-DFT
   Georgi Stoychev        : AutoAux, RI-MP2 NMR, DLPNO-MP2 response
   Willem Van den Heuvel  : Paramagnetic NMR
   Boris Wezisla          : Elementary symmetry handling
   Frank Wennmohs         : Technical directorship


 We gratefully acknowledge several colleagues who have allowed us to
 interface, adapt or use parts of their codes:
   Stefan Grimme, W. Hujo, H. Kruse, P. Pracht,  : VdW corrections, initial TS optimization,
                  C. Bannwarth, S. Ehlert          DFT functionals, gCP, sTDA/sTD-DF
   Ed Valeev, F. Pavosevic, A. Kumar             : LibInt (2-el integral package), F12 methods
   Garnet Chan, S. Sharma, J. Yang, R. Olivares  : DMRG
   Ulf Ekstrom                                   : XCFun DFT Library
   Mihaly Kallay                                 : mrcc  (arbitrary order and MRCC methods)
   Jiri Pittner, Ondrej Demel                    : Mk-CCSD
   Frank Weinhold                                : gennbo (NPA and NBO analysis)
   Christopher J. Cramer and Donald G. Truhlar   : smd solvation model
   Lars Goerigk                                  : TD-DFT with DH, B97 family of functionals
   V. Asgeirsson, H. Jonsson                     : NEB implementation
   FAccTs GmbH                                   : IRC, NEB, NEB-TS, DLPNO-Multilevel, CI-OPT
                                                   MM, QMMM, 2- and 3-layer-ONIOM, Crystal-QMMM,
                                                   LR-CPCM, SF, NACMEs, symmetry and pop. for TD-DFT,
                                                   nearIR, NL-DFT gradient (VV10), updates on ESD,
                                                   ML-optimized integration grids
   S Lehtola, MJT Oliveira, MAL Marques          : LibXC Library
   Liviu Ungur et al                             : ANISO software


 Your calculation uses the libint2 library for the computation of 2-el integrals
 For citations please refer to: http://libint.valeyev.net

 Your ORCA version has been built with support for libXC version: 5.1.0
 For citations please refer to: https://tddft.org/programs/libxc/

 This ORCA versions uses:
   CBLAS   interface :  Fast vector & matrix operations
   LAPACKE interface :  Fast linear algebra routines
   SCALAPACK package :  Parallel linear algebra routines
   Shared memory     :  Shared parallel matrices
   BLAS/LAPACK       :  OpenBLAS 0.3.15  USE64BITINT DYNAMIC_ARCH NO_AFFINITY Sandybridge SINGLE_THREADED
        Core in use  :  Sandybridge
   Copyright (c) 2011-2014, The OpenBLAS Project




***************************************
The coordinates will be read from file: pbe.xyz
***************************************


================================================================================

cite the ECPs for Au [Def2-ECP] as follows:
Ce-Yb(ecp-28): M. Dolg, H. Stoll, H.Preuss, J. Chem. Phys., 1989, 90, 1730-1734.
Y-Cd(ecp-28), Hf-Hg(ecp-46): D. Andrae,U. Haeussermann, M. Dolg, H. Stoll, H. Preuss, Theor. Chim. Acta, 1990, 77, 123-141.
In-Sb(ecp-28), Tl-Bi(ecp-46): B. Metz, H. Stoll, M. Dolg, J. Chem. Phys., 2000, 113, 2563-2569.
Te-Xe(ecp-28), Po-Rn(ecp-46): K. A. Peterson, D. Figgen, E. Goll, H. Stoll, M. Dolg, J. Chem. Phys., 2003, 119, 11113-11123.
Rb(ecp-28), Cs(ecp-46): T. Leininger, A. Nicklass, W. Kuechle, H. Stoll, M. Dolg, A. Bergner, Chem. Phys. Lett., 1996, 255, 274-280.
Sr(ecp-28), Ba(ecp-46): M. Kaupp, P. V. Schleyer, H. Stoll and H. Preuss, J. Chem. Phys., 1991, 94, 1360-1366.
La(ecp-46): M. Dolg, H. Stoll, A. Savin, H. Preuss, Theor. Chim. Acta, 1989, 75, 173-194.
Lu(ecp-28): X. Cao, M. Dolg, J. Chem. Phys., 2001, 115, 7348-7355.

ECP parameters for Au [Def2-ECP] have been obtained from:
TURBOMOLE (7.0.2)

----- Orbital basis set information -----
Your calculation utilizes the basis: def2-TZVP
   F. Weigend and R. Ahlrichs, Phys. Chem. Chem. Phys. 7, 3297 (2005).

----- AuxJ basis set information -----
Your calculation utilizes the auxiliary basis: def2/J
   F. Weigend, Phys. Chem. Chem. Phys. 8, 1057 (2006).

================================================================================
                                        WARNINGS
                       Please study these warnings very carefully!
================================================================================

Using LibXC functional ID 497 : Re-regularized SCAN exchange by Furness et al
[ 1]  J. W. Furness, A. D. Kaplan, J. Ning, J. P. Perdew, and J. Sun, J. Phys. Chem. Lett. 11, 8208 (2020)
[ 2]  J. W. Furness, A. D. Kaplan, J. Ning, J. P. Perdew, and J. Sun, J. Phys. Chem. Lett. 11, 9248 (2020)
Using LibXC functional ID 498 : Re-regularized SCAN correlation by Furness et al
[ 1]  J. W. Furness, A. D. Kaplan, J. Ning, J. P. Perdew, and J. Sun, J. Phys. Chem. Lett. 11, 8208 (2020)
[ 2]  J. W. Furness, A. D. Kaplan, J. Ning, J. P. Perdew, and J. Sun, J. Phys. Chem. Lett. 11, 9248 (2020)
Using LibXC functional ID 497 : Re-regularized SCAN exchange by Furness et al
[ 1]  J. W. Furness, A. D. Kaplan, J. Ning, J. P. Perdew, and J. Sun, J. Phys. Chem. Lett. 11, 8208 (2020)
[ 2]  J. W. Furness, A. D. Kaplan, J. Ning, J. P. Perdew, and J. Sun, J. Phys. Chem. Lett. 11, 9248 (2020)
Using LibXC functional ID 498 : Re-regularized SCAN correlation by Furness et al
[ 1]  J. W. Furness, A. D. Kaplan, J. Ning, J. P. Perdew, and J. Sun, J. Phys. Chem. Lett. 11, 8208 (2020)
[ 2]  J. W. Furness, A. D. Kaplan, J. Ning, J. P. Perdew, and J. Sun, J. Phys. Chem. Lett. 11, 9248 (2020)

WARNING: your system is open-shell and RHF/RKS was chosen
  ===> : WILL SWITCH to UHF/UKS


INFO   : the flag for use of the SHARK integral package has been found!



***************************************
The coordinates will be read from file: pbe.xyz
***************************************


================================================================================

cite the ECPs for Au [Def2-ECP] as follows:
Ce-Yb(ecp-28): M. Dolg, H. Stoll, H.Preuss, J. Chem. Phys., 1989, 90, 1730-1734.
Y-Cd(ecp-28), Hf-Hg(ecp-46): D. Andrae,U. Haeussermann, M. Dolg, H. Stoll, H. Preuss, Theor. Chim. Acta, 1990, 77, 123-141.
In-Sb(ecp-28), Tl-Bi(ecp-46): B. Metz, H. Stoll, M. Dolg, J. Chem. Phys., 2000, 113, 2563-2569.
Te-Xe(ecp-28), Po-Rn(ecp-46): K. A. Peterson, D. Figgen, E. Goll, H. Stoll, M. Dolg, J. Chem. Phys., 2003, 119, 11113-11123.
Rb(ecp-28), Cs(ecp-46): T. Leininger, A. Nicklass, W. Kuechle, H. Stoll, M. Dolg, A. Bergner, Chem. Phys. Lett., 1996, 255, 274-280.
Sr(ecp-28), Ba(ecp-46): M. Kaupp, P. V. Schleyer, H. Stoll and H. Preuss, J. Chem. Phys., 1991, 94, 1360-1366.
La(ecp-46): M. Dolg, H. Stoll, A. Savin, H. Preuss, Theor. Chim. Acta, 1989, 75, 173-194.
Lu(ecp-28): X. Cao, M. Dolg, J. Chem. Phys., 2001, 115, 7348-7355.

ECP parameters for Au [Def2-ECP] have been obtained from:
TURBOMOLE (7.0.2)

----- Orbital basis set information -----
Your calculation utilizes the basis: def2-TZVP
   F. Weigend and R. Ahlrichs, Phys. Chem. Chem. Phys. 7, 3297 (2005).

----- AuxJ basis set information -----
Your calculation utilizes the auxiliary basis: def2/J
   F. Weigend, Phys. Chem. Chem. Phys. 8, 1057 (2006).

================================================================================
                                        WARNINGS
                       Please study these warnings very carefully!
================================================================================

Using LibXC functional ID 497 : Re-regularized SCAN exchange by Furness et al
[ 1]  J. W. Furness, A. D. Kaplan, J. Ning, J. P. Perdew, and J. Sun, J. Phys. Chem. Lett. 11, 8208 (2020)
[ 2]  J. W. Furness, A. D. Kaplan, J. Ning, J. P. Perdew, and J. Sun, J. Phys. Chem. Lett. 11, 9248 (2020)
Using LibXC functional ID 498 : Re-regularized SCAN correlation by Furness et al
[ 1]  J. W. Furness, A. D. Kaplan, J. Ning, J. P. Perdew, and J. Sun, J. Phys. Chem. Lett. 11, 8208 (2020)
[ 2]  J. W. Furness, A. D. Kaplan, J. Ning, J. P. Perdew, and J. Sun, J. Phys. Chem. Lett. 11, 9248 (2020)
Using LibXC functional ID 497 : Re-regularized SCAN exchange by Furness et al
[ 1]  J. W. Furness, A. D. Kaplan, J. Ning, J. P. Perdew, and J. Sun, J. Phys. Chem. Lett. 11, 8208 (2020)
[ 2]  J. W. Furness, A. D. Kaplan, J. Ning, J. P. Perdew, and J. Sun, J. Phys. Chem. Lett. 11, 9248 (2020)
Using LibXC functional ID 498 : Re-regularized SCAN correlation by Furness et al
[ 1]  J. W. Furness, A. D. Kaplan, J. Ning, J. P. Perdew, and J. Sun, J. Phys. Chem. Lett. 11, 8208 (2020)
[ 2]  J. W. Furness, A. D. Kaplan, J. Ning, J. P. Perdew, and J. Sun, J. Phys. Chem. Lett. 11, 9248 (2020)

INFO   : the flag for use of the SHARK integral package has been found!

================================================================================
                                       INPUT FILE
================================================================================
NAME = scan.inp
|  1> !R2SCAN def2-TZVP VERYSLOWCONV
|  2> !KDIIS
|  3> %scf
|  4>   AutoTRAHIter 200
|  5>   maxiter 400
|  6> end
|  7> 
|  8> %pal nprocs 6 end 
|  9> 
| 10> *xyzfile 0 5 pbe.xyz
| 11> 
| 12> $new_job
| 13> 
| 14> !R2SCAN def2-TZVP VERYSLOWCONV
| 15> !KDIIS
| 16> %scf
| 17>   AutoTRAHIter 200
| 18>   maxiter 400
| 19> end
| 20> 
| 21> 
| 22> %pal nprocs 6 end 
| 23> 
| 24> *xyzfile 0 3 pbe.xyz
| 25> 
| 26> 
| 27> 
| 28> 
| 29> 
| 30>                          ****END OF INPUT****
================================================================================


                 $$$$$$$$$$$$$$$$$$$$$$$$$$$$$$$$$$$$$$$$$$$$$$ 
                 $ THERE ARE  2 JOBS TO BE PROCESSED THIS RUN $
                 $$$$$$$$$$$$$$$$$$$$$$$$$$$$$$$$$$$$$$$$$$$$$$ 




                 $$$$$$$$$$$$$$$$  JOB NUMBER  1 $$$$$$$$$$$$$$


                       ****************************
                       * Single Point Calculation *
                       ****************************

---------------------------------
CARTESIAN COORDINATES (ANGSTROEM)
---------------------------------
  Au     5.597692    9.701086    4.117308
  Au     8.551342    8.862668    8.157489
  Au     5.400589   10.523043    6.835768
  Au     3.771731    8.516230    7.857753
  Au     5.974964    9.306906    9.281758
  Au     4.253166    7.589620    5.291437
  Au     4.599631    5.945477    7.484112
  Au     7.083285    6.801838    9.244645
  Au     6.408471    4.260533    8.670211
  Au     7.199717    5.478397    6.319307
  Au     6.985196    7.297292    4.406885
  Au     7.926341    9.877003    5.746632
  Fe     6.376106    7.989073    6.892467

----------------------------
CARTESIAN COORDINATES (A.U.)
----------------------------
  NO LB      ZA    FRAG     MASS         X           Y           Z
   0 Au   19.0000*   0   196.966   10.578104   18.332396    7.780584
   1 Au   19.0000*   0   196.966   16.159695   16.748014   15.415419
   2 Au   19.0000*   0   196.966   10.205634   19.885669   12.917729
   3 Au   19.0000*   0   196.966    7.127539   16.093342   14.849002
   4 Au   19.0000*   0   196.966   11.291046   17.587504   17.539980
   5 Au   19.0000*   0   196.966    8.037319   14.342304    9.999367
   6 Au   19.0000*   0   196.966    8.692044   11.235323   14.142922
   7 Au   19.0000*   0   196.966   13.385470   12.853610   17.469848
   8 Au   19.0000*   0   196.966   12.110256    8.051241   16.384325
   9 Au   19.0000*   0   196.966   13.605494   10.352670   11.941760
  10 Au   19.0000*   0   196.966   13.200108   13.789884    8.327806
  11 Au   19.0000*   0   196.966   14.978614   18.664830   10.859561
  12 Fe   26.0000    0    55.850   12.049094   15.097160   13.024875
* core charge reduced due to ECP

--------------------------------
INTERNAL COORDINATES (ANGSTROEM)
--------------------------------
 Au     0   0   0     0.000000000000     0.00000000     0.00000000
 Au     1   0   0     5.074451645368     0.00000000     0.00000000
 Au     1   2   0     2.846838434635    47.75724550     0.00000000
 Au     3   1   2     2.779375403022   100.55774729   265.88361543
 Au     4   3   1     2.739925422924    60.75697819   135.65520972
 Au     1   2   3     2.764890183227    79.55851090   277.64431853
 Au     4   3   1     2.726499178796   116.90083414    54.66685493
 Au     5   4   3     2.739547880434    93.11849467   239.30613282
 Au     8   5   4     2.691389492512   139.89564226   346.95891820
 Au     9   8   5     2.763333325500    72.15995330    86.13745801
 Au    10   9   8     2.647972354442   153.37580794   297.99851490
 Au     2   1   3     2.689187683117    24.30387841   247.13663901
 Fe    11  10   9     2.650974878282    61.36034966    35.55577256

---------------------------
INTERNAL COORDINATES (A.U.)
---------------------------
 Au     0   0   0     0.000000000000     0.00000000     0.00000000
 Au     1   0   0     9.589323889571     0.00000000     0.00000000
 Au     1   2   0     5.379744988982    47.75724550     0.00000000
 Au     3   1   2     5.252258335068   100.55774729   265.88361543
 Au     4   3   1     5.177708676696    60.75697819   135.65520972
 Au     1   2   3     5.224885236666    79.55851090   277.64431853
 Au     4   3   1     5.152336752285   116.90083414    54.66685493
 Au     5   4   3     5.176995224784    93.11849467   239.30613282
 Au     8   5   4     5.085989060561   139.89564226   346.95891820
 Au     9   8   5     5.221943201932    72.15995330    86.13745801
 Au    10   9   8     5.003942560090   153.37580794   297.99851490
 Au     2   1   3     5.081828243805    24.30387841   247.13663901
 Fe    11  10   9     5.009616507858    61.36034966    35.55577256

---------------------
BASIS SET INFORMATION
---------------------
There are 2 groups of distinct atoms

 Group   1 Type Au  : 8s7p6d1f contracted to 6s4p3d1f pattern {311111/4111/411/1}
 Group   2 Type Fe  : 17s11p7d1f contracted to 6s4p4d1f pattern {842111/6311/4111/1}

Atom   0Au   basis set group =>   1
Atom   1Au   basis set group =>   1
Atom   2Au   basis set group =>   1
Atom   3Au   basis set group =>   1
Atom   4Au   basis set group =>   1
Atom   5Au   basis set group =>   1
Atom   6Au   basis set group =>   1
Atom   7Au   basis set group =>   1
Atom   8Au   basis set group =>   1
Atom   9Au   basis set group =>   1
Atom  10Au   basis set group =>   1
Atom  11Au   basis set group =>   1
Atom  12Fe   basis set group =>   2
---------------------------------
AUXILIARY/J BASIS SET INFORMATION
---------------------------------
There are 2 groups of distinct atoms

 Group   1 Type Au  : 11s5p5d3f3g contracted to 8s5p5d2f3g pattern {41111111/11111/11111/21/111}
 Group   2 Type Fe  : 19s5p5d3f3g contracted to 8s5p5d2f3g pattern {121111111/11111/11111/21/111}

Atom   0Au   basis set group =>   1
Atom   1Au   basis set group =>   1
Atom   2Au   basis set group =>   1
Atom   3Au   basis set group =>   1
Atom   4Au   basis set group =>   1
Atom   5Au   basis set group =>   1
Atom   6Au   basis set group =>   1
Atom   7Au   basis set group =>   1
Atom   8Au   basis set group =>   1
Atom   9Au   basis set group =>   1
Atom  10Au   basis set group =>   1
Atom  11Au   basis set group =>   1
Atom  12Fe   basis set group =>   2
-------------------------
ECP PARAMETER INFORMATION
-------------------------

 Group 1, Type Au ECP Def2-ECP (replacing 60 core electrons, lmax=3)

Atom   0Au   ECP group =>   1
Atom   1Au   ECP group =>   1
Atom   2Au   ECP group =>   1
Atom   3Au   ECP group =>   1
Atom   4Au   ECP group =>   1
Atom   5Au   ECP group =>   1
Atom   6Au   ECP group =>   1
Atom   7Au   ECP group =>   1
Atom   8Au   ECP group =>   1
Atom   9Au   ECP group =>   1
Atom  10Au   ECP group =>   1
Atom  11Au   ECP group =>   1



           ************************************************************
           *        Program running with 6 parallel MPI-processes     *
           *              working on a common directory               *
           ************************************************************
------------------------------------------------------------------------------
                           ORCA GTO INTEGRAL CALCULATION
                           -- RI-GTO INTEGRALS CHOSEN --
------------------------------------------------------------------------------
------------------------------------------------------------------------------
                   ___                                                        
                  /   \      - P O W E R E D   B Y -                         
                 /     \                                                     
                 |  |  |   _    _      __       _____    __    __             
                 |  |  |  | |  | |    /  \     |  _  \  |  |  /  |          
                  \  \/   | |  | |   /    \    | | | |  |  | /  /          
                 / \  \   | |__| |  /  /\  \   | |_| |  |  |/  /          
                |  |  |   |  __  | /  /__\  \  |    /   |      \           
                |  |  |   | |  | | |   __   |  |    \   |  |\   \          
                \     /   | |  | | |  |  |  |  | |\  \  |  | \   \       
                 \___/    |_|  |_| |__|  |__|  |_| \__\ |__|  \__/        
                                                                              
                      - O R C A' S   B I G   F R I E N D -                    
                                      &                                       
                       - I N T E G R A L  F E E D E R -                       
                                                                              
 v1 FN, 2020, v2 2021                                                         
------------------------------------------------------------------------------


Reading SHARK input file scan.SHARKINP.tmp ... ok
----------------------
SHARK INTEGRAL PACKAGE
----------------------

Number of atoms                             ...     13
Number of basis functions                   ...    525
Number of shells                            ...    183
Maximum angular momentum                    ...      3
Integral batch strategy                     ... SHARK/LIBINT Hybrid
RI-J (if used) integral strategy            ... SPLIT-RIJ (Revised 2003 algorithm where possible)
Printlevel                                  ...      1
Contraction scheme used                     ... SEGMENTED contraction
Coulomb Range Separation                    ... NOT USED
Exchange Range Separation                   ... NOT USED
Finite Nucleus Model                        ... NOT USED
Auxiliary Coulomb fitting basis             ... AVAILABLE
   # of basis functions in Aux-J            ...   1157
   # of shells in Aux-J                     ...    299
   Maximum angular momentum in Aux-J        ...      4
Auxiliary J/K fitting basis                 ... NOT available
Auxiliary Correlation fitting basis         ... NOT available
Auxiliary 'external' fitting basis          ... NOT available
Integral threshold                          ...     1.000000e-10
Primitive cut-off                           ...     1.000000e-11
Primitive pair pre-selection threshold      ...     1.000000e-11

Calculating pre-screening integrals         ... done (  0.2 sec) Dimension = 183
Organizing shell pair data                  ... done (  0.5 sec)
Shell pair information
Total number of shell pairs                 ...     16836
Shell pairs after pre-screening             ...     13609
Total number of primitive shell pairs       ...     45389
Primitive shell pairs kept                  ...     26748
          la=0 lb=0:   2132 shell pairs
          la=1 lb=0:   3092 shell pairs
          la=1 lb=1:   1181 shell pairs
          la=2 lb=0:   2693 shell pairs
          la=2 lb=1:   1911 shell pairs
          la=2 lb=2:    782 shell pairs
          la=3 lb=0:    716 shell pairs
          la=3 lb=1:    550 shell pairs
          la=3 lb=2:    472 shell pairs
          la=3 lb=3:     80 shell pairs

Calculating one electron integrals          ... done (  0.1 sec)
Calculating ECP integrals                   ... done ( 15.1 sec)
Calculating RI/J V-Matrix + Cholesky decomp.... done (  0.1 sec)
Calculating Nuclear repulsion               ... done (  0.0 sec) ENN=   4408.531380798600 Eh

SHARK setup successfully completed in  16.7 seconds

Maximum memory used throughout the entire GTOINT-calculation: 30.6 MB


           ************************************************************
           *        Program running with 6 parallel MPI-processes     *
           *              working on a common directory               *
           ************************************************************
-------------------------------------------------------------------------------
                                 ORCA SCF
-------------------------------------------------------------------------------

------------
SCF SETTINGS
------------
Hamiltonian:
 Density Functional     Method          .... DFT(GTOs)
  Functional kind                       .... Exchange
  Functional name                       .... Re-regularized SCAN exchange by Furness et al
  Functional family                     .... MGGA
  Functional refs                              
    [ 0] J. W. Furness, A. D. Kaplan, J. Ning, J. P. Perdew, and J. Sun, J. Phys. Chem. Lett. 11, 8208 (2020)
    [ 1] J. W. Furness, A. D. Kaplan, J. Ning, J. P. Perdew, and J. Sun, J. Phys. Chem. Lett. 11, 9248 (2020)
  Functional external parameters         .... 8
 Parameter  0 :         c1 parameter
 Parameter  1 :         c2 parameter
 Parameter  2 :          d parameter
 Parameter  3 :         k1 parameter
 Parameter  4 :       taur parameter
 Parameter  5 :     alphar parameter
 Parameter  6 :        eta parameter
 Parameter  7 :        dp2 parameter
  Functional kind                       .... Correlation
  Functional name                       .... Re-regularized SCAN correlation by Furness et al
  Functional family                     .... MGGA
  Functional refs                              
    [ 0] J. W. Furness, A. D. Kaplan, J. Ning, J. P. Perdew, and J. Sun, J. Phys. Chem. Lett. 11, 8208 (2020)
    [ 1] J. W. Furness, A. D. Kaplan, J. Ning, J. P. Perdew, and J. Sun, J. Phys. Chem. Lett. 11, 9248 (2020)
  Functional external parameters         .... 0
 Gradients option       PostSCFGGA      .... off
   Density functional embedding theory  .... OFF
   NL short-range parameter             .... 12.300000
 RI-approximation to the Coulomb term is turned on
   Number of AuxJ basis functions       .... 1157


General Settings:
 Integral files         IntName         .... scan
 Hartree-Fock type      HFTyp           .... UHF
 Total Charge           Charge          ....    0
 Multiplicity           Mult            ....    5
 Number of Electrons    NEL             ....  254
 Basis Dimension        Dim             ....  525
 Nuclear Repulsion      ENuc            ....   4408.5313807986 Eh

Convergence Acceleration:
 DIIS                   CNVDIIS         .... off
 Trust-Rad. Augm. Hess. CNVTRAH         .... auto
   Auto Start mean grad. ratio tolernc. ....  1.125000
   Auto Start start iteration           ....   200
   Auto Start num. interpolation iter.  ....    10
   Max. Number of Micro iterations      ....    16
   Max. Number of Macro iterations      .... Maxiter - #DIIS iter
   Number of Davidson start vectors     ....     2
   Converg. threshold I  (grad. norm)   ....   5.000e-05
   Converg. threshold II (energy diff.) ....   1.000e-06
   Grad. Scal. Fac. for Micro threshold ....   0.100
   Minimum threshold for Micro iter.    ....   0.010
   NR start threshold (gradient norm)   ....   0.001
   Initial trust radius                 ....   0.400
   Minimum AH scaling param. (alpha)    ....   1.000
   Maximum AH scaling param. (alpha)    .... 1000.000
   Orbital update algorithm             .... Taylor
   White noise on init. David. guess    .... on
   Maximum white noise                  ....   0.010
   Quad. conv. algorithm                .... NR
 SOSCF                  CNVSOSCF        .... off
 Level Shifting         CNVShift        .... off
 Zerner damping         CNVZerner       .... off
 Static damping         CNVDamp         .... off
 Fernandez-Rico         CNVRico         .... off

SCF Procedure:
 Maximum # iterations   MaxIter         ....   400
 SCF integral mode      SCFMode         .... Direct
   Integral package                     .... SHARK and LIBINT hybrid scheme
 Reset frequency        DirectResetFreq ....    20
 Integral Threshold     Thresh          ....  1.000e-10 Eh
 Primitive CutOff       TCut            ....  1.000e-11 Eh

Convergence Tolerance:
 Convergence Check Mode ConvCheckMode   .... All-Criteria
 Convergence forced     ConvForced      .... 0
 Energy Change          TolE            ....  1.000e-06 Eh
 Max Density Change     TolMaxP         ....  1.000e-05
 RMS Density Change     TolRMSP         ....  1.000e-06


Diagonalization of the overlap matrix:
Smallest eigenvalue                        ... 5.338e-04
Time for diagonalization                   ...    0.110 sec
Threshold for overlap eigenvalues          ... 1.000e-08
Number of eigenvalues below threshold      ... 0
Time for construction of square roots      ...    0.082 sec
Total time needed                          ...    0.195 sec

Time for model grid setup =    0.818 sec

------------------------------
INITIAL GUESS: MODEL POTENTIAL
------------------------------
Loading Hartree-Fock densities                     ... done
  calling /home/ehlert/src/miniconda3/envs/orca500/Programs/ORCA501/orca scan_atom79.inp > scan_atom79.out in order to generate an atomic fitting density for atom 0 (Au with ECP) on-the-fly... 
    atom 0 (Au), assumed electronic state with S=2: 1s2 2s2 2p6 3s2 3p6 4s2 3d10 4p6 5s2 4d10 5p6 6s1 4f14 5d10           ... done
Calculating cut-offs                               ... done
Initializing the effective Hamiltonian             ... done
Setting up the integral package (SHARK)            ... done
Starting the Coulomb interaction                   ... done (   0.7 sec)
Reading the grid                                   ... done
Mapping shells                                     ... done
Starting the XC term evaluation                    ... done (   0.8 sec)
  promolecular density results
     # of electrons  =    974.013134554
     EX              =  -4443.959978138
     EC              =    -59.270824501
     EX+EC           =  -4503.230802639
Transforming the Hamiltonian                       ... done (   0.1 sec)
Diagonalizing the Hamiltonian                      ... done (   0.1 sec)
Back transforming the eigenvectors                 ... done (   0.0 sec)
Now organizing SCF variables                       ... done
                      ------------------
                      INITIAL GUESS DONE (   3.7 sec)
                      ------------------
-------------------
DFT GRID GENERATION
-------------------

General Integration Accuracy     IntAcc      ... 4.388
Radial Grid Type                 RadialGrid  ... OptM3 with GC (2021)
Angular Grid (max. ang.)         AngularGrid ... 4 (Lebedev-302)
Angular grid pruning method      GridPruning ... 4 (adaptive)
Weight generation scheme         WeightScheme... Becke
Basis function cutoff            BFCut       ... 1.0000e-10
Integration weight cutoff        WCut        ... 1.0000e-14
Angular grids for H and He will be reduced by one unit
Partially contracted basis set               ... off
Rotationally invariant grid construction     ... off

Total number of grid points                  ...   144719
Total number of batches                      ...     2268
Average number of points per batch           ...       63
Average number of grid points per atom       ...    11132
Time for grid setup =    2.538 sec

--------------
SCF ITERATIONS
--------------
ITER       Energy         Delta-E        Max-DP      RMS-DP      [F,P]   Gradient Norm
               ***  Starting incremental Fock matrix formation  ***
                             ****Resetting KDIIS****
                             ****Turning on KDIIS(Cayley)****
  0  -2890.3723602940   0.000000000000 0.45924281  0.00223137  0.3439028   0.261309626
  1  -2892.5702409158  -2.197880621751 0.68871848  0.00234585  0.3080030   0.173033661
  2  -2893.2521203018  -0.681879385975 0.16374834  0.00145498  0.2435697   0.127863744
  3  -2893.5328328326  -0.280712530865 0.15369810  0.00160476  0.1421987   0.076545025
  4  -2893.6204640177  -0.087631185106 0.04219431  0.00054151  0.0435096   0.028185234
  5  -2893.6907674059  -0.070303388207 0.26698076  0.00097773  0.0250473   0.012873091
  6  -2893.7378517072  -0.047084301217 0.07442721  0.00101120  0.0311918   0.013845090
  7  -2893.7805529328  -0.042701225621 0.02006423  0.00032314  0.0150933   0.008619091
  8  -2893.7919807966  -0.011427863792 0.01796465  0.00025639  0.0153558   0.006868811
  9  -2893.8032163706  -0.011235574013 0.01466925  0.00022150  0.0190221   0.005085322
 10  -2893.8129997511  -0.009783380492 0.03285548  0.00038070  0.0153865   0.003848227
 11  -2893.8254825767  -0.012482825650 0.01434408  0.00017615  0.0108789   0.004026089
 12  -2893.8299065992  -0.004424022473 0.00752603  0.00012270  0.0093657   0.002092054
 13  -2893.8318530907  -0.001946491506 0.01051931  0.00011498  0.0080280   0.002505809
 14  -2893.8339291545  -0.002076063810 0.00529961  0.00009832  0.0064883   0.001398296
 15  -2893.8349306832  -0.001001528691 0.00675916  0.00012376  0.0049599   0.001679481
 16  -2893.8363009711  -0.001370287840 0.00489783  0.00006645  0.0029080   0.001285253
 17  -2893.8368525083  -0.000551537272 0.01127170  0.00006439  0.0030851   0.001363623
 18  -2893.8372347215  -0.000382213202 0.00536136  0.00007410  0.0026478   0.001581053
 19  -2893.8377738771  -0.000539155577 0.00605370  0.00003753  0.0021009   0.000891100
               *** Restarting incremental Fock matrix formation ***
                             ****Resetting KDIIS****
 20  -2893.8378286648  -0.000054787667 0.00109781  0.00000735  0.0020055   0.001116072
 21  -2893.8379203120  -0.000091647249 0.00093232  0.00000985  0.0019973   0.000768488
 22  -2893.8379946130  -0.000074300987 0.00170927  0.00001809  0.0019933   0.000637123
 23  -2893.8381345466  -0.000139933623 0.01008427  0.00010286  0.0019624   0.000478315
 24  -2893.8387239339  -0.000589387233 0.01653340  0.00017503  0.0018489   0.000724726
 25  -2893.8395526950  -0.000828761169 0.00205822  0.00002113  0.0014969   0.000497663
 26  -2893.8395588696  -0.000006174528 0.00435467  0.00004683  0.0015547   0.000567153
 27  -2893.8397691188  -0.000210249206 0.00419056  0.00005127  0.0014872   0.000365221
 28  -2893.8399796384  -0.000210519675 0.00191151  0.00001572  0.0014094   0.000436579
 29  -2893.8399541539   0.000025484581 0.00109644  0.00001619  0.0014383   0.000293230
 30  -2893.8400426762  -0.000088522365 0.00066817  0.00000574  0.0014374   0.000268623
 31  -2893.8400672553  -0.000024579098 0.00057105  0.00000870  0.0014481   0.000251175
 32  -2893.8401126666  -0.000045411250 0.00036424  0.00000581  0.0014502   0.000247432
 33  -2893.8401427440  -0.000030077400 0.00046501  0.00000641  0.0014516   0.000249742
 34  -2893.8401773977  -0.000034653699 0.00012731  0.00000184  0.0014655   0.000249066
 35  -2893.8401873617  -0.000009964015 0.00019548  0.00000188  0.0014656   0.000251903
 36  -2893.8401950706  -0.000007708948 0.00024242  0.00000150  0.0014673   0.000258895
 37  -2893.8401927121   0.000002358567 0.00081017  0.00001257  0.0014697   0.000252133
 38  -2893.8402554329  -0.000062720840 0.00052448  0.00000556  0.0014647   0.000258230
 39  -2893.8402810461  -0.000025613156 0.00040193  0.00000558  0.0014697   0.000260380
               *** Restarting incremental Fock matrix formation ***
                             ****Resetting KDIIS****
 40  -2893.8403083741  -0.000027328003 0.00013457  0.00000196  0.0014773   0.000268985
 41  -2893.8403219226  -0.000013548552 0.00029943  0.00000403  0.0014819   0.000253503
 42  -2893.8403449248  -0.000023002159 0.00035890  0.00000499  0.0014851   0.000251115
 43  -2893.8403729166  -0.000027991856 0.01349519  0.00016630  0.0014878   0.000253007
 44  -2893.8394978496   0.000875067024 0.00323139  0.00003732  0.0012991   0.000338480
 45  -2893.8393227262   0.000175123444 0.00236008  0.00002087  0.0012708   0.000278970
 46  -2893.8392382328   0.000084493368 0.00447627  0.00004588  0.0012224   0.000241224
 47  -2893.8390676703   0.000170562540 0.00523083  0.00005288  0.0011225   0.000282950
 48  -2893.8388983920   0.000169278278 0.01166035  0.00011571  0.0010533   0.000369784
 49  -2893.8386318858   0.000266506149 0.00143581  0.00002006  0.0013158   0.000385063
 50  -2893.8386705310  -0.000038645188 0.00212447  0.00002920  0.0007776   0.000352459
 51  -2893.8387414305  -0.000070899433 0.00662183  0.00006480  0.0007473   0.000372461
 52  -2893.8386681410   0.000073289491 0.00297756  0.00003156  0.0006476   0.000280461
 53  -2893.8386748807  -0.000006739706 0.00845959  0.00009101  0.0006113   0.000245178
 54  -2893.8387637789  -0.000088898199 0.00328775  0.00003518  0.0004736   0.000245933
 55  -2893.8387477188   0.000016060021 0.00669439  0.00006560  0.0004676   0.000283427
 56  -2893.8388247834  -0.000077064532 0.00410770  0.00004573  0.0005192   0.000287629
 57  -2893.8388812143  -0.000056430897 0.00130499  0.00001475  0.0004371   0.000191291
 58  -2893.8388583267   0.000022887612 0.00130664  0.00001262  0.0003819   0.000280226
 59  -2893.8388903050  -0.000031978297 0.00116526  0.00001229  0.0004134   0.000186058
               *** Restarting incremental Fock matrix formation ***
                             ****Resetting KDIIS****
                           ***RMSP convergence achieved***
 60  -2893.8389085554  -0.000018250400 0.00007858  0.00000083  0.0003959   0.000114295
                          ***Energy convergence achieved***
 61  -2893.8389089037  -0.000000348384 0.00013656  0.00000150  0.0003951   0.000099797
 62  -2893.8389120521  -0.000003148320 0.00033343  0.00000348  0.0003943   0.000096801
 63  -2893.8389178299  -0.000005777873 0.00428909  0.00004474  0.0003854   0.000093654
 64  -2893.8389946957  -0.000076865742 0.00397336  0.00004084  0.0002990   0.000150332
 65  -2893.8390513352  -0.000056639535 0.00074752  0.00000485  0.0002669   0.000075818
 66  -2893.8390568829  -0.000005547674 0.00067289  0.00000640  0.0002718   0.000089784
 67  -2893.8390655481  -0.000008665228 0.00025879  0.00000225  0.0002843   0.000065538
 68  -2893.8390697325  -0.000004184378 0.00012392  0.00000159  0.0002907   0.000065968
                           ***RMSP convergence achieved***
 69  -2893.8390684123   0.000001320220 0.00003998  0.00000058  0.0002917   0.000065765
                          ***Energy convergence achieved***
 70  -2893.8390675997   0.000000812589 0.00063654  0.00000822  0.0002941   0.000066710
 71  -2893.8390718508  -0.000004251118 0.00054830  0.00000586  0.0002903   0.000065991
 72  -2893.8390777888  -0.000005938044 0.00051049  0.00000534  0.0003012   0.000068514
 73  -2893.8390834946  -0.000005705744 0.00008481  0.00000105  0.0003094   0.000065263
                          ***Energy convergence achieved***
 74  -2893.8390836840  -0.000000189460 0.00028325  0.00000395  0.0003120   0.000063531
                           ***RMSP convergence achieved***
 75  -2893.8390859861  -0.000002302053 0.00009448  0.00000087  0.0003167   0.000064873
 76  -2893.8390845444   0.000001441707 0.00075884  0.00001042  0.0003177   0.000066773
 77  -2893.8390769324   0.000007612000 0.00044024  0.00000605  0.0002918   0.000074879
 78  -2893.8390709170   0.000006015366 0.00142410  0.00001660  0.0003024   0.000065663
 79  -2893.8390612915   0.000009625548 0.00041294  0.00000447  0.0002857   0.000110252
               *** Restarting incremental Fock matrix formation ***
                             ****Resetting KDIIS****
                           ***RMSP convergence achieved***
 80  -2893.8390566112   0.000004680296 0.00003697  0.00000056  0.0002703   0.000074085
                          ***Energy convergence achieved***
 81  -2893.8390571085  -0.000000497274 0.00008191  0.00000106  0.0002741   0.000064437
 82  -2893.8390588317  -0.000001723208 0.00015908  0.00000218  0.0002745   0.000060590
 83  -2893.8390611921  -0.000002360473 0.00068029  0.00000859  0.0002797   0.000057587
 84  -2893.8390712241  -0.000010031963 0.00011372  0.00000133  0.0002938   0.000057605
 85  -2893.8390730082  -0.000001784138 0.00040075  0.00000459  0.0002956   0.000055755
 86  -2893.8390675336   0.000005474591 0.00030112  0.00000310  0.0002851   0.000056418
 87  -2893.8390685911  -0.000001057480 0.00045347  0.00000414  0.0002782   0.000090134
                          ***Energy convergence achieved***
 88  -2893.8390686671  -0.000000075929 0.00200396  0.00002150  0.0003066   0.000081262
 89  -2893.8390464096   0.000022257483 0.00040429  0.00000418  0.0002447   0.000062572
 90  -2893.8390408838   0.000005525768 0.00162638  0.00001578  0.0002422   0.000093754
 91  -2893.8390292804   0.000011603413 0.00174387  0.00001780  0.0001944   0.000084120
 92  -2893.8390448191  -0.000015538662 0.00250443  0.00002399  0.0002505   0.000070577
 93  -2893.8390220176   0.000022801486 0.00096622  0.00000924  0.0001822   0.000084406
 94  -2893.8390361337  -0.000014116170 0.00023019  0.00000184  0.0001765   0.000123020
 95  -2893.8390308749   0.000005258834 0.00111735  0.00001022  0.0002098   0.000069766
 96  -2893.8390262651   0.000004609843 0.00051338  0.00000515  0.0001703   0.000078339
 97  -2893.8390214516   0.000004813440 0.00074400  0.00000753  0.0001661   0.000059478
 98  -2893.8390276856  -0.000006233938 0.00092401  0.00000858  0.0001761   0.000066446
 99  -2893.8390243839   0.000003301639 0.00030054  0.00000205  0.0001600   0.000055890
               *** Restarting incremental Fock matrix formation ***
                             ****Resetting KDIIS****
                           ***RMSP convergence achieved***
100  -2893.8390198362   0.000004547742 0.00007102  0.00000060  0.0001619   0.000087285
101  -2893.8390225774  -0.000002741257 0.00013857  0.00000066  0.0001577   0.000049418
                          ***Energy convergence achieved***
102  -2893.8390232356  -0.000000658159 0.00023777  0.00000134  0.0001559   0.000045042
103  -2893.8390247053  -0.000001469700 0.00150598  0.00001346  0.0001553   0.000039508
104  -2893.8390357009  -0.000010995603 0.00074785  0.00000660  0.0001590   0.000041520
105  -2893.8390405230  -0.000004822085 0.00024218  0.00000236  0.0001672   0.000035155
                           ***RMSP convergence achieved***
106  -2893.8390391337   0.000001389240 0.00006722  0.00000062  0.0001662   0.000035996
                          ***Energy convergence achieved***
107  -2893.8390395981  -0.000000464317 0.00013414  0.00000121  0.0001675   0.000035520
108  -2893.8390403370  -0.000000738945 0.00044632  0.00000493  0.0001690   0.000036736
109  -2893.8390391125   0.000001224553 0.00083701  0.00001277  0.0001739   0.000057787
110  -2893.8390407457  -0.000001633234 0.00102806  0.00000784  0.0001574   0.000033585
                          ***Energy convergence achieved***
111  -2893.8390409643  -0.000000218632 0.00026437  0.00000211  0.0001471   0.000036719
112  -2893.8390412892  -0.000000324835 0.00070896  0.00000702  0.0001511   0.000041914
113  -2893.8390429635  -0.000001674307 0.00046835  0.00000342  0.0001528   0.000033731
114  -2893.8390440974  -0.000001133946 0.00078524  0.00000612  0.0001461   0.000032011
115  -2893.8390465542  -0.000002456826 0.00046832  0.00000553  0.0001397   0.000034443
116  -2893.8390447939   0.000001760374 0.00065403  0.00000493  0.0001506   0.000042397
117  -2893.8390474269  -0.000002633077 0.00033334  0.00000243  0.0001520   0.000031629
118  -2893.8390494252  -0.000001998287 0.00026956  0.00000214  0.0001492   0.000031970
                          ***Energy convergence achieved***
119  -2893.8390484806   0.000000944623 0.00019844  0.00000112  0.0001480   0.000030151
               *** Restarting incremental Fock matrix formation ***
                             ****Resetting KDIIS****
                           ***RMSP convergence achieved***

            ***Energy convergence in two consecutive cycles with***
                    ***'reasonable' density convergence***
                       *** signaling convergence ***

                    *** KDIIS BlockDiag ( 0.182 sec) ***

               *****************************************************
               *                     SUCCESS                       *
               *           SCF CONVERGED AFTER 120 CYCLES          *
               *****************************************************


----------------
TOTAL SCF ENERGY
----------------

Total Energy       :        -2893.83904895 Eh          -78745.36386 eV

Components:
Nuclear Repulsion  :         4408.53138080 Eh          119962.23763 eV
Electronic Energy  :        -7302.37042975 Eh         -198707.60149 eV
One Electron Energy:       -13420.18669712 Eh         -365181.84552 eV
Two Electron Energy:         6117.81626737 Eh          166474.24402 eV

Virial components:
Potential Energy   :        -4706.08768435 Eh         -128059.15629 eV
Kinetic Energy     :         1812.24863540 Eh           49313.79243 eV
Virial Ratio       :            2.59682231


DFT components:
N(Alpha)           :      129.000002007622 electrons
N(Beta)            :      125.000003682316 electrons
N(Total)           :      254.000005689938 electrons
E(X)               :     -200.215813028456 Eh       
E(C)               :      -10.556797293840 Eh       
E(XC)              :     -210.772610322296 Eh       
DFET-embed. en.    :        0.000000000000 Eh       

---------------
SCF CONVERGENCE
---------------

  Last Energy change         ...   -4.7161e-07  Tolerance :   1.0000e-06
  Last MAX-Density change    ...    5.2532e-05  Tolerance :   1.0000e-05
  Last RMS-Density change    ...    2.4081e-07  Tolerance :   1.0000e-06

             **** THE GBW FILE WAS UPDATED (scan.gbw) ****
             **** DENSITY scan.scfp WAS UPDATED ****
             **** ENERGY FILE WAS UPDATED (scan.en.tmp) ****
----------------------
UHF SPIN CONTAMINATION
----------------------

Warning: in a DFT calculation there is little theoretical justification to 
         calculate <S**2> as in Hartree-Fock theory. We will do it anyways
         but you should keep in mind that the values have only limited relevance

Expectation value of <S**2>     :     6.097145
Ideal value S*(S+1) for S=2.0   :     6.000000
Deviation                       :     0.097145

             **** THE GBW FILE WAS UPDATED (scan.gbw) ****
             **** DENSITY scan.scfp WAS UPDATED ****
----------------
ORBITAL ENERGIES
----------------
                 SPIN UP ORBITALS
  NO   OCC          E(Eh)            E(eV) 
   0   1.0000    -255.639415     -6956.3021 
   1   1.0000     -29.939382      -814.6920 
   2   1.0000     -25.783070      -701.5930 
   3   1.0000     -25.764896      -701.0985 
   4   1.0000     -25.759962      -700.9642 
   5   1.0000      -4.121894      -112.1624 
   6   1.0000      -4.121357      -112.1478 
   7   1.0000      -4.119981      -112.1104 
   8   1.0000      -4.119727      -112.1035 
   9   1.0000      -4.117523      -112.0435 
  10   1.0000      -4.117037      -112.0303 
  11   1.0000      -4.115887      -111.9990 
  12   1.0000      -4.115123      -111.9782 
  13   1.0000      -4.111946      -111.8917 
  14   1.0000      -4.111598      -111.8823 
  15   1.0000      -4.110013      -111.8391 
  16   1.0000      -4.108838      -111.8072 
  17   1.0000      -3.521291       -95.8192 
  18   1.0000      -2.315619       -63.0112 
  19   1.0000      -2.313595       -62.9561 
  20   1.0000      -2.312529       -62.9271 
  21   1.0000      -2.309018       -62.8316 
  22   1.0000      -2.308105       -62.8067 
  23   1.0000      -2.307719       -62.7962 
  24   1.0000      -2.306893       -62.7738 
  25   1.0000      -2.306678       -62.7679 
  26   1.0000      -2.306379       -62.7598 
  27   1.0000      -2.306256       -62.7564 
  28   1.0000      -2.305367       -62.7322 
  29   1.0000      -2.304722       -62.7147 
  30   1.0000      -2.304344       -62.7044 
  31   1.0000      -2.304013       -62.6954 
  32   1.0000      -2.303306       -62.6761 
  33   1.0000      -2.302980       -62.6673 
  34   1.0000      -2.302404       -62.6516 
  35   1.0000      -2.302216       -62.6465 
  36   1.0000      -2.301911       -62.6382 
  37   1.0000      -2.301269       -62.6207 
  38   1.0000      -2.301155       -62.6176 
  39   1.0000      -2.301009       -62.6136 
  40   1.0000      -2.300454       -62.5985 
  41   1.0000      -2.300108       -62.5891 
  42   1.0000      -2.299242       -62.5656 
  43   1.0000      -2.298539       -62.5464 
  44   1.0000      -2.297374       -62.5147 
  45   1.0000      -2.297278       -62.5121 
  46   1.0000      -2.297166       -62.5091 
  47   1.0000      -2.296753       -62.4978 
  48   1.0000      -2.296428       -62.4890 
  49   1.0000      -2.296221       -62.4834 
  50   1.0000      -2.295263       -62.4573 
  51   1.0000      -2.294566       -62.4383 
  52   1.0000      -2.293298       -62.4038 
  53   1.0000      -2.289555       -62.3020 
  54   1.0000      -2.289032       -62.2877 
  55   1.0000      -2.276844       -61.9561 
  56   1.0000      -2.266320       -61.6697 
  57   1.0000      -0.432136       -11.7590 
  58   1.0000      -0.394760       -10.7420 
  59   1.0000      -0.390078       -10.6146 
  60   1.0000      -0.388494       -10.5715 
  61   1.0000      -0.384916       -10.4741 
  62   1.0000      -0.377753       -10.2792 
  63   1.0000      -0.376294       -10.2395 
  64   1.0000      -0.372694       -10.1415 
  65   1.0000      -0.368075       -10.0158 
  66   1.0000      -0.361415        -9.8346 
  67   1.0000      -0.358883        -9.7657 
  68   1.0000      -0.356287        -9.6951 
  69   1.0000      -0.352476        -9.5913 
  70   1.0000      -0.350792        -9.5455 
  71   1.0000      -0.347666        -9.4605 
  72   1.0000      -0.345479        -9.4010 
  73   1.0000      -0.344082        -9.3629 
  74   1.0000      -0.341562        -9.2944 
  75   1.0000      -0.340356        -9.2616 
  76   1.0000      -0.338319        -9.2061 
  77   1.0000      -0.337023        -9.1709 
  78   1.0000      -0.334315        -9.0972 
  79   1.0000      -0.331850        -9.0301 
  80   1.0000      -0.330064        -8.9815 
  81   1.0000      -0.326461        -8.8835 
  82   1.0000      -0.324764        -8.8373 
  83   1.0000      -0.322321        -8.7708 
  84   1.0000      -0.317484        -8.6392 
  85   1.0000      -0.313793        -8.5387 
  86   1.0000      -0.311278        -8.4703 
  87   1.0000      -0.310540        -8.4502 
  88   1.0000      -0.307393        -8.3646 
  89   1.0000      -0.303886        -8.2692 
  90   1.0000      -0.301057        -8.1922 
  91   1.0000      -0.300358        -8.1731 
  92   1.0000      -0.296491        -8.0679 
  93   1.0000      -0.294205        -8.0057 
  94   1.0000      -0.291584        -7.9344 
  95   1.0000      -0.291077        -7.9206 
  96   1.0000      -0.288691        -7.8557 
  97   1.0000      -0.285006        -7.7554 
  98   1.0000      -0.284070        -7.7299 
  99   1.0000      -0.281856        -7.6697 
 100   1.0000      -0.278940        -7.5903 
 101   1.0000      -0.277577        -7.5533 
 102   1.0000      -0.275126        -7.4866 
 103   1.0000      -0.274671        -7.4742 
 104   1.0000      -0.274459        -7.4684 
 105   1.0000      -0.272522        -7.4157 
 106   1.0000      -0.271854        -7.3975 
 107   1.0000      -0.268472        -7.3055 
 108   1.0000      -0.267845        -7.2884 
 109   1.0000      -0.265888        -7.2352 
 110   1.0000      -0.264610        -7.2004 
 111   1.0000      -0.263842        -7.1795 
 112   1.0000      -0.263313        -7.1651 
 113   1.0000      -0.261179        -7.1070 
 114   1.0000      -0.260600        -7.0913 
 115   1.0000      -0.259666        -7.0659 
 116   1.0000      -0.258140        -7.0243 
 117   1.0000      -0.256604        -6.9826 
 118   1.0000      -0.256075        -6.9681 
 119   1.0000      -0.255565        -6.9543 
 120   1.0000      -0.254399        -6.9225 
 121   1.0000      -0.250936        -6.8283 
 122   1.0000      -0.249773        -6.7967 
 123   1.0000      -0.246313        -6.7025 
 124   1.0000      -0.242623        -6.6021 
 125   1.0000      -0.234439        -6.3794 
 126   1.0000      -0.218410        -5.9432 
 127   1.0000      -0.196515        -5.3474 
 128   1.0000      -0.191404        -5.2084 
 129   0.0000      -0.165903        -4.5144 
 130   0.0000      -0.145657        -3.9635 
 131   0.0000      -0.141274        -3.8443 
 132   0.0000      -0.123021        -3.3476 
 133   0.0000      -0.105700        -2.8762 
 134   0.0000      -0.103704        -2.8219 
 135   0.0000      -0.065413        -1.7800 
 136   0.0000      -0.055065        -1.4984 
 137   0.0000      -0.053343        -1.4515 
 138   0.0000      -0.050070        -1.3625 
 139   0.0000      -0.037719        -1.0264 
 140   0.0000      -0.034906        -0.9498 
 141   0.0000      -0.029487        -0.8024 
 142   0.0000      -0.019106        -0.5199 
 143   0.0000      -0.011832        -0.3220 
 144   0.0000       0.010911         0.2969 
 145   0.0000       0.018617         0.5066 
 146   0.0000       0.024112         0.6561 
 147   0.0000       0.042857         1.1662 
 148   0.0000       0.046060         1.2534 
 149   0.0000       0.052649         1.4326 
 150   0.0000       0.054841         1.4923 
 151   0.0000       0.059093         1.6080 
 152   0.0000       0.062708         1.7064 
 153   0.0000       0.064097         1.7442 
 154   0.0000       0.066563         1.8113 
 155   0.0000       0.069141         1.8814 
 156   0.0000       0.070208         1.9105 
 157   0.0000       0.082675         2.2497 
 158   0.0000       0.084477         2.2987 
 159   0.0000       0.086974         2.3667 
 160   0.0000       0.094376         2.5681 
 161   0.0000       0.106348         2.8939 
 162   0.0000       0.108799         2.9606 
 163   0.0000       0.112847         3.0707 
 164   0.0000       0.116116         3.1597 
 165   0.0000       0.137534         3.7425 
 166   0.0000       0.142489         3.8773 
 167   0.0000       0.148191         4.0325 
 168   0.0000       0.154854         4.2138 
 169   0.0000       0.157345         4.2816 
 170   0.0000       0.160258         4.3608 
 171   0.0000       0.161845         4.4040 
 172   0.0000       0.170423         4.6374 
 173   0.0000       0.177503         4.8301 
 174   0.0000       0.178385         4.8541 
 175   0.0000       0.180158         4.9024 
 176   0.0000       0.184028         5.0077 
 177   0.0000       0.187804         5.1104 
 178   0.0000       0.195313         5.3147 
 179   0.0000       0.203072         5.5259 
 180   0.0000       0.219850         5.9824 
 181   0.0000       0.228005         6.2043 
 182   0.0000       0.232463         6.3256 
 183   0.0000       0.234527         6.3818 
 184   0.0000       0.237763         6.4699 
 185   0.0000       0.247597         6.7375 
 186   0.0000       0.253409         6.8956 
 187   0.0000       0.257488         7.0066 
 188   0.0000       0.263949         7.1824 
 189   0.0000       0.265868         7.2346 
 190   0.0000       0.273244         7.4353 
 191   0.0000       0.277793         7.5591 
 192   0.0000       0.281720         7.6660 
 193   0.0000       0.295353         8.0370 
 194   0.0000       0.297698         8.1008 
 195   0.0000       0.301361         8.2004 
 196   0.0000       0.306932         8.3520 
 197   0.0000       0.311403         8.4737 
 198   0.0000       0.315071         8.5735 
 199   0.0000       0.317499         8.6396 
 200   0.0000       0.324963         8.8427 
 201   0.0000       0.330400         8.9906 
 202   0.0000       0.333235         9.0678 
 203   0.0000       0.337479         9.1833 
 204   0.0000       0.339083         9.2269 
 205   0.0000       0.345772         9.4089 
 206   0.0000       0.347607         9.4589 
 207   0.0000       0.356963         9.7135 
 208   0.0000       0.361710         9.8426 
 209   0.0000       0.365270         9.9395 
 210   0.0000       0.369517        10.0551 
 211   0.0000       0.375620        10.2211 
 212   0.0000       0.380633        10.3576 
 213   0.0000       0.387710        10.5501 
 214   0.0000       0.390642        10.6299 
 215   0.0000       0.395885        10.7726 
 216   0.0000       0.400816        10.9068 
 217   0.0000       0.402072        10.9409 
 218   0.0000       0.405558        11.0358 
 219   0.0000       0.410576        11.1723 
 220   0.0000       0.422053        11.4846 
 221   0.0000       0.426283        11.5998 
 222   0.0000       0.437058        11.8930 
 223   0.0000       0.440919        11.9980 
 224   0.0000       0.443602        12.0710 
 225   0.0000       0.454287        12.3618 
 226   0.0000       0.458418        12.4742 
 227   0.0000       0.460537        12.5318 
 228   0.0000       0.462748        12.5920 
 229   0.0000       0.473089        12.8734 
 230   0.0000       0.482073        13.1179 
 231   0.0000       0.486352        13.2343 
 232   0.0000       0.491426        13.3724 
 233   0.0000       0.494785        13.4638 
 234   0.0000       0.501373        13.6431 
 235   0.0000       0.503779        13.7085 
 236   0.0000       0.512622        13.9492 
 237   0.0000       0.519051        14.1241 
 238   0.0000       0.522895        14.2287 
 239   0.0000       0.525875        14.3098 
 240   0.0000       0.533932        14.5290 
 241   0.0000       0.537771        14.6335 
 242   0.0000       0.542038        14.7496 
 243   0.0000       0.545693        14.8491 
 244   0.0000       0.551592        15.0096 
 245   0.0000       0.552878        15.0446 
 246   0.0000       0.558857        15.2073 
 247   0.0000       0.569086        15.4856 
 248   0.0000       0.575803        15.6684 
 249   0.0000       0.579907        15.7801 
 250   0.0000       0.589819        16.0498 
 251   0.0000       0.602875        16.4051 
 252   0.0000       0.651696        17.7336 
 253   0.0000       0.660426        17.9711 
 254   0.0000       0.670209        18.2373 
 255   0.0000       0.701567        19.0906 
 256   0.0000       0.709314        19.3014 
 257   0.0000       0.721022        19.6200 
 258   0.0000       0.728904        19.8345 
 259   0.0000       0.731724        19.9112 
 260   0.0000       0.745682        20.2910 
 261   0.0000       0.753706        20.5094 
 262   0.0000       0.765966        20.8430 
 263   0.0000       0.775577        21.1045 
 264   0.0000       0.782661        21.2973 
 265   0.0000       0.792685        21.5701 
 266   0.0000       0.797628        21.7046 
 267   0.0000       0.810768        22.0621 
 268   0.0000       0.833325        22.6759 
 269   0.0000       0.834425        22.7059 
 270   0.0000       0.839817        22.8526 
 271   0.0000       0.853460        23.2238 
 272   0.0000       0.860690        23.4206 
 273   0.0000       0.870037        23.6749 
 274   0.0000       0.889790        24.2124 
 275   0.0000       0.895370        24.3643 
 276   0.0000       0.901725        24.5372 
 277   0.0000       0.904619        24.6159 
 278   0.0000       0.916226        24.9318 
 279   0.0000       0.918629        24.9972 
 280   0.0000       0.928627        25.2692 
 281   0.0000       0.933396        25.3990 
 282   0.0000       0.958250        26.0753 
 283   0.0000       0.983746        26.7691 
 284   0.0000       0.990502        26.9529 
 285   0.0000       1.017528        27.6883 
 286   0.0000       1.035042        28.1649 
 287   0.0000       1.050157        28.5762 
 288   0.0000       1.086169        29.5562 
 289   0.0000       1.117903        30.4197 
 290   0.0000       1.197236        32.5785 
 291   0.0000       1.215128        33.0653 
 292   0.0000       1.230775        33.4911 
 293   0.0000       1.263471        34.3808 
 294   0.0000       1.273318        34.6488 
 295   0.0000       1.294345        35.2209 
 296   0.0000       1.302363        35.4391 
 297   0.0000       1.318322        35.8734 
 298   0.0000       1.327426        36.1211 
 299   0.0000       1.340887        36.4874 
 300   0.0000       1.353877        36.8409 
 301   0.0000       1.368132        37.2288 
 302   0.0000       1.372295        37.3420 
 303   0.0000       1.379718        37.5440 
 304   0.0000       1.383140        37.6371 
 305   0.0000       1.401250        38.1299 
 306   0.0000       1.401841        38.1460 
 307   0.0000       1.406405        38.2702 
 308   0.0000       1.418302        38.5940 
 309   0.0000       1.432543        38.9815 
 310   0.0000       1.440669        39.2026 
 311   0.0000       1.442806        39.2607 
 312   0.0000       1.445047        39.3217 
 313   0.0000       1.452763        39.5317 
 314   0.0000       1.456328        39.6287 
 315   0.0000       1.466562        39.9072 
 316   0.0000       1.469434        39.9853 
 317   0.0000       1.470441        40.0127 
 318   0.0000       1.472998        40.0823 
 319   0.0000       1.475676        40.1552 
 320   0.0000       1.482181        40.3322 
 321   0.0000       1.488977        40.5171 
 322   0.0000       1.495842        40.7039 
 323   0.0000       1.498027        40.7634 
 324   0.0000       1.502464        40.8841 
 325   0.0000       1.506404        40.9913 
 326   0.0000       1.509880        41.0859 
 327   0.0000       1.516103        41.2553 
 328   0.0000       1.519567        41.3495 
 329   0.0000       1.522606        41.4322 
 330   0.0000       1.532086        41.6902 
 331   0.0000       1.532552        41.7029 
 332   0.0000       1.533737        41.7351 
 333   0.0000       1.536360        41.8065 
 334   0.0000       1.538672        41.8694 
 335   0.0000       1.541047        41.9340 
 336   0.0000       1.541945        41.9584 
 337   0.0000       1.543808        42.0091 
 338   0.0000       1.544566        42.0298 
 339   0.0000       1.548795        42.1449 
 340   0.0000       1.550929        42.2029 
 341   0.0000       1.554149        42.2906 
 342   0.0000       1.554740        42.3066 
 343   0.0000       1.557032        42.3690 
 344   0.0000       1.557933        42.3935 
 345   0.0000       1.560360        42.4595 
 346   0.0000       1.560855        42.4730 
 347   0.0000       1.562158        42.5085 
 348   0.0000       1.562958        42.5303 
 349   0.0000       1.564433        42.5704 
 350   0.0000       1.566934        42.6384 
 351   0.0000       1.569889        42.7188 
 352   0.0000       1.570520        42.7360 
 353   0.0000       1.571576        42.7648 
 354   0.0000       1.572942        42.8019 
 355   0.0000       1.573942        42.8291 
 356   0.0000       1.576445        42.8973 
 357   0.0000       1.578968        42.9659 
 358   0.0000       1.579583        42.9826 
 359   0.0000       1.581928        43.0465 
 360   0.0000       1.582756        43.0690 
 361   0.0000       1.584653        43.1206 
 362   0.0000       1.587118        43.1877 
 363   0.0000       1.589373        43.2490 
 364   0.0000       1.590447        43.2783 
 365   0.0000       1.592927        43.3458 
 366   0.0000       1.594797        43.3966 
 367   0.0000       1.596458        43.4418 
 368   0.0000       1.598298        43.4919 
 369   0.0000       1.598851        43.5069 
 370   0.0000       1.601986        43.5922 
 371   0.0000       1.602916        43.6176 
 372   0.0000       1.605925        43.6995 
 373   0.0000       1.610597        43.8266 
 374   0.0000       1.612240        43.8713 
 375   0.0000       1.613718        43.9115 
 376   0.0000       1.615720        43.9660 
 377   0.0000       1.618801        44.0498 
 378   0.0000       1.620821        44.1048 
 379   0.0000       1.623531        44.1785 
 380   0.0000       1.624714        44.2107 
 381   0.0000       1.629449        44.3396 
 382   0.0000       1.631646        44.3993 
 383   0.0000       1.635596        44.5068 
 384   0.0000       1.636038        44.5189 
 385   0.0000       1.637995        44.5721 
 386   0.0000       1.639558        44.6146 
 387   0.0000       1.640703        44.6458 
 388   0.0000       1.646060        44.7916 
 389   0.0000       1.650138        44.9025 
 390   0.0000       1.652186        44.9583 
 391   0.0000       1.653923        45.0055 
 392   0.0000       1.658010        45.1167 
 393   0.0000       1.661858        45.2214 
 394   0.0000       1.664452        45.2921 
 395   0.0000       1.671234        45.4766 
 396   0.0000       1.672279        45.5050 
 397   0.0000       1.679118        45.6911 
 398   0.0000       1.681813        45.7645 
 399   0.0000       1.684042        45.8251 
 400   0.0000       1.687557        45.9207 
 401   0.0000       1.692693        46.0605 
 402   0.0000       1.695239        46.1298 
 403   0.0000       1.696087        46.1529 
 404   0.0000       1.702067        46.3156 
 405   0.0000       1.703831        46.3636 
 406   0.0000       1.708689        46.4958 
 407   0.0000       1.715234        46.6739 
 408   0.0000       1.718977        46.7757 
 409   0.0000       1.720101        46.8063 
 410   0.0000       1.730805        47.0976 
 411   0.0000       1.741770        47.3960 
 412   0.0000       1.752943        47.7000 
 413   0.0000       1.758134        47.8412 
 414   0.0000       1.779127        48.4125 
 415   0.0000       1.790495        48.7218 
 416   0.0000       1.805618        49.1334 
 417   0.0000       1.821899        49.5764 
 418   0.0000       1.829886        49.7937 
 419   0.0000       1.836015        49.9605 
 420   0.0000       1.858456        50.5712 
 421   0.0000       1.868847        50.8539 
 422   0.0000       1.872745        50.9600 
 423   0.0000       1.884561        51.2815 
 424   0.0000       1.895456        51.5780 
 425   0.0000       1.899561        51.6897 
 426   0.0000       1.912932        52.0535 
 427   0.0000       1.920695        52.2648 
 428   0.0000       1.932782        52.5937 
 429   0.0000       1.949600        53.0513 
 430   0.0000       1.974376        53.7255 
 431   0.0000       1.979963        53.8775 
 432   0.0000       1.989914        54.1483 
 433   0.0000       2.001976        54.4765 
 434   0.0000       2.028460        55.1972 
 435   0.0000       2.051657        55.8284 
 436   0.0000       2.137112        58.1538 
 437   0.0000       2.256882        61.4129 
 438   0.0000       2.326374        63.3039 
 439   0.0000       2.344095        63.7861 
 440   0.0000       2.363224        64.3066 
 441   0.0000       2.425798        66.0093 
 442   0.0000       2.455662        66.8220 
 443   0.0000       2.472701        67.2856 
 444   0.0000       2.516765        68.4846 
 445   0.0000       2.524721        68.7012 
 446   0.0000       2.564514        69.7840 
 447   0.0000       2.585975        70.3680 
 448   0.0000       2.586613        70.3853 
 449   0.0000       2.605289        70.8935 
 450   0.0000       2.613903        71.1279 
 451   0.0000       2.625396        71.4407 
 452   0.0000       3.345486        91.0353 
 453   0.0000       3.616604        98.4128 
 454   0.0000       3.668507        99.8251 
 455   0.0000       3.706516       100.8594 
 456   0.0000       3.833466       104.3139 
 457   0.0000       3.894223       105.9672 
 458   0.0000       3.976506       108.2062 
 459   0.0000       3.986902       108.4891 
 460   0.0000       3.987921       108.5168 
 461   0.0000       3.990869       108.5971 
 462   0.0000       3.998665       108.8092 
 463   0.0000       4.020504       109.4035 
 464   0.0000       4.024195       109.5039 
 465   0.0000      23.615257       642.6038 
 466   0.0000      23.946965       651.6300 
 467   0.0000      24.040091       654.1641 
 468   0.0000      24.231006       659.3592 
 469   0.0000      24.419258       664.4818 
 470   0.0000      24.655167       670.9012 
 471   0.0000      24.990195       680.0178 
 472   0.0000      25.252768       687.1628 
 473   0.0000      25.292120       688.2336 
 474   0.0000      25.489744       693.6112 
 475   0.0000      25.578021       696.0133 
 476   0.0000      25.658011       698.1900 
 477   0.0000      25.857178       703.6096 
 478   0.0000      25.949797       706.1299 
 479   0.0000      26.119471       710.7469 
 480   0.0000      26.246988       714.2169 
 481   0.0000      26.530259       721.9250 
 482   0.0000      26.571916       723.0586 
 483   0.0000      26.619760       724.3605 
 484   0.0000      26.670769       725.7485 
 485   0.0000      26.771348       728.4854 
 486   0.0000      26.946056       733.2395 
 487   0.0000      27.052119       736.1256 
 488   0.0000      27.185537       739.7561 
 489   0.0000      27.349852       744.2273 
 490   0.0000      27.446934       746.8690 
 491   0.0000      27.498011       748.2589 
 492   0.0000      27.605736       751.1903 
 493   0.0000      27.830543       757.3076 
 494   0.0000      27.854251       757.9527 
 495   0.0000      27.988114       761.5953 
 496   0.0000      28.177114       766.7383 
 497   0.0000      28.409295       773.0562 
 498   0.0000      29.413678       800.3869 
 499   0.0000      30.328246       825.2735 
 500   0.0000      30.619769       833.2063 
 501   0.0000      44.381380      1207.6787 
 502   0.0000      44.472702      1210.1637 
 503   0.0000      44.492282      1210.6965 
 504   0.0000      44.513473      1211.2732 
 505   0.0000      44.548977      1212.2393 
 506   0.0000      44.593184      1213.4422 
 507   0.0000      44.613443      1213.9935 
 508   0.0000      44.639935      1214.7144 
 509   0.0000      44.660901      1215.2849 
 510   0.0000      44.676637      1215.7131 
 511   0.0000      44.690810      1216.0988 
 512   0.0000      44.718147      1216.8426 
 513   0.0000     205.249347      5585.1187 
 514   0.0000     205.286880      5586.1400 
 515   0.0000     205.296069      5586.3901 
 516   0.0000     205.303035      5586.5796 
 517   0.0000     205.319340      5587.0233 
 518   0.0000     205.337933      5587.5292 
 519   0.0000     205.346263      5587.7559 
 520   0.0000     205.358915      5588.1002 
 521   0.0000     205.363097      5588.2140 
 522   0.0000     205.370532      5588.4163 
 523   0.0000     205.381478      5588.7142 
 524   0.0000     205.385503      5588.8237 

                 SPIN DOWN ORBITALS
  NO   OCC          E(Eh)            E(eV) 
   0   1.0000    -255.638397     -6956.2744 
   1   1.0000     -29.858841      -812.5004 
   2   1.0000     -25.714080      -699.7157 
   3   1.0000     -25.705636      -699.4859 
   4   1.0000     -25.703926      -699.4394 
   5   1.0000      -4.121083      -112.1404 
   6   1.0000      -4.119705      -112.1029 
   7   1.0000      -4.119658      -112.1016 
   8   1.0000      -4.119143      -112.0876 
   9   1.0000      -4.117002      -112.0293 
  10   1.0000      -4.116804      -112.0239 
  11   1.0000      -4.114632      -111.9648 
  12   1.0000      -4.114211      -111.9534 
  13   1.0000      -4.111231      -111.8723 
  14   1.0000      -4.110737      -111.8588 
  15   1.0000      -4.108802      -111.8062 
  16   1.0000      -4.108032      -111.7852 
  17   1.0000      -3.343689       -90.9864 
  18   1.0000      -2.312770       -62.9337 
  19   1.0000      -2.310967       -62.8846 
  20   1.0000      -2.308159       -62.8082 
  21   1.0000      -2.307765       -62.7975 
  22   1.0000      -2.306757       -62.7700 
  23   1.0000      -2.306315       -62.7580 
  24   1.0000      -2.305602       -62.7386 
  25   1.0000      -2.304981       -62.7217 
  26   1.0000      -2.304917       -62.7200 
  27   1.0000      -2.304545       -62.7099 
  28   1.0000      -2.303642       -62.6853 
  29   1.0000      -2.303475       -62.6808 
  30   1.0000      -2.303255       -62.6748 
  31   1.0000      -2.302548       -62.6555 
  32   1.0000      -2.301796       -62.6350 
  33   1.0000      -2.301495       -62.6269 
  34   1.0000      -2.300997       -62.6133 
  35   1.0000      -2.300824       -62.6086 
  36   1.0000      -2.300683       -62.6048 
  37   1.0000      -2.300543       -62.6010 
  38   1.0000      -2.300259       -62.5932 
  39   1.0000      -2.299706       -62.5782 
  40   1.0000      -2.299479       -62.5720 
  41   1.0000      -2.297906       -62.5292 
  42   1.0000      -2.297240       -62.5111 
  43   1.0000      -2.296740       -62.4975 
  44   1.0000      -2.296357       -62.4870 
  45   1.0000      -2.296216       -62.4832 
  46   1.0000      -2.295888       -62.4743 
  47   1.0000      -2.295553       -62.4652 
  48   1.0000      -2.294744       -62.4432 
  49   1.0000      -2.294478       -62.4359 
  50   1.0000      -2.293446       -62.4078 
  51   1.0000      -2.292446       -62.3806 
  52   1.0000      -2.289177       -62.2917 
  53   1.0000      -2.288343       -62.2690 
  54   1.0000      -2.119379       -57.6712 
  55   1.0000      -2.109035       -57.3898 
  56   1.0000      -2.104917       -57.2777 
  57   1.0000      -0.427954       -11.6452 
  58   1.0000      -0.389989       -10.6121 
  59   1.0000      -0.388124       -10.5614 
  60   1.0000      -0.381622       -10.3845 
  61   1.0000      -0.376108       -10.2344 
  62   1.0000      -0.373220       -10.1558 
  63   1.0000      -0.363813        -9.8999 
  64   1.0000      -0.361184        -9.8283 
  65   1.0000      -0.359059        -9.7705 
  66   1.0000      -0.357504        -9.7282 
  67   1.0000      -0.353562        -9.6209 
  68   1.0000      -0.351931        -9.5765 
  69   1.0000      -0.348422        -9.4810 
  70   1.0000      -0.346629        -9.4322 
  71   1.0000      -0.345198        -9.3933 
  72   1.0000      -0.343005        -9.3337 
  73   1.0000      -0.339064        -9.2264 
  74   1.0000      -0.337044        -9.1714 
  75   1.0000      -0.335644        -9.1333 
  76   1.0000      -0.334962        -9.1148 
  77   1.0000      -0.331771        -9.0280 
  78   1.0000      -0.328512        -8.9393 
  79   1.0000      -0.324549        -8.8314 
  80   1.0000      -0.323085        -8.7916 
  81   1.0000      -0.321026        -8.7356 
  82   1.0000      -0.316520        -8.6129 
  83   1.0000      -0.316269        -8.6061 
  84   1.0000      -0.312537        -8.5046 
  85   1.0000      -0.308520        -8.3953 
  86   1.0000      -0.306194        -8.3320 
  87   1.0000      -0.301916        -8.2156 
  88   1.0000      -0.300871        -8.1871 
  89   1.0000      -0.298963        -8.1352 
  90   1.0000      -0.297223        -8.0879 
  91   1.0000      -0.293837        -7.9957 
  92   1.0000      -0.292164        -7.9502 
  93   1.0000      -0.289987        -7.8910 
  94   1.0000      -0.287568        -7.8251 
  95   1.0000      -0.286950        -7.8083 
  96   1.0000      -0.284703        -7.7472 
  97   1.0000      -0.282808        -7.6956 
  98   1.0000      -0.280100        -7.6219 
  99   1.0000      -0.279194        -7.5973 
 100   1.0000      -0.275421        -7.4946 
 101   1.0000      -0.274901        -7.4804 
 102   1.0000      -0.272389        -7.4121 
 103   1.0000      -0.271623        -7.3912 
 104   1.0000      -0.270834        -7.3698 
 105   1.0000      -0.267167        -7.2700 
 106   1.0000      -0.265090        -7.2135 
 107   1.0000      -0.263867        -7.1802 
 108   1.0000      -0.262875        -7.1532 
 109   1.0000      -0.261751        -7.1226 
 110   1.0000      -0.260438        -7.0869 
 111   1.0000      -0.259291        -7.0557 
 112   1.0000      -0.257832        -7.0160 
 113   1.0000      -0.256180        -6.9710 
 114   1.0000      -0.255211        -6.9446 
 115   1.0000      -0.253598        -6.9008 
 116   1.0000      -0.252411        -6.8684 
 117   1.0000      -0.248969        -6.7748 
 118   1.0000      -0.247033        -6.7221 
 119   1.0000      -0.243539        -6.6270 
 120   1.0000      -0.234197        -6.3728 
 121   1.0000      -0.221582        -6.0296 
 122   1.0000      -0.205297        -5.5864 
 123   1.0000      -0.203726        -5.5437 
 124   1.0000      -0.184025        -5.0076 
 125   0.0000      -0.177979        -4.8431 
 126   0.0000      -0.157149        -4.2763 
 127   0.0000      -0.151127        -4.1124 
 128   0.0000      -0.138437        -3.7671 
 129   0.0000      -0.132858        -3.6152 
 130   0.0000      -0.129172        -3.5150 
 131   0.0000      -0.118155        -3.2152 
 132   0.0000      -0.114953        -3.1280 
 133   0.0000      -0.101642        -2.7658 
 134   0.0000      -0.097500        -2.6531 
 135   0.0000      -0.062221        -1.6931 
 136   0.0000      -0.051296        -1.3958 
 137   0.0000      -0.049828        -1.3559 
 138   0.0000      -0.047426        -1.2905 
 139   0.0000      -0.034521        -0.9394 
 140   0.0000      -0.031416        -0.8549 
 141   0.0000      -0.025825        -0.7027 
 142   0.0000      -0.017912        -0.4874 
 143   0.0000      -0.006582        -0.1791 
 144   0.0000       0.016915         0.4603 
 145   0.0000       0.022975         0.6252 
 146   0.0000       0.028453         0.7742 
 147   0.0000       0.046169         1.2563 
 148   0.0000       0.050424         1.3721 
 149   0.0000       0.055543         1.5114 
 150   0.0000       0.056598         1.5401 
 151   0.0000       0.062112         1.6902 
 152   0.0000       0.064858         1.7649 
 153   0.0000       0.065943         1.7944 
 154   0.0000       0.067746         1.8435 
 155   0.0000       0.069927         1.9028 
 156   0.0000       0.070918         1.9298 
 157   0.0000       0.083908         2.2833 
 158   0.0000       0.086170         2.3448 
 159   0.0000       0.087660         2.3853 
 160   0.0000       0.096132         2.6159 
 161   0.0000       0.108097         2.9415 
 162   0.0000       0.111308         3.0289 
 163   0.0000       0.115181         3.1342 
 164   0.0000       0.117695         3.2026 
 165   0.0000       0.138543         3.7699 
 166   0.0000       0.144043         3.9196 
 167   0.0000       0.151823         4.1313 
 168   0.0000       0.156936         4.2704 
 169   0.0000       0.159430         4.3383 
 170   0.0000       0.162655         4.4261 
[...]
LOEWDIN REDUCED ORBITAL CHARGES AND SPIN POPULATIONS
----------------------------------------------------
CHARGE
  0 Aus       :     2.702088  s :     2.702088
      pz      :     2.118482  p :     6.386299
      px      :     2.129344
      py      :     2.138473
      dz2     :     1.982461  d :     9.894796
      dxz     :     1.985367
      dyz     :     1.983880
      dx2y2   :     1.980437
      dxy     :     1.962651
      f0      :     0.000788  f :     0.004433
      f+1     :     0.000489
      f-1     :     0.000640
      f+2     :     0.000620
      f-2     :     0.000618
      f+3     :     0.000800
      f-3     :     0.000479
  1 Aus       :     2.612577  s :     2.612577
      pz      :     2.187981  p :     6.406133
      px      :     2.101805
      py      :     2.116347
      dz2     :     1.979745  d :     9.871692
      dxz     :     1.970496
      dyz     :     1.966428
      dx2y2   :     1.977953
      dxy     :     1.977070
      f0      :     0.000788  f :     0.005094
      f+1     :     0.000788
      f-1     :     0.000777
      f+2     :     0.000698
      f-2     :     0.000722
      f+3     :     0.000809
      f-3     :     0.000511
  2 Aus       :     2.596431  s :     2.596431
      pz      :     2.222642  p :     6.471594
      px      :     2.148150
      py      :     2.100802
      dz2     :     1.963748  d :     9.897365
      dxz     :     1.985874
      dyz     :     1.997073
      dx2y2   :     1.974023
      dxy     :     1.976648
      f0      :     0.001040  f :     0.005416
      f+1     :     0.000617
      f-1     :     0.001049
      f+2     :     0.000604
      f-2     :     0.000728
      f+3     :     0.000763
      f-3     :     0.000614
  3 Aus       :     2.554267  s :     2.554267
      pz      :     2.148465  p :     6.437940
      px      :     2.098056
      py      :     2.191420
      dz2     :     1.981342  d :     9.910831
      dxz     :     1.984075
      dyz     :     1.985909
      dx2y2   :     1.970113
      dxy     :     1.989392
      f0      :     0.000958  f :     0.006369
      f+1     :     0.000722
      f-1     :     0.000961
      f+2     :     0.000851
      f-2     :     0.000892
      f+3     :     0.001107
      f-3     :     0.000878
  4 Aus       :     2.543669  s :     2.543669
      pz      :     2.124524  p :     6.486154
      px      :     2.211440
      py      :     2.150189
      dz2     :     1.977449  d :     9.897503
      dxz     :     1.994675
      dyz     :     1.965325
      dx2y2   :     1.972036
      dxy     :     1.988018
      f0      :     0.000872  f :     0.005891
      f+1     :     0.000750
      f-1     :     0.000884
      f+2     :     0.000886
      f-2     :     0.000785
      f+3     :     0.000972
      f-3     :     0.000741
  5 Aus       :     2.562931  s :     2.562931
      pz      :     2.207460  p :     6.499388
      px      :     2.128612
      py      :     2.163315
      dz2     :     1.993436  d :     9.890971
      dxz     :     1.954709
      dyz     :     1.972879
      dx2y2   :     1.976623
      dxy     :     1.993324
      f0      :     0.000912  f :     0.005850
      f+1     :     0.000734
      f-1     :     0.001159
      f+2     :     0.000972
      f-2     :     0.000808
      f+3     :     0.000799
      f-3     :     0.000465
  6 Aus       :     2.534909  s :     2.534909
      pz      :     2.159529  p :     6.540786
      px      :     2.179952
      py      :     2.201305
      dz2     :     1.976306  d :     9.904855
      dxz     :     1.995957
      dyz     :     1.981225
      dx2y2   :     1.993504
      dxy     :     1.957862
      f0      :     0.000713  f :     0.006314
      f+1     :     0.000488
      f-1     :     0.001059
      f+2     :     0.000933
      f-2     :     0.000988
      f+3     :     0.001083
      f-3     :     0.001051
  7 Aus       :     2.632514  s :     2.632514
      pz      :     2.116599  p :     6.538810
      px      :     2.121694
      py      :     2.300517
      dz2     :     1.959250  d :     9.856791
      dxz     :     1.981139
      dyz     :     1.967656
      dx2y2   :     1.981860
      dxy     :     1.966886
      f0      :     0.000715  f :     0.005917
      f+1     :     0.000363
      f-1     :     0.001093
      f+2     :     0.000715
      f-2     :     0.000718
      f+3     :     0.001353
      f-3     :     0.000961
  8 Aus       :     2.760595  s :     2.760595
      pz      :     2.103571  p :     6.254143
      px      :     2.062659
      py      :     2.087913
      dz2     :     1.976404  d :     9.881031
      dxz     :     1.973913
      dyz     :     1.982423
      dx2y2   :     1.977441
      dxy     :     1.970850
      f0      :     0.000568  f :     0.004514
      f+1     :     0.000390
      f-1     :     0.000863
      f+2     :     0.000546
      f-2     :     0.000710
      f+3     :     0.000726
      f-3     :     0.000711
  9 Aus       :     2.624301  s :     2.624301
      pz      :     2.237157  p :     6.468169
      px      :     2.094885
      py      :     2.136127
      dz2     :     1.973295  d :     9.866624
      dxz     :     1.990607
      dyz     :     1.953915
      dx2y2   :     1.968408
      dxy     :     1.980398
      f0      :     0.000767  f :     0.005576
      f+1     :     0.000510
      f-1     :     0.001421
      f+2     :     0.001077
      f-2     :     0.000712
      f+3     :     0.000556
      f-3     :     0.000533
 10 Aus       :     2.591033  s :     2.591033
      pz      :     2.108141  p :     6.479560
      px      :     2.148657
      py      :     2.222762
      dz2     :     1.960474  d :     9.865653
      dxz     :     1.976719
      dyz     :     1.955880
      dx2y2   :     1.984134
      dxy     :     1.988446
      f0      :     0.000802  f :     0.005667
      f+1     :     0.000555
      f-1     :     0.001136
      f+2     :     0.001036
      f-2     :     0.000658
      f+3     :     0.000945
      f-3     :     0.000534
 11 Aus       :     2.616452  s :     2.616452
      pz      :     2.179440  p :     6.446116
      px      :     2.154151
      py      :     2.112525
      dz2     :     1.974571  d :     9.878622
      dxz     :     1.967991
      dyz     :     1.973046
      dx2y2   :     1.995534
      dxy     :     1.967480
      f0      :     0.000881  f :     0.005247
      f+1     :     0.000787
      f-1     :     0.000823
      f+2     :     0.000968
      f-2     :     0.000666
      f+3     :     0.000678
      f-3     :     0.000444
 12 Fes       :     6.281496  s :     6.281496
      pz      :     4.198611  p :    12.589597
      px      :     4.194876
      py      :     4.196109
      dz2     :     1.505005  d :     7.698477
      dxz     :     1.537252
      dyz     :     1.503814
      dx2y2   :     1.536078
      dxy     :     1.616328
      f0      :     0.000083  f :     0.000552
      f+1     :     0.000065
      f-1     :     0.000093
      f+2     :     0.000078
      f-2     :     0.000076
      f+3     :     0.000087
      f-3     :     0.000070

SPIN
  0 Aus       :     0.030562  s :     0.030562
      pz      :     0.002537  p :    -0.028846
      px      :    -0.031552
      py      :     0.000169
      dz2     :    -0.003067  d :    -0.025331
      dxz     :    -0.006407
      dyz     :     0.000758
      dx2y2   :    -0.005494
      dxy     :    -0.011121
      f0      :    -0.000004  f :    -0.000087
      f+1     :    -0.000004
      f-1     :    -0.000003
      f+2     :    -0.000033
      f-2     :    -0.000003
      f+3     :    -0.000035
      f-3     :    -0.000007
  1 Aus       :    -0.088393  s :    -0.088393
      pz      :    -0.008462  p :    -0.036683
      px      :    -0.017922
      py      :    -0.010299
      dz2     :    -0.008844  d :    -0.007000
      dxz     :     0.006085
      dyz     :    -0.000033
      dx2y2   :    -0.004063
      dxy     :    -0.000145
      f0      :     0.000008  f :     0.000104
      f+1     :     0.000003
      f-1     :     0.000011
      f+2     :     0.000039
      f-2     :     0.000063
      f+3     :    -0.000045
      f-3     :     0.000026
  2 Aus       :    -0.039557  s :    -0.039557
      pz      :    -0.014595  p :    -0.029114
      px      :    -0.016847
      py      :     0.002329
      dz2     :    -0.011791  d :    -0.011340
      dxz     :    -0.009093
      dyz     :    -0.000441
      dx2y2   :     0.005174
      dxy     :     0.004812
      f0      :     0.000038  f :    -0.000002
      f+1     :    -0.000014
      f-1     :    -0.000010
      f+2     :    -0.000028
      f-2     :    -0.000026
      f+3     :     0.000038
      f-3     :    -0.000000
  3 Aus       :    -0.018413  s :    -0.018413
      pz      :    -0.040783  p :    -0.100299
      px      :    -0.006065
      py      :    -0.053451
      dz2     :    -0.001695  d :    -0.018630
      dxz     :    -0.005538
      dyz     :    -0.003069
      dx2y2   :     0.000547
      dxy     :    -0.008874
      f0      :    -0.000027  f :    -0.000204
      f+1     :    -0.000019
      f-1     :    -0.000080
      f+2     :    -0.000032
      f-2     :    -0.000021
      f+3     :    -0.000002
      f-3     :    -0.000024
  4 Aus       :    -0.073500  s :    -0.073500
      pz      :    -0.001072  p :    -0.035497
      px      :    -0.025158
      py      :    -0.009267
      dz2     :     0.003452  d :    -0.008039
      dxz     :    -0.007628
      dyz     :     0.002454
      dx2y2   :    -0.001781
      dxy     :    -0.004536
      f0      :    -0.000005  f :    -0.000017
      f+1     :    -0.000028
      f-1     :     0.000082
      f+2     :     0.000002
      f-2     :    -0.000027
      f+3     :    -0.000034
      f-3     :    -0.000007
  5 Aus       :    -0.056555  s :    -0.056555
      pz      :    -0.002801  p :    -0.027010
      px      :    -0.015675
      py      :    -0.008534
      dz2     :    -0.003947  d :    -0.007301
      dxz     :     0.006490
      dyz     :    -0.011235
      dx2y2   :     0.001400
      dxy     :    -0.000009
      f0      :    -0.000003  f :     0.000041
      f+1     :     0.000032
      f-1     :    -0.000042
      f+2     :     0.000036
      f-2     :     0.000010
      f+3     :     0.000012
      f-3     :    -0.000004
  6 Aus       :    -0.064421  s :    -0.064421
      pz      :    -0.017624  p :    -0.036425
      px      :    -0.021402
      py      :     0.002601
      dz2     :     0.000514  d :     0.000547
      dxz     :    -0.002298
      dyz     :    -0.007787
      dx2y2   :     0.000593
      dxy     :     0.009525
      f0      :    -0.000012  f :     0.000007
      f+1     :     0.000009
      f-1     :    -0.000023
      f+2     :    -0.000020
      f-2     :     0.000015
      f+3     :     0.000037
      f-3     :     0.000002
  7 Aus       :     0.023701  s :     0.023701
      pz      :     0.005995  p :    -0.013647
      px      :    -0.023203
      py      :     0.003560
      dz2     :     0.014278  d :     0.008375
      dxz     :     0.005199
      dyz     :     0.004567
      dx2y2   :    -0.000835
      dxy     :    -0.014834
      f0      :     0.000018  f :     0.000070
      f+1     :     0.000030
      f-1     :     0.000044
      f+2     :     0.000005
      f-2     :     0.000012
      f+3     :    -0.000037
      f-3     :    -0.000001
  8 Aus       :     0.032376  s :     0.032376
      pz      :     0.003860  p :    -0.011818
      px      :    -0.017940
      py      :     0.002262
      dz2     :    -0.007616  d :    -0.022375
      dxz     :    -0.004434
      dyz     :    -0.000840
      dx2y2   :    -0.000447
      dxy     :    -0.009038
      f0      :    -0.000015  f :    -0.000112
      f+1     :    -0.000003
      f-1     :    -0.000030
      f+2     :    -0.000002
      f-2     :    -0.000025
      f+3     :    -0.000021
      f-3     :    -0.000017
  9 Aus       :    -0.058223  s :    -0.058223
      pz      :    -0.015333  p :    -0.025995
      px      :    -0.016461
      py      :     0.005799
      dz2     :    -0.002433  d :     0.004419
      dxz     :    -0.005596
      dyz     :     0.006025
      dx2y2   :     0.001865
      dxy     :     0.004558
      f0      :     0.000013  f :     0.000090
      f+1     :    -0.000008
      f-1     :     0.000036
      f+2     :    -0.000013
      f-2     :     0.000018
      f+3     :     0.000033
      f-3     :     0.000012
 10 Aus       :    -0.071231  s :    -0.071231
      pz      :     0.001154  p :    -0.044070
      px      :    -0.020304
      py      :    -0.024920
      dz2     :     0.012788  d :    -0.001967
      dxz     :     0.003518
      dyz     :    -0.004045
      dx2y2   :    -0.005820
      dxy     :    -0.008409
      f0      :     0.000094  f :     0.000148
      f+1     :     0.000051
      f-1     :     0.000022
      f+2     :     0.000001
      f-2     :     0.000000
      f+3     :    -0.000014
      f-3     :    -0.000006
 11 Aus       :    -0.078586  s :    -0.078586
      pz      :    -0.025136  p :    -0.051816
      px      :    -0.022467
      py      :    -0.004214
      dz2     :    -0.001437  d :    -0.003684
      dxz     :    -0.000992
      dyz     :    -0.003575
      dx2y2   :    -0.003311
      dxy     :     0.005632
      f0      :     0.000016  f :     0.000037
      f+1     :    -0.000009
      f-1     :    -0.000036
      f+2     :     0.000001
      f-2     :     0.000039
      f+3     :     0.000004
      f-3     :     0.000020
 12 Fes       :     0.013334  s :     0.013334
      pz      :     0.005284  p :     0.013810
      px      :     0.003498
      py      :     0.005028
      dz2     :     0.692456  d :     2.968550
      dxz     :     0.590879
      dyz     :     0.657041
      dx2y2   :     0.586196
      dxy     :     0.441978
      f0      :     0.000007  f :     0.000018
      f+1     :     0.000001
      f-1     :     0.000005
      f+2     :     0.000005
      f-2     :    -0.000000
      f+3     :    -0.000001
      f-3     :     0.000000


                      *****************************
                      * MAYER POPULATION ANALYSIS *
                      *****************************

  NA   - Mulliken gross atomic population
  ZA   - Total nuclear charge
  QA   - Mulliken gross atomic charge
  VA   - Mayer's total valence
  BVA  - Mayer's bonded valence
  FA   - Mayer's free valence

  ATOM       NA         ZA         QA         VA         BVA        FA
  0 Au    18.7914    19.0000     0.2086     1.4634     1.4588     0.0046
  1 Au    18.7456    19.0000     0.2544     1.4916     1.4582     0.0335
  2 Au    18.9426    19.0000     0.0574     1.6508     1.6387     0.0121
  3 Au    18.7785    19.0000     0.2215     1.5572     1.5512     0.0060
  4 Au    18.7405    19.0000     0.2595     1.5711     1.5438     0.0273
  5 Au    18.8957    19.0000     0.1043     1.6786     1.6610     0.0176
  6 Au    18.9097    19.0000     0.0903     1.7403     1.7137     0.0266
  7 Au    18.9781    19.0000     0.0219     1.6748     1.6642     0.0106
  8 Au    18.6746    19.0000     0.3254     1.3966     1.3925     0.0040
  9 Au    18.9520    19.0000     0.0480     1.7227     1.7053     0.0174
 10 Au    18.7845    19.0000     0.2155     1.6547     1.6309     0.0239
 11 Au    18.8257    19.0000     0.1743     1.5547     1.5243     0.0304
 12 Fe    27.9813    26.0000    -1.9813     7.6822     5.2417     2.4405

  Mayer bond orders larger than 0.100000
B(  0-Au,  2-Au) :   0.2254 B(  0-Au,  5-Au) :   0.3369 B(  0-Au, 10-Au) :   0.2519 
B(  0-Au, 11-Au) :   0.1833 B(  0-Au, 12-Fe) :   0.1813 B(  1-Au,  4-Au) :   0.1734 
B(  1-Au,  7-Au) :   0.2311 B(  1-Au, 11-Au) :   0.2686 B(  1-Au, 12-Fe) :   0.5437 
B(  2-Au,  3-Au) :   0.2287 B(  2-Au,  4-Au) :   0.1914 B(  2-Au, 11-Au) :   0.2646 
B(  2-Au, 12-Fe) :   0.5014 B(  3-Au,  4-Au) :   0.2489 B(  3-Au,  5-Au) :   0.1840 
B(  3-Au,  6-Au) :   0.2981 B(  3-Au, 12-Fe) :   0.4042 B(  4-Au,  7-Au) :   0.2781 
B(  4-Au, 12-Fe) :   0.4875 B(  5-Au,  6-Au) :   0.2092 B(  5-Au, 10-Au) :   0.1520 
B(  5-Au, 12-Fe) :   0.5531 B(  6-Au,  8-Au) :   0.3459 B(  6-Au,  9-Au) :   0.1974 
B(  6-Au, 12-Fe) :   0.4287 B(  7-Au,  8-Au) :   0.3725 B(  7-Au, 12-Fe) :   0.4444 
B(  8-Au,  9-Au) :   0.3196 B(  9-Au, 10-Au) :   0.3779 B(  9-Au, 12-Fe) :   0.5432 
B( 10-Au, 12-Fe) :   0.5556 B( 11-Au, 12-Fe) :   0.5205 

-------
TIMINGS
-------

Total SCF time: 0 days 0 hours 4 min 45 sec 

Total time                  ....     285.990 sec
Sum of individual times     ....     282.843 sec  ( 98.9%)

Fock matrix formation       ....     267.617 sec  ( 93.6%)
  Split-RI-J                ....      52.500 sec  ( 19.6% of F)
  XC integration            ....     213.726 sec  ( 79.9% of F)
    Basis function eval.    ....      13.248 sec  (  6.2% of XC)
    Density eval.           ....     108.634 sec  ( 50.8% of XC)
    XC-Functional eval.     ....       7.381 sec  (  3.5% of XC)
    XC-Potential eval.      ....      79.259 sec  ( 37.1% of XC)
Diagonalization             ....      11.739 sec  (  4.1%)
Density matrix formation    ....       0.447 sec  (  0.2%)
Population analysis         ....       0.204 sec  (  0.1%)
Initial guess               ....       0.455 sec  (  0.2%)
Orbital Transformation      ....       0.000 sec  (  0.0%)
Orbital Orthonormalization  ....       0.405 sec  (  0.1%)
DIIS solution               ....       0.000 sec  (  0.0%)
Grid generation             ....       2.382 sec  (  0.8%)

Maximum memory used throughout the entire SCF-calculation: 83.6 MB

-------------------------   --------------------
FINAL SINGLE POINT ENERGY     -2893.831171888391
-------------------------   --------------------


                            ***************************************
                            *     ORCA property calculations      *
                            ***************************************

                                    ---------------------
                                    Active property flags
                                    ---------------------
   (+) Dipole Moment


------------------------------------------------------------------------------
                       ORCA ELECTRIC PROPERTIES CALCULATION
------------------------------------------------------------------------------

Dipole Moment Calculation                       ... on
Quadrupole Moment Calculation                   ... off
Polarizability Calculation                      ... off
GBWName                                         ... scan_job2.gbw
Electron density                                ... scan_job2.scfp
The origin for moment calculation is the CENTER OF MASS  = (11.624314, 14.834277 13.133134)

-------------
DIPOLE MOMENT
-------------
                                X             Y             Z
Electronic contribution:     -8.95451      -5.52217       2.43769
Nuclear contribution   :      8.75580       5.41869      -2.23150
                        -----------------------------------------
Total Dipole Moment    :     -0.19871      -0.10348       0.20619
                        -----------------------------------------
Magnitude (a.u.)       :      0.30448
Magnitude (Debye)      :      0.77393



--------------------
Rotational spectrum 
--------------------
 
Rotational constants in cm-1:     0.001610     0.001188     0.001102 
Rotational constants in MHz :    48.266877    35.619819    33.022487 

 Dipole components along the rotational axes: 
x,y,z [a.u.] :     0.192322     0.048273    -0.231064 
x,y,z [Debye]:     0.488843     0.122699    -0.587317 

 

Timings for individual modules:

Sum of individual times         ...      302.752 sec (=   5.046 min)
GTO integral calculation        ...       16.313 sec (=   0.272 min)   5.4 %
SCF iterations                  ...      286.439 sec (=   4.774 min)  94.6 %



                             ****ORCA TERMINATED NORMALLY****
TOTAL RUN TIME: 0 days 0 hours 17 minutes 12 seconds 142 msec
