
                                 *****************
                                 * O   R   C   A *
                                 *****************

                                            #,                                       
                                            ###                                      
                                            ####                                     
                                            #####                                    
                                            ######                                   
                                           ########,                                 
                                     ,,################,,,,,                         
                               ,,#################################,,                 
                          ,,##########################################,,             
                       ,#########################################, ''#####,          
                    ,#############################################,,   '####,        
                  ,##################################################,,,,####,       
                ,###########''''           ''''###############################       
              ,#####''   ,,,,##########,,,,          '''####'''          '####       
            ,##' ,,,,###########################,,,                        '##       
           ' ,,###''''                  '''############,,,                           
         ,,##''                                '''############,,,,        ,,,,,,###''
      ,#''                                            '''#######################'''  
     '                                                          ''''####''''         
             ,#######,   #######,   ,#######,      ##                                
            ,#'     '#,  ##    ##  ,#'     '#,    #''#        ######   ,####,        
            ##       ##  ##   ,#'  ##            #'  '#       #        #'  '#        
            ##       ##  #######   ##           ,######,      #####,   #    #        
            '#,     ,#'  ##    ##  '#,     ,#' ,#      #,         ##   #,  ,#        
             '#######'   ##     ##  '#######'  #'      '#     #####' # '####'        



                  #######################################################
                  #                        -***-                        #
                  #          Department of theory and spectroscopy      #
                  #    Directorship and core code : Frank Neese         #
                  #        Max Planck Institute fuer Kohlenforschung    #
                  #                Kaiser Wilhelm Platz 1               #
                  #                 D-45470 Muelheim/Ruhr               #
                  #                      Germany                        #
                  #                                                     #
                  #                  All rights reserved                #
                  #                        -***-                        #
                  #######################################################


                         Program Version 5.0.3 -  RELEASE  -


 With contributions from (in alphabetic order):
   Daniel Aravena         : Magnetic Suceptibility
   Michael Atanasov       : Ab Initio Ligand Field Theory (pilot matlab implementation)
   Alexander A. Auer      : GIAO ZORA, VPT2 properties, NMR spectrum
   Ute Becker             : Parallelization
   Giovanni Bistoni       : ED, misc. LED, open-shell LED, HFLD
   Martin Brehm           : Molecular dynamics
   Dmytro Bykov           : SCF Hessian
   Vijay G. Chilkuri      : MRCI spin determinant printing, contributions to CSF-ICE
   Dipayan Datta          : RHF DLPNO-CCSD density
   Achintya Kumar Dutta   : EOM-CC, STEOM-CC
   Dmitry Ganyushin       : Spin-Orbit,Spin-Spin,Magnetic field MRCI
   Miquel Garcia          : C-PCM and meta-GGA Hessian, CC/C-PCM, Gaussian charge scheme
   Yang Guo               : DLPNO-NEVPT2, F12-NEVPT2, CIM, IAO-localization
   Andreas Hansen         : Spin unrestricted coupled pair/coupled cluster methods
   Benjamin Helmich-Paris : MC-RPA, TRAH-SCF, COSX integrals
   Lee Huntington         : MR-EOM, pCC
   Robert Izsak           : Overlap fitted RIJCOSX, COSX-SCS-MP3, EOM
   Marcus Kettner         : VPT2
   Christian Kollmar      : KDIIS, OOCD, Brueckner-CCSD(T), CCSD density, CASPT2, CASPT2-K
   Simone Kossmann        : Meta GGA functionals, TD-DFT gradient, OOMP2, MP2 Hessian
   Martin Krupicka        : Initial AUTO-CI
   Lucas Lang             : DCDCAS
   Marvin Lechner         : AUTO-CI (C++ implementation), FIC-MRCC
   Dagmar Lenk            : GEPOL surface, SMD
   Dimitrios Liakos       : Extrapolation schemes; Compound Job, initial MDCI parallelization
   Dimitrios Manganas     : Further ROCIS development; embedding schemes
   Dimitrios Pantazis     : SARC Basis sets
   Anastasios Papadopoulos: AUTO-CI, single reference methods and gradients
   Taras Petrenko         : DFT Hessian,TD-DFT gradient, ASA, ECA, R-Raman, ABS, FL, XAS/XES, NRVS
   Peter Pinski           : DLPNO-MP2, DLPNO-MP2 Gradient
   Christoph Reimann      : Effective Core Potentials
   Marius Retegan         : Local ZFS, SOC
   Christoph Riplinger    : Optimizer, TS searches, QM/MM, DLPNO-CCSD(T), (RO)-DLPNO pert. Triples
   Tobias Risthaus        : Range-separated hybrids, TD-DFT gradient, RPA, STAB
   Michael Roemelt        : Original ROCIS implementation
   Masaaki Saitow         : Open-shell DLPNO-CCSD energy and density
   Barbara Sandhoefer     : DKH picture change effects
   Avijit Sen             : IP-ROCIS
   Kantharuban Sivalingam : CASSCF convergence, NEVPT2, FIC-MRCI
   Bernardo de Souza      : ESD, SOC TD-DFT
   Georgi Stoychev        : AutoAux, RI-MP2 NMR, DLPNO-MP2 response
   Willem Van den Heuvel  : Paramagnetic NMR
   Boris Wezisla          : Elementary symmetry handling
   Frank Wennmohs         : Technical directorship


 We gratefully acknowledge several colleagues who have allowed us to
 interface, adapt or use parts of their codes:
   Stefan Grimme, W. Hujo, H. Kruse, P. Pracht,  : VdW corrections, initial TS optimization,
                  C. Bannwarth, S. Ehlert          DFT functionals, gCP, sTDA/sTD-DF
   Ed Valeev, F. Pavosevic, A. Kumar             : LibInt (2-el integral package), F12 methods
   Garnet Chan, S. Sharma, J. Yang, R. Olivares  : DMRG
   Ulf Ekstrom                                   : XCFun DFT Library
   Mihaly Kallay                                 : mrcc  (arbitrary order and MRCC methods)
   Jiri Pittner, Ondrej Demel                    : Mk-CCSD
   Frank Weinhold                                : gennbo (NPA and NBO analysis)
   Christopher J. Cramer and Donald G. Truhlar   : smd solvation model
   Lars Goerigk                                  : TD-DFT with DH, B97 family of functionals
   V. Asgeirsson, H. Jonsson                     : NEB implementation
   FAccTs GmbH                                   : IRC, NEB, NEB-TS, DLPNO-Multilevel, CI-OPT
                                                   MM, QMMM, 2- and 3-layer-ONIOM, Crystal-QMMM,
                                                   LR-CPCM, SF, NACMEs, symmetry and pop. for TD-DFT,
                                                   nearIR, NL-DFT gradient (VV10), updates on ESD,
                                                   ML-optimized integration grids
   S Lehtola, MJT Oliveira, MAL Marques          : LibXC Library
   Liviu Ungur et al                             : ANISO software


 Your calculation uses the libint2 library for the computation of 2-el integrals
 For citations please refer to: http://libint.valeyev.net

 Your ORCA version has been built with support for libXC version: 5.1.0
 For citations please refer to: https://tddft.org/programs/libxc/

 This ORCA versions uses:
   CBLAS   interface :  Fast vector & matrix operations
   LAPACKE interface :  Fast linear algebra routines
   SCALAPACK package :  Parallel linear algebra routines
   Shared memory     :  Shared parallel matrices
   BLAS/LAPACK       :  OpenBLAS 0.3.15  USE64BITINT DYNAMIC_ARCH NO_AFFINITY Sandybridge SINGLE_THREADED
        Core in use  :  Sandybridge
   Copyright (c) 2011-2014, The OpenBLAS Project




***************************************
The coordinates will be read from file: pbe.xyz
***************************************


================================================================================

cite the ECPs for Au [Def2-ECP] as follows:
Ce-Yb(ecp-28): M. Dolg, H. Stoll, H.Preuss, J. Chem. Phys., 1989, 90, 1730-1734.
Y-Cd(ecp-28), Hf-Hg(ecp-46): D. Andrae,U. Haeussermann, M. Dolg, H. Stoll, H. Preuss, Theor. Chim. Acta, 1990, 77, 123-141.
In-Sb(ecp-28), Tl-Bi(ecp-46): B. Metz, H. Stoll, M. Dolg, J. Chem. Phys., 2000, 113, 2563-2569.
Te-Xe(ecp-28), Po-Rn(ecp-46): K. A. Peterson, D. Figgen, E. Goll, H. Stoll, M. Dolg, J. Chem. Phys., 2003, 119, 11113-11123.
Rb(ecp-28), Cs(ecp-46): T. Leininger, A. Nicklass, W. Kuechle, H. Stoll, M. Dolg, A. Bergner, Chem. Phys. Lett., 1996, 255, 274-280.
Sr(ecp-28), Ba(ecp-46): M. Kaupp, P. V. Schleyer, H. Stoll and H. Preuss, J. Chem. Phys., 1991, 94, 1360-1366.
La(ecp-46): M. Dolg, H. Stoll, A. Savin, H. Preuss, Theor. Chim. Acta, 1989, 75, 173-194.
Lu(ecp-28): X. Cao, M. Dolg, J. Chem. Phys., 2001, 115, 7348-7355.

ECP parameters for Au [Def2-ECP] have been obtained from:
TURBOMOLE (7.0.2)

----- Orbital basis set information -----
Your calculation utilizes the basis: def2-TZVP
   F. Weigend and R. Ahlrichs, Phys. Chem. Chem. Phys. 7, 3297 (2005).

----- AuxJ basis set information -----
Your calculation utilizes the auxiliary basis: def2/J
   F. Weigend, Phys. Chem. Chem. Phys. 8, 1057 (2006).

----- AuxC basis set information -----
Your calculation utilizes the auxiliary basis: def2-TZVP/C
  H-La, Hf-Rn : A. Hellweg, C. Hattig, S. Hofener and W. Klopper, Theor. Chem. Acc. 117, 587 (2007).
        Ce-Lu : J. Chmela and M. E. Harding, Mol. Phys. (2018).

================================================================================
                                        WARNINGS
                       Please study these warnings very carefully!
================================================================================


IMPORTANT NOTE: CASSCF must signal convergence for a subsequent CASPT2/NEVPT2! 
                Set maxiter=1 to run CASPT2/NEVPT2 with arbitrary orbitals.


INFO   : the flag for use of the SHARK integral package has been found!

================================================================================
                                       INPUT FILE
================================================================================
NAME = nevpt2.inp
|  1> !SC-NEVPT2 def2-TZVP def2-TZVP/C
|  2> !MOREAD RIJCOSX def2/J
|  3> %maxcore 4000
|  4> %moinp "casscf.gbw"
|  5> %pal nprocs 6 end 
|  6> 
|  7> %casscf
|  8>  mult 6,4
|  9>  bweight 1,1
| 10>  nroots 1,24
| 11>  nel 5
| 12>  norb 5
| 13>  ptsettings
| 14>   d4tpre 1e-14 # default = 1e-10
| 15>   d3tpre 1e-14
| 16>  end
| 17>  rel           
| 18>    dosoc true   
| 19>    gtensor true 
| 20>  end           
| 21> end
| 22> 
| 23> 
| 24> *xyzfile 0 6 pbe.xyz
| 25> 
| 26> 
| 27>                          ****END OF INPUT****
================================================================================

                       ****************************
                       * Single Point Calculation *
                       ****************************

---------------------------------
CARTESIAN COORDINATES (ANGSTROEM)
---------------------------------
  Au     7.405617    5.697053    5.831257
  Au     7.625696    8.325093    6.799858
  Au     8.050550    5.137461   10.495800
  Au     8.077472    4.011553    8.115388
  Au     6.972625    3.066703    5.741064
  Au     5.305213    4.498749    7.448909
  Au     8.148002    7.659396    4.254384
  Au     4.638091    5.742551    9.670412
  Au     6.349767    7.169350   11.325109
  Au     7.109911    8.904426    9.319408
  Mn     6.891586    6.441369    8.561504

----------------------------
CARTESIAN COORDINATES (A.U.)
----------------------------
  NO LB      ZA    FRAG     MASS         X           Y           Z
   0 Au   19.0000*   0   196.966   13.994589   10.765869   11.019479
   1 Au   19.0000*   0   196.966   14.410478   15.732146   12.849870
   2 Au   19.0000*   0   196.966   15.213334    9.708395   19.834188
   3 Au   19.0000*   0   196.966   15.264210    7.580736   15.335860
   4 Au   19.0000*   0   196.966   13.176352    5.795228   10.849038
   5 Au   19.0000*   0   196.966   10.025400    8.501403   14.076397
   6 Au   19.0000*   0   196.966   15.397493   14.474161    8.039621
   7 Au   19.0000*   0   196.966    8.764721   10.851848   18.274431
   8 Au   19.0000*   0   196.966   11.999320   13.548108   21.401355
   9 Au   19.0000*   0   196.966   13.435785   16.826927   17.611128
  10 Mn   25.0000    0    54.940   13.023210   12.172424   16.178898
* core charge reduced due to ECP

--------------------------------
INTERNAL COORDINATES (ANGSTROEM)
--------------------------------
 Au     0   0   0     0.000000000000     0.00000000     0.00000000
 Au     1   0   0     2.809487400784     0.00000000     0.00000000
 Au     1   2   0     4.742050704704    76.14918631     0.00000000
 Au     3   1   2     2.633392938694    33.14232492   195.97294543
 Au     1   2   3     2.667275434305   161.23410260    22.91374425
 Au     5   1   2     2.783478656491    64.47779286    34.96662849
 Au     1   2   3     2.624586863626    59.04185531   203.44040157
 Au     6   5   1     2.631952521481   155.90239747   279.39056365
 Au     8   6   5     2.775538281439   126.14412173    32.66009676
 Au     2   1   3     2.636245473029   121.31466275   336.93017350
 Mn    10   2   1     2.586258389592    61.78054348     0.59278768

---------------------------
INTERNAL COORDINATES (A.U.)
---------------------------
 Au     0   0   0     0.000000000000     0.00000000     0.00000000
 Au     1   0   0     5.309161764184     0.00000000     0.00000000
 Au     1   2   0     8.961177145058    76.14918631     0.00000000
 Au     3   1   2     4.976391457134    33.14232492   195.97294543
 Au     1   2   3     5.040420094572   161.23410260    22.91374425
 Au     5   1   2     5.260012360384    64.47779286    34.96662849
 Au     1   2   3     4.959750386941    59.04185531   203.44040157
 Au     6   5   1     4.973669463083   155.90239747   279.39056365
 Au     8   6   5     5.245007226135   126.14412173    32.66009676
 Au     2   1   3     4.981781965815   121.31466275   336.93017350
 Mn    10   2   1     4.887320067886    61.78054348     0.59278768

---------------------
BASIS SET INFORMATION
---------------------
There are 2 groups of distinct atoms

 Group   1 Type Au  : 8s7p6d1f contracted to 6s4p3d1f pattern {311111/4111/411/1}
 Group   2 Type Mn  : 17s11p7d1f contracted to 6s4p4d1f pattern {842111/6311/4111/1}

Atom   0Au   basis set group =>   1
Atom   1Au   basis set group =>   1
Atom   2Au   basis set group =>   1
Atom   3Au   basis set group =>   1
Atom   4Au   basis set group =>   1
Atom   5Au   basis set group =>   1
Atom   6Au   basis set group =>   1
Atom   7Au   basis set group =>   1
Atom   8Au   basis set group =>   1
Atom   9Au   basis set group =>   1
Atom  10Mn   basis set group =>   2
---------------------------------
AUXILIARY/J BASIS SET INFORMATION
---------------------------------
There are 2 groups of distinct atoms

 Group   1 Type Au  : 11s5p5d3f3g contracted to 8s5p5d2f3g pattern {41111111/11111/11111/21/111}
 Group   2 Type Mn  : 19s5p5d3f3g contracted to 8s5p5d2f3g pattern {121111111/11111/11111/21/111}

Atom   0Au   basis set group =>   1
Atom   1Au   basis set group =>   1
Atom   2Au   basis set group =>   1
Atom   3Au   basis set group =>   1
Atom   4Au   basis set group =>   1
Atom   5Au   basis set group =>   1
Atom   6Au   basis set group =>   1
Atom   7Au   basis set group =>   1
Atom   8Au   basis set group =>   1
Atom   9Au   basis set group =>   1
Atom  10Mn   basis set group =>   2
---------------------------------
AUXILIARY/C BASIS SET INFORMATION
---------------------------------
There are 2 groups of distinct atoms

 Group   1 Type Au  : 8s8p7d5f3g2h contracted to 8s8p7d5f3g2h pattern {11111111/11111111/1111111/11111/111/11}
 Group   2 Type Mn  : 11s9p8d6f5g2h contracted to 9s8p8d6f5g2h pattern {311111111/21111111/11111111/111111/11111/11}

Atom   0Au   basis set group =>   1
Atom   1Au   basis set group =>   1
Atom   2Au   basis set group =>   1
Atom   3Au   basis set group =>   1
Atom   4Au   basis set group =>   1
Atom   5Au   basis set group =>   1
Atom   6Au   basis set group =>   1
Atom   7Au   basis set group =>   1
Atom   8Au   basis set group =>   1
Atom   9Au   basis set group =>   1
Atom  10Mn   basis set group =>   2
-------------------------
ECP PARAMETER INFORMATION
-------------------------

 Group 1, Type Au ECP Def2-ECP (replacing 60 core electrons, lmax=3)

Atom   0Au   ECP group =>   1
Atom   1Au   ECP group =>   1
Atom   2Au   ECP group =>   1
Atom   3Au   ECP group =>   1
Atom   4Au   ECP group =>   1
Atom   5Au   ECP group =>   1
Atom   6Au   ECP group =>   1
Atom   7Au   ECP group =>   1
Atom   8Au   ECP group =>   1
Atom   9Au   ECP group =>   1



           ************************************************************
           *        Program running with 6 parallel MPI-processes     *
           *              working on a common directory               *
           ************************************************************
------------------------------------------------------------------------------
                           ORCA GTO INTEGRAL CALCULATION
                           -- RI-GTO INTEGRALS CHOSEN --
------------------------------------------------------------------------------
------------------------------------------------------------------------------
                   ___                                                        
                  /   \      - P O W E R E D   B Y -                         
                 /     \                                                     
                 |  |  |   _    _      __       _____    __    __             
                 |  |  |  | |  | |    /  \     |  _  \  |  |  /  |          
                  \  \/   | |  | |   /    \    | | | |  |  | /  /          
                 / \  \   | |__| |  /  /\  \   | |_| |  |  |/  /          
                |  |  |   |  __  | /  /__\  \  |    /   |      \           
                |  |  |   | |  | | |   __   |  |    \   |  |\   \          
                \     /   | |  | | |  |  |  |  | |\  \  |  | \   \       
                 \___/    |_|  |_| |__|  |__|  |_| \__\ |__|  \__/        
                                                                              
                      - O R C A' S   B I G   F R I E N D -                    
                                      &                                       
                       - I N T E G R A L  F E E D E R -                       
                                                                              
 v1 FN, 2020, v2 2021                                                         
------------------------------------------------------------------------------


Reading SHARK input file nevpt2.SHARKINP.tmp ... ok
----------------------
SHARK INTEGRAL PACKAGE
----------------------

Number of atoms                             ...     11
Number of basis functions                   ...    445
Number of shells                            ...    155
Maximum angular momentum                    ...      3
Integral batch strategy                     ... SHARK/LIBINT Hybrid
RI-J (if used) integral strategy            ... SPLIT-RIJ (Revised 2003 algorithm where possible)
Printlevel                                  ...      1
Contraction scheme used                     ... SEGMENTED contraction
Coulomb Range Separation                    ... NOT USED
Exchange Range Separation                   ... NOT USED
Finite Nucleus Model                        ... NOT USED
Auxiliary Coulomb fitting basis             ... AVAILABLE
   # of basis functions in Aux-J            ...    979
   # of shells in Aux-J                     ...    253
   Maximum angular momentum in Aux-J        ...      4
Auxiliary J/K fitting basis                 ... NOT available
Auxiliary Correlation fitting basis         ... AVAILABLE
   # of basis functions in Aux-C            ...   1692
   # of shells in Aux-C                     ...    368
   Maximum angular momentum in Aux-C        ...      5
Auxiliary 'external' fitting basis          ... NOT available
Integral threshold                          ...     1.000000e-10
Primitive cut-off                           ...     1.000000e-11
Primitive pair pre-selection threshold      ...     1.000000e-11

Calculating pre-screening integrals         ... done (  0.2 sec) Dimension = 155
Organizing shell pair data                  ... done (  0.2 sec)
Shell pair information
Total number of shell pairs                 ...     12090
Shell pairs after pre-screening             ...      9602
Total number of primitive shell pairs       ...     33105
Primitive shell pairs kept                  ...     19286
          la=0 lb=0:   1524 shell pairs
          la=1 lb=0:   2173 shell pairs
          la=1 lb=1:    823 shell pairs
          la=2 lb=0:   1904 shell pairs
          la=2 lb=1:   1348 shell pairs
          la=2 lb=2:    560 shell pairs
          la=3 lb=0:    507 shell pairs
          la=3 lb=1:    380 shell pairs
          la=3 lb=2:    330 shell pairs
          la=3 lb=3:     53 shell pairs

Calculating one electron integrals          ... done (  0.0 sec)
Calculating ECP integrals                   ... done (  8.4 sec)
Calculating RI/J V-Matrix + Cholesky decomp.... done (  0.1 sec)
Calculating RI/C V-Matrix + Cholesky decomp.... done (  0.3 sec)
Calculating Nuclear repulsion               ... done (  0.0 sec) ENN=   3036.537431220473 Eh

SHARK setup successfully completed in   9.7 seconds

Maximum memory used throughout the entire GTOINT-calculation: 29.7 MB


           ************************************************************
           *        Program running with 6 parallel MPI-processes     *
           *              working on a common directory               *
           ************************************************************
-------------------------------------------------------------------------------
                                 ORCA SCF
-------------------------------------------------------------------------------

------------
SCF SETTINGS
------------
Hamiltonian:
 Ab initio Hamiltonian  Method          .... Hartree-Fock(GTOs)
 RI-approximation to the Coulomb term is turned on
   Number of AuxJ basis functions       .... 979
   RIJ-COSX (HFX calculated with COS-X)).... on


General Settings:
 Integral files         IntName         .... nevpt2
 Hartree-Fock type      HFTyp           .... CASSCF
 Total Charge           Charge          ....    0
 Multiplicity           Mult            ....    6
 Number of Electrons    NEL             ....  215
 Basis Dimension        Dim             ....  445
 Nuclear Repulsion      ENuc            ....   3036.5374312205 Eh


Diagonalization of the overlap matrix:
Smallest eigenvalue                        ... 5.734e-04
Time for diagonalization                   ...    0.050 sec
Threshold for overlap eigenvalues          ... 1.000e-08
Number of eigenvalues below threshold      ... 0
Time for construction of square roots      ...    0.051 sec
Total time needed                          ...    0.102 sec

---------------------
INITIAL GUESS: MOREAD
---------------------
Guess MOs are being read from file: casscf.gbw
Input Geometry matches current geometry (good)
Input basis set matches current basis set (good)
MOs were renormalized
Gram-Schmidt orthogonalization of all MOs with pivot on actives
                      ------------------
                      INITIAL GUESS DONE (   5.7 sec)
                      ------------------
--------------------
COSX GRID GENERATION
--------------------

GRIDX 1
-------
General Integration Accuracy     IntAcc      ... 3.816
Radial Grid Type                 RadialGrid  ... OptM3 with GC (2021)
Angular Grid (max. ang.)         AngularGrid ... 1 (Lebedev-50)
Angular grid pruning method      GridPruning ... 4 (adaptive)
Weight generation scheme         WeightScheme... Becke
Basis function cutoff            BFCut       ... 1.0000e-10
Integration weight cutoff        WCut        ... 1.0000e-14
Angular grids for H and He will be reduced by one unit
Partially contracted basis set               ... on
Rotationally invariant grid construction     ... off

Total number of grid points                  ...    13117
Total number of batches                      ...      209
Average number of points per batch           ...       62
Average number of grid points per atom       ...     1192
UseSFitting                                  ... on

GRIDX 2
-------
General Integration Accuracy     IntAcc      ... 4.020
Radial Grid Type                 RadialGrid  ... OptM3 with GC (2021)
Angular Grid (max. ang.)         AngularGrid ... 2 (Lebedev-110)
Angular grid pruning method      GridPruning ... 4 (adaptive)
Weight generation scheme         WeightScheme... Becke
Basis function cutoff            BFCut       ... 1.0000e-10
Integration weight cutoff        WCut        ... 1.0000e-14
Angular grids for H and He will be reduced by one unit
Partially contracted basis set               ... on
Rotationally invariant grid construction     ... off

Total number of grid points                  ...    39575
Total number of batches                      ...      624
Average number of points per batch           ...       63
Average number of grid points per atom       ...     3598
UseSFitting                                  ... on

GRIDX 3
-------
General Integration Accuracy     IntAcc      ... 4.338
Radial Grid Type                 RadialGrid  ... OptM3 with GC (2021)
Angular Grid (max. ang.)         AngularGrid ... 3 (Lebedev-194)
Angular grid pruning method      GridPruning ... 4 (adaptive)
Weight generation scheme         WeightScheme... Becke
Basis function cutoff            BFCut       ... 1.0000e-10
Integration weight cutoff        WCut        ... 1.0000e-14
Angular grids for H and He will be reduced by one unit
Partially contracted basis set               ... on
Rotationally invariant grid construction     ... off

Total number of grid points                  ...    72981
Total number of batches                      ...     1147
Average number of points per batch           ...       63
Average number of grid points per atom       ...     6635
UseSFitting                                  ... on

Time for X-Grid setup             =    1.751 sec



 ... the calculation is a CASSCF calculation -I'm leaving here GOOD LUCK!!!



           ************************************************************
           *        Program running with 6 parallel MPI-processes     *
           *              working on a common directory               *
           ************************************************************
-------------------------------------------------------------------------------
                              ORCA-CASSCF
-------------------------------------------------------------------------------

Setting up the integral package       ... done
Setting up the integral package (RI)  ... done
Building the CAS space                ... done (1 configurations for Mult=6)
Building the CAS space                ... done (21 configurations for Mult=4)

 CASSCF (estimated) memory needed     ... 81.6 MB
 NEVPT2 (estimated) memory needed     ... 245.9 MB


SYSTEM-SPECIFIC SETTINGS:
Number of active electrons          ...    5
Number of active orbitals           ...    5
Total number of electrons           ...  215
Total number of orbitals            ...  445
Total number aux. functions         ... 1692

Determined orbital ranges:
   Internal       0 -  104 ( 105 orbitals)
   Active       105 -  109 (   5 orbitals)
   External     110 -  444 ( 335 orbitals)
Number of rotation parameters      ...  37375

CI-STEP:
CI strategy                         ... General CI
Number of multiplicity blocks       ...    2
BLOCK  1 WEIGHT=   0.5000
  Multiplicity                      ...    6
  #(Configurations)                 ...    1
  #(CSFs)                           ...    1
  #(Roots)                          ...    1
    ROOT=0 WEIGHT=    0.500000

BLOCK  2 WEIGHT=   0.5000
  Multiplicity                      ...    4
  #(Configurations)                 ...   21
  #(CSFs)                           ...   24
  #(Roots)                          ...   24
    ROOT=0 WEIGHT=    0.020833
    ROOT=1 WEIGHT=    0.020833
    ROOT=2 WEIGHT=    0.020833
    ROOT=3 WEIGHT=    0.020833
    ROOT=4 WEIGHT=    0.020833
    ROOT=5 WEIGHT=    0.020833
    ROOT=6 WEIGHT=    0.020833
    ROOT=7 WEIGHT=    0.020833
    ROOT=8 WEIGHT=    0.020833
    ROOT=9 WEIGHT=    0.020833
    ROOT=10 WEIGHT=    0.020833
    ROOT=11 WEIGHT=    0.020833
    ROOT=12 WEIGHT=    0.020833
    ROOT=13 WEIGHT=    0.020833
    ROOT=14 WEIGHT=    0.020833
    ROOT=15 WEIGHT=    0.020833
    ROOT=16 WEIGHT=    0.020833
    ROOT=17 WEIGHT=    0.020833
    ROOT=18 WEIGHT=    0.020833
    ROOT=19 WEIGHT=    0.020833
    ROOT=20 WEIGHT=    0.020833
    ROOT=21 WEIGHT=    0.020833
    ROOT=22 WEIGHT=    0.020833
    ROOT=23 WEIGHT=    0.020833

  PrintLevel                        ...    1
  N(GuessMat)                       ...       512
  MaxDim(CI)                        ...        10
  MaxIter(CI)                       ...        64
  Energy Tolerance CI               ...  1.00e-08
  Residual Tolerance CI             ...  1.00e-08
  Shift(CI)                         ...  1.00e-04

INTEGRAL-TRANSFORMATION-STEP:
  Algorithm                         ... RI-MO

ORBITAL-IMPROVEMENT-STEP:
  Algorithm                         ... SuperCI(PT)
  Default Parametrization           ... CAYLEY
  Act-Act rotations                 ... depends on algorithm used

  Note: SuperCI(PT) will ignore FreezeIE, FreezeAct and FreezeGrad. In general Default settings are encouraged.
        In conjunction with ShiftUp, ShiftDn or GradScaling the performance of SuperCI(PT) is less optimal.  

  MaxRot                            ... 2.00e-01 
  Max. no of vectors (DIIS)         ... 15
  DThresh (cut-off) metric          ... 1.00e-06
  Switch step at gradient           ...  3.00e-02 
  Switch step at iteration          ...        50   
  Switch step to                    ... SuperCI(PT)    

SCF-SETTINGS:
  Incremental                       ... off
  RIJCOSX approximation             ... on
  UseFinalGrid                      ... on
  RI-JK approximation               ... off
  AO integral handling              ... DIRECT
  Integral Neglect Thresh           ...  1.00e-10
  Primitive cutoff TCut             ...  1.00e-11
  Energy convergence tolerance      ...  1.00e-07
  Orbital gradient convergence      ...  1.00e-03
  Max. number of iterations         ...        75  

PT2-SETTINGS:
  A PT2 calculation will be performed on top of the CASSCF wave function (PT2 = SC-NEVPT2)   
 CI step strategy                   ... General CI
  D4C handling                      ... on the fly 
  CI truncation for D4C at          ...  1.00e-14
  CI truncation for D3  at          ...  1.00e-14
  Orbitals                          ... canonical for each state 
  Last  frozen  orbital             ... 4
  First deleted orbital             ... 445
  RI Step                           ... store IJV(array) (MC_ONDISK during integral transformation) 

PROPERTIES-SETTINGS:
  Spin orbit coupling               ... true
  GTensor                           ... true
  QDPT diagonal energies            ... NEVPT2 energies 

FINAL ORBITALS:
  Active   Orbitals                 ... natural 
  Internal Orbitals                 ... canonical 
  External Orbitals                 ... canonical 

------------------
CAS-SCF ITERATIONS
------------------


MACRO-ITERATION   1: 
   --- Inactive Energy E0 = -2487.43010271 Eh
CI-ITERATION   0: 
 -2498.023420028   0.000000000000 (    0.00)
   CI-PROBLEM SOLVED
   DENSITIES MADE
CI-ITERATION   0: 
 -2497.886768522   0.000000000000 (    0.00)
 -2497.886654385   0.000000000000
 -2497.886407401   0.000000000000
 -2497.886378403   0.000000000000
 -2497.886223622   0.000000000000
 -2497.886068393   0.000000000000
 -2497.885698814   0.000000000000
 -2497.885527072   0.000000000000
 -2497.885243775   0.000000000000
 -2497.865224605   0.000000000000
 -2497.864253671   0.000000000000
 -2497.863452436   0.000000000000
 -2497.852932915   0.000000000000
 -2497.852587374   0.000000000000
 -2497.851666930   0.000000000000
 -2497.851333170   0.000000000000
 -2497.850968738   0.000000000000
 -2497.792920206   0.000000000000
 -2497.791995492   0.000000000000
 -2497.791620045   0.000000000000
 -2497.791392224   0.000000000000
 -2497.791216875   0.000000000000
 -2497.790891686   0.000000000000
 -2497.790808520   0.000000000000
   CI-PROBLEM SOLVED
   DENSITIES MADE

                 <<<<<<<<<<<<<<<<<<INITIAL CI STATE CHECK>>>>>>>>>>>>>>>>>>

BLOCK  1 MULT= 6 NROOTS= 1 
ROOT   0:  E=   -2498.0234200280 Eh
      1.00000 [     0]: 11111

BLOCK  2 MULT= 4 NROOTS=24 
ROOT   0:  E=   -2497.8867685216 Eh
      0.24446 [     7]: 11210
      0.16050 [    14]: 10211
      0.11198 [     6]: 12011
      0.10282 [    13]: 11012
      0.07130 [     5]: 12101
      0.04191 [    10]: 11111
      0.03915 [    11]: 11102
      0.03449 [     0]: 21110
      0.03096 [     8]: 11201
      0.03095 [     1]: 21101
      0.02620 [    15]: 10121
      0.01995 [    19]: 01121
      0.01815 [     9]: 11120
      0.01586 [    18]: 01211
      0.01292 [    12]: 11021
      0.01085 [    17]: 02111
      0.00913 [    20]: 01112
      0.00891 [     2]: 21011
      0.00574 [    16]: 10112
      0.00335 [     4]: 12110
ROOT   1:  E=   -2497.8866543848 Eh  0.003 eV     25.1 cm**-1
      0.33145 [    10]: 11111
      0.17215 [     8]: 11201
      0.12250 [     4]: 12110
      0.07097 [    12]: 11021
      0.05360 [    18]: 01211
      0.04843 [    19]: 01121
      0.03737 [     2]: 21011
      0.03420 [    16]: 10112
      0.03356 [     1]: 21101
      0.02089 [    11]: 11102
      0.01946 [     7]: 11210
      0.01467 [     9]: 11120
      0.01235 [     6]: 12011
      0.00948 [    14]: 10211
      0.00575 [    13]: 11012
      0.00542 [     5]: 12101
      0.00406 [    15]: 10121
ROOT   2:  E=   -2497.8864074006 Eh  0.010 eV     79.3 cm**-1
      0.20587 [     5]: 12101
      0.16901 [     0]: 21110
      0.16349 [    20]: 01112
      0.14958 [    15]: 10121
      0.11425 [    10]: 11111
      0.06255 [     6]: 12011
      0.04790 [    14]: 10211
      0.02369 [    13]: 11012
      0.01495 [     7]: 11210
      0.01421 [    17]: 02111
      0.01081 [     8]: 11201
      0.00829 [    11]: 11102
      0.00715 [    12]: 11021
      0.00410 [     2]: 21011
ROOT   3:  E=   -2497.8863784025 Eh  0.011 eV     85.6 cm**-1
      0.50474 [    10]: 11111
      0.11889 [     8]: 11201
      0.08750 [    12]: 11021
      0.06088 [     4]: 12110
      0.04160 [    16]: 10112
      0.04115 [     1]: 21101
      0.02913 [    19]: 01121
      0.02911 [    18]: 01211
      0.02775 [     2]: 21011
      0.01418 [     6]: 12011
      0.01100 [    14]: 10211
      0.00709 [     5]: 12101
      0.00535 [    11]: 11102
      0.00482 [    13]: 11012
      0.00454 [    15]: 10121
      0.00431 [     7]: 11210
      0.00282 [    20]: 01112
ROOT   4:  E=   -2497.8862236216 Eh  0.015 eV    119.6 cm**-1
      0.37150 [    10]: 11111
      0.15577 [    12]: 11021
      0.15125 [     8]: 11201
      0.14322 [     1]: 21101
      0.12598 [    19]: 01121
      0.01317 [    18]: 01211
      0.01002 [     2]: 21011
      0.00521 [     0]: 21110
      0.00503 [     4]: 12110
      0.00460 [    20]: 01112
      0.00353 [    16]: 10112
      0.00262 [     5]: 12101
ROOT   5:  E=   -2497.8860683926 Eh  0.019 eV    153.7 cm**-1
      0.23408 [     9]: 11120
      0.19258 [    11]: 11102
      0.14691 [    17]: 02111
      0.12217 [     3]: 20111
      0.08089 [     7]: 11210
      0.06064 [    13]: 11012
      0.04347 [     0]: 21110
      0.03447 [    10]: 11111
      0.01758 [     6]: 12011
      0.01533 [    20]: 01112
      0.01303 [     2]: 21011
      0.01028 [    18]: 01211
      0.00714 [    12]: 11021
      0.00559 [     8]: 11201
      0.00492 [    19]: 01121
      0.00476 [    14]: 10211
      0.00306 [     1]: 21101
ROOT   6:  E=   -2497.8856988136 Eh  0.029 eV    234.8 cm**-1
      0.37459 [    10]: 11111
      0.13223 [     4]: 12110
      0.12864 [    16]: 10112
      0.12417 [     2]: 21011
      0.09982 [    18]: 01211
      0.03271 [    13]: 11012
      0.03207 [    17]: 02111
      0.02952 [     3]: 20111
      0.02950 [     7]: 11210
      0.00510 [     8]: 11201
ROOT   7:  E=   -2497.8855270722 Eh  0.034 eV    272.5 cm**-1
      0.30312 [    17]: 02111
      0.20837 [     3]: 20111
      0.10586 [    10]: 11111
      0.09929 [    11]: 11102
      0.07166 [     9]: 11120
      0.03719 [     4]: 12110
      0.03294 [    16]: 10112
      0.03026 [     6]: 12011
      0.02942 [    14]: 10211
      0.02573 [    13]: 11012
      0.02374 [     7]: 11210
      0.00785 [    15]: 10121
      0.00511 [     5]: 12101
      0.00431 [     1]: 21101
      0.00420 [    18]: 01211
      0.00347 [     2]: 21011
      0.00266 [    19]: 01121
ROOT   8:  E=   -2497.8852437754 Eh  0.041 eV    334.6 cm**-1
      0.68246 [    10]: 11111
      0.05759 [     3]: 20111
      0.05694 [    20]: 01112
      0.05683 [    17]: 02111
      0.05546 [     0]: 21110
      0.02825 [     1]: 21101
      0.02075 [    19]: 01121
      0.00626 [    18]: 01211
      0.00571 [     7]: 11210
      0.00522 [    13]: 11012
      0.00504 [     2]: 21011
      0.00490 [    12]: 11021
      0.00445 [     8]: 11201
ROOT   9:  E=   -2497.8652246046 Eh  0.586 eV   4728.3 cm**-1
      0.33942 [    12]: 11021
      0.18317 [     8]: 11201
      0.13198 [     1]: 21101
      0.12086 [     4]: 12110
      0.08080 [     2]: 21011
      0.04506 [    16]: 10112
      0.01660 [    19]: 01121
      0.01373 [     0]: 21110
      0.01243 [    13]: 11012
      0.01137 [    17]: 02111
      0.00817 [    10]: 11111
      0.00793 [     6]: 12011
      0.00788 [    18]: 01211
      0.00673 [     5]: 12101
      0.00343 [     3]: 20111
      0.00289 [     9]: 11120
      0.00284 [    20]: 01112
ROOT  10:  E=   -2497.8642536710 Eh  0.613 eV   4941.4 cm**-1
      0.19247 [    11]: 11102
      0.18122 [    13]: 11012
      0.14495 [     0]: 21110
      0.13805 [     9]: 11120
      0.11433 [     6]: 12011
      0.03503 [    20]: 01112
      0.03298 [     5]: 12101
      0.02758 [     7]: 11210
      0.02324 [     3]: 20111
      0.02061 [     1]: 21101
      0.01747 [    15]: 10121
      0.01463 [    19]: 01121
      0.01392 [    14]: 10211
      0.01154 [     4]: 12110
      0.00992 [    12]: 11021
      0.00795 [    17]: 02111
      0.00701 [     8]: 11201
      0.00651 [    10]: 11111
ROOT  11:  E=   -2497.8634524357 Eh  0.634 eV   5117.3 cm**-1
      0.41347 [     3]: 20111
      0.28247 [    17]: 02111
      0.11163 [    13]: 11012
      0.04727 [     7]: 11210
      0.03898 [     6]: 12011
      0.02520 [    16]: 10112
      0.02335 [     9]: 11120
      0.02106 [     4]: 12110
      0.01617 [    11]: 11102
      0.00854 [     5]: 12101
      0.00329 [    10]: 11111
      0.00305 [     0]: 21110
ROOT  12:  E=   -2497.8529329146 Eh  0.921 eV   7426.1 cm**-1
      0.20870 [     5]: 12101
      0.15557 [    15]: 10121
      0.13367 [     7]: 11210
      0.12683 [     6]: 12011
      0.10261 [    13]: 11012
      0.06788 [    11]: 11102
      0.06712 [     9]: 11120
      0.05498 [    14]: 10211
      0.02113 [     2]: 21011
      0.02099 [    10]: 11111
      0.01670 [    18]: 01211
      0.01169 [    20]: 01112
      0.00510 [     0]: 21110
      0.00335 [     8]: 11201
ROOT  13:  E=   -2497.8525873738 Eh  0.930 eV   7501.9 cm**-1
      0.27789 [    10]: 11111
      0.17067 [     2]: 21011
      0.13675 [    18]: 01211
      0.13555 [     1]: 21101
      0.09309 [    19]: 01121
      0.07070 [     8]: 11201
      0.04205 [    12]: 11021
      0.02417 [    11]: 11102
      0.01606 [     9]: 11120
      0.00915 [     6]: 12011
      0.00881 [    14]: 10211
      0.00322 [     5]: 12101
      0.00289 [    20]: 01112
      0.00282 [     0]: 21110
      0.00260 [    16]: 10112
ROOT  14:  E=   -2497.8516669302 Eh  0.955 eV   7703.9 cm**-1
      0.77943 [    10]: 11111
      0.05285 [    20]: 01112
      0.04701 [     0]: 21110
      0.04215 [     8]: 11201
      0.02747 [    18]: 01211
      0.01368 [    19]: 01121
      0.00727 [     2]: 21011
      0.00457 [     1]: 21101
      0.00441 [    14]: 10211
      0.00327 [     4]: 12110
      0.00287 [     6]: 12011
ROOT  15:  E=   -2497.8513331699 Eh  0.964 eV   7777.2 cm**-1
      0.18035 [    20]: 01112
      0.15241 [    14]: 10211
      0.10862 [     0]: 21110
      0.10555 [     9]: 11120
      0.07999 [    10]: 11111
      0.07146 [     6]: 12011
      0.06605 [    15]: 10121
      0.05366 [     7]: 11210
      0.05061 [     5]: 12101
      0.02303 [    19]: 01121
      0.02185 [    16]: 10112
      0.01828 [    11]: 11102
      0.01774 [     2]: 21011
      0.01277 [    18]: 01211
      0.01056 [     4]: 12110
      0.00988 [    17]: 02111
      0.00820 [     1]: 21101
      0.00672 [     3]: 20111
ROOT  16:  E=   -2497.8509687375 Eh  0.974 eV   7857.1 cm**-1
      0.25618 [    10]: 11111
      0.20006 [    16]: 10112
      0.14440 [     4]: 12110
      0.10591 [    19]: 01121
      0.07105 [    18]: 01211
      0.05407 [     1]: 21101
      0.03836 [     2]: 21011
      0.03290 [    12]: 11021
      0.01685 [     7]: 11210
      0.01449 [    14]: 10211
      0.01044 [    13]: 11012
      0.01026 [     6]: 12011
      0.00919 [     8]: 11201
      0.00736 [    20]: 01112
      0.00653 [    15]: 10121
      0.00628 [     3]: 20111
      0.00370 [    11]: 11102
      0.00333 [     5]: 12101
      0.00325 [    17]: 02111
      0.00322 [     0]: 21110
ROOT  17:  E=   -2497.7929202059 Eh  2.554 eV  20597.3 cm**-1
      0.23563 [    15]: 10121
      0.20044 [    11]: 11102
      0.19852 [     5]: 12101
      0.17271 [     9]: 11120
      0.05250 [     3]: 20111
      0.04572 [    17]: 02111
      0.03498 [    14]: 10211
      0.02989 [     6]: 12011
      0.01231 [    13]: 11012
      0.00745 [     7]: 11210
      0.00295 [     8]: 11201
ROOT  18:  E=   -2497.7919954921 Eh  2.579 eV  20800.3 cm**-1
      0.18848 [    13]: 11012
      0.15736 [    20]: 01112
      0.15315 [     7]: 11210
      0.11365 [     0]: 21110
      0.10279 [    15]: 10121
      0.05855 [     5]: 12101
      0.04641 [    17]: 02111
      0.03984 [     3]: 20111
      0.03131 [     6]: 12011
      0.02903 [    14]: 10211
      0.01406 [    16]: 10112
      0.01255 [     2]: 21011
      0.01216 [    18]: 01211
      0.01177 [    19]: 01121
      0.01148 [     4]: 12110
      0.00747 [     1]: 21101
      0.00509 [     9]: 11120
      0.00389 [    11]: 11102
ROOT  19:  E=   -2497.7916200448 Eh  2.589 eV  20882.7 cm**-1
      0.36147 [    19]: 01121
      0.26925 [     1]: 21101
      0.11028 [    12]: 11021
      0.08478 [     8]: 11201
      0.03567 [     9]: 11120
      0.03541 [     2]: 21011
      0.03143 [    18]: 01211
      0.02606 [    11]: 11102
      0.01498 [    15]: 10121
      0.01122 [     5]: 12101
      0.00489 [    16]: 10112
      0.00469 [     4]: 12110
ROOT  20:  E=   -2497.7913922237 Eh  2.595 eV  20932.7 cm**-1
      0.25997 [    16]: 10112
      0.17925 [     4]: 12110
      0.10163 [    12]: 11021
      0.09241 [     8]: 11201
      0.08394 [    18]: 01211
      0.06932 [     2]: 21011
      0.04519 [    19]: 01121
      0.04215 [     1]: 21101
      0.03399 [    20]: 01112
      0.02139 [     0]: 21110
      0.01963 [    14]: 10211
      0.01481 [     6]: 12011
      0.01081 [     3]: 20111
      0.01062 [    17]: 02111
      0.00405 [    15]: 10121
      0.00352 [     5]: 12101
      0.00269 [     7]: 11210
ROOT  21:  E=   -2497.7912168746 Eh  2.600 eV  20971.2 cm**-1
      0.25597 [    20]: 01112
      0.22088 [     0]: 21110
      0.15598 [    15]: 10121
      0.09391 [     5]: 12101
      0.08051 [     9]: 11120
      0.07223 [    11]: 11102
      0.02290 [    19]: 01121
      0.02096 [    13]: 11012
      0.01770 [     1]: 21101
      0.01300 [     7]: 11210
      0.01104 [     3]: 20111
      0.01005 [    16]: 10112
      0.00888 [     4]: 12110
      0.00479 [    18]: 01211
      0.00475 [    17]: 02111
      0.00264 [     2]: 21011
ROOT  22:  E=   -2497.7908916863 Eh  2.609 eV  21042.5 cm**-1
      0.32296 [    18]: 01211
      0.28194 [     2]: 21011
      0.15288 [    16]: 10112
      0.11106 [     4]: 12110
      0.03750 [    19]: 01121
      0.02046 [     1]: 21101
      0.01458 [     7]: 11210
      0.01409 [    13]: 11012
      0.00928 [     3]: 20111
      0.00760 [    17]: 02111
      0.00594 [    12]: 11021
      0.00482 [     9]: 11120
      0.00291 [     8]: 11201
      0.00284 [    10]: 11111
      0.00281 [    15]: 10121
      0.00276 [    11]: 11102
ROOT  23:  E=   -2497.7908085204 Eh  2.611 eV  21060.8 cm**-1
      0.39662 [    14]: 10211
      0.28605 [     6]: 12011
      0.09969 [     7]: 11210
      0.07887 [    13]: 11012
      0.03482 [    18]: 01211
      0.03398 [    15]: 10121
      0.02600 [     2]: 21011
      0.01694 [     5]: 12101
      0.00995 [    16]: 10112
      0.00815 [     4]: 12110
      0.00301 [    17]: 02111

                 <<<<<<<<<<<<<<<<<<INITIAL CI STATE CHECK>>>>>>>>>>>>>>>>>>

   E(CAS)= -2497.936048249 Eh DE=    0.000000e+00
   --- Energy gap subspaces: Ext-Act = 0.116   Act-Int = 0.081
   N(occ)=  1.00000 1.00000 1.00000 1.00000 1.00000
   ||g|| =     8.093696e-04 Max(G)=   -1.340282e-04 Rot=111,102
                     ---- THE CAS-SCF GRADIENT HAS CONVERGED ----
                            --- FINALIZING ORBITALS ---
                    ---- DOING ONE FINAL ITERATION FOR PRINTING ----
   --- Forming Natural Orbitals
   --- Canonicalize Internal Space
   --- Canonicalize External Space

MACRO-ITERATION   2: 
   --- Inactive Energy E0 = -2487.43010271 Eh
   --- All densities will be recomputed
CI-ITERATION   0: 
 -2498.023420027   0.000000000000 (    0.00)
   CI-PROBLEM SOLVED
   DENSITIES MADE
CI-ITERATION   0: 
 -2497.886768521   0.000000000000 (    0.00)
 -2497.886654384   0.000000000000
 -2497.886407400   0.000000000000
 -2497.886378402   0.000000000000
 -2497.886223621   0.000000000000
 -2497.886068392   0.000000000000
 -2497.885698813   0.000000000000
 -2497.885527072   0.000000000000
 -2497.885243775   0.000000000000
 -2497.865224604   0.000000000000
 -2497.864253670   0.000000000000
 -2497.863452435   0.000000000000
 -2497.852932914   0.000000000000
 -2497.852587373   0.000000000000
 -2497.851666930   0.000000000000
 -2497.851333169   0.000000000000
 -2497.850968737   0.000000000000
 -2497.792920205   0.000000000000
 -2497.791995492   0.000000000000
 -2497.791620044   0.000000000000
 -2497.791392223   0.000000000000
 -2497.791216874   0.000000000000
 -2497.790891686   0.000000000000
 -2497.790808520   0.000000000000
   CI-PROBLEM SOLVED
   DENSITIES MADE
   E(CAS)= -2497.936048248 Eh DE=    5.907168e-10
   --- Energy gap subspaces: Ext-Act = 0.117   Act-Int = 0.081
   N(occ)=  1.00000 1.00000 1.00000 1.00000 1.00000
   ||g|| =     8.093696e-04 Max(G)=   -1.340282e-04 Rot=111,102
--------------
CASSCF RESULTS
--------------

Final CASSCF energy       : -2497.936048248 Eh  -67972.2955 eV

----------------
ORBITAL ENERGIES
----------------

  NO   OCC          E(Eh)            E(eV) 
   0   2.0000    -240.541816     -6545.4756 
   1   2.0000     -29.120703      -792.4146 
   2   2.0000     -24.825484      -675.5358 
   3   2.0000     -24.825406      -675.5336 
   4   2.0000     -24.824771      -675.5164 
   5   2.0000      -4.723152      -128.5235 
   6   2.0000      -4.714883      -128.2985 
   7   2.0000      -4.714654      -128.2923 
   8   2.0000      -4.713498      -128.2608 
   9   2.0000      -4.711342      -128.2021 
  10   2.0000      -4.701865      -127.9443 
  11   2.0000      -4.701444      -127.9328 
  12   2.0000      -4.700974      -127.9200 
  13   2.0000      -4.697186      -127.8169 
  14   2.0000      -4.693231      -127.7093 
  15   2.0000      -3.825993      -104.1106 
  16   2.0000      -2.764728       -75.2321 
  17   2.0000      -2.759715       -75.0957 
  18   2.0000      -2.755437       -74.9793 
  19   2.0000      -2.755158       -74.9717 
  20   2.0000      -2.754189       -74.9453 
  21   2.0000      -2.752875       -74.9095 
  22   2.0000      -2.751466       -74.8712 
  23   2.0000      -2.750365       -74.8412 
  24   2.0000      -2.749537       -74.8187 
  25   2.0000      -2.747740       -74.7698 
  26   2.0000      -2.747051       -74.7511 
  27   2.0000      -2.746912       -74.7473 
  28   2.0000      -2.746273       -74.7299 
  29   2.0000      -2.745572       -74.7108 
  30   2.0000      -2.741512       -74.6003 
  31   2.0000      -2.740521       -74.5734 
  32   2.0000      -2.740035       -74.5601 
  33   2.0000      -2.739555       -74.5471 
  34   2.0000      -2.736975       -74.4769 
  35   2.0000      -2.736511       -74.4643 
  36   2.0000      -2.736490       -74.4637 
  37   2.0000      -2.734535       -74.4105 
  38   2.0000      -2.733322       -74.3775 
  39   2.0000      -2.732874       -74.3653 
  40   2.0000      -2.731834       -74.3370 
  41   2.0000      -2.731674       -74.3326 
  42   2.0000      -2.729253       -74.2667 
  43   2.0000      -2.728171       -74.2373 
  44   2.0000      -2.726288       -74.1861 
  45   2.0000      -2.726033       -74.1791 
  46   2.0000      -2.494139       -67.8690 
  47   2.0000      -2.492696       -67.8297 
  48   2.0000      -2.492460       -67.8233 
  49   2.0000      -0.574722       -15.6390 
  50   2.0000      -0.557228       -15.1630 
  51   2.0000      -0.547601       -14.9010 
  52   2.0000      -0.542356       -14.7583 
  53   2.0000      -0.540891       -14.7184 
  54   2.0000      -0.536132       -14.5889 
  55   2.0000      -0.530687       -14.4407 
  56   2.0000      -0.526976       -14.3397 
  57   2.0000      -0.521061       -14.1788 
  58   2.0000      -0.515239       -14.0204 
  59   2.0000      -0.513529       -13.9738 
  60   2.0000      -0.512687       -13.9509 
  61   2.0000      -0.506629       -13.7861 
  62   2.0000      -0.506255       -13.7759 
  63   2.0000      -0.504194       -13.7198 
  64   2.0000      -0.498733       -13.5712 
  65   2.0000      -0.493402       -13.4262 
  66   2.0000      -0.490488       -13.3469 
  67   2.0000      -0.489471       -13.3192 
  68   2.0000      -0.487778       -13.2731 
  69   2.0000      -0.484706       -13.1895 
  70   2.0000      -0.476986       -12.9795 
  71   2.0000      -0.475383       -12.9358 
  72   2.0000      -0.474530       -12.9126 
  73   2.0000      -0.468517       -12.7490 
  74   2.0000      -0.465213       -12.6591 
  75   2.0000      -0.464527       -12.6404 
  76   2.0000      -0.461894       -12.5688 
  77   2.0000      -0.458494       -12.4763 
  78   2.0000      -0.457434       -12.4474 
  79   2.0000      -0.455777       -12.4023 
  80   2.0000      -0.451928       -12.2976 
  81   2.0000      -0.451548       -12.2872 
  82   2.0000      -0.449401       -12.2288 
  83   2.0000      -0.448233       -12.1970 
  84   2.0000      -0.444721       -12.1015 
  85   2.0000      -0.444543       -12.0966 
  86   2.0000      -0.443093       -12.0572 
  87   2.0000      -0.439988       -11.9727 
  88   2.0000      -0.436193       -11.8694 
  89   2.0000      -0.434543       -11.8245 
  90   2.0000      -0.431959       -11.7542 
  91   2.0000      -0.425256       -11.5718 
  92   2.0000      -0.422655       -11.5010 
  93   2.0000      -0.419998       -11.4287 
  94   2.0000      -0.416573       -11.3355 
  95   2.0000      -0.413347       -11.2477 
  96   2.0000      -0.409624       -11.1464 
  97   2.0000      -0.407567       -11.0905 
  98   2.0000      -0.401052       -10.9132 
  99   2.0000      -0.389423       -10.5967 
 100   2.0000      -0.356594        -9.7034 
 101   2.0000      -0.345138        -9.3917 
 102   2.0000      -0.273859        -7.4521 
 103   2.0000      -0.261792        -7.1237 
 104   2.0000      -0.229490        -6.2448 
 105   1.0000      -0.143317        -3.8998 
 106   1.0000      -0.142784        -3.8854 
 107   1.0000      -0.141600        -3.8531 
 108   1.0000      -0.148364        -4.0372 
 109   1.0000      -0.144455        -3.9308 
 110   0.0000      -0.025007        -0.6805 
 111   0.0000      -0.010636        -0.2894 
 112   0.0000       0.002415         0.0657 
 113   0.0000       0.013578         0.3695 
 114   0.0000       0.028138         0.7657 
 115   0.0000       0.032108         0.8737 
 116   0.0000       0.045260         1.2316 
 117   0.0000       0.059112         1.6085 
 118   0.0000       0.059302         1.6137 
 119   0.0000       0.066285         1.8037 
 120   0.0000       0.078141         2.1263 
 121   0.0000       0.081361         2.2139 
 122   0.0000       0.095540         2.5998 
 123   0.0000       0.100039         2.7222 
 124   0.0000       0.112838         3.0705 
 125   0.0000       0.116091         3.1590 
 126   0.0000       0.116609         3.1731 
 127   0.0000       0.134893         3.6706 
 128   0.0000       0.135616         3.6903 
 129   0.0000       0.141526         3.8511 
 130   0.0000       0.145015         3.9461 
 131   0.0000       0.149925         4.0797 
 132   0.0000       0.155730         4.2376 
 133   0.0000       0.158255         4.3063 
 134   0.0000       0.163983         4.4622 
 135   0.0000       0.167113         4.5474 
 136   0.0000       0.168938         4.5970 
 137   0.0000       0.180802         4.9199 
 138   0.0000       0.194322         5.2878 
 139   0.0000       0.195621         5.3231 
 140   0.0000       0.198719         5.4074 
 141   0.0000       0.207790         5.6542 
 142   0.0000       0.219445         5.9714 
 143   0.0000       0.233801         6.3621 
 144   0.0000       0.234412         6.3787 
 145   0.0000       0.263267         7.1639 
 146   0.0000       0.278580         7.5806 
 147   0.0000       0.287855         7.8329 
 148   0.0000       0.297020         8.0823 
 149   0.0000       0.305721         8.3191 
 150   0.0000       0.312198         8.4953 
 151   0.0000       0.322432         8.7738 
 152   0.0000       0.324899         8.8409 
 153   0.0000       0.345925         9.4131 
 154   0.0000       0.350994         9.5510 
 155   0.0000       0.375346        10.2137 
 156   0.0000       0.384141        10.4530 
 157   0.0000       0.389146        10.5892 
 158   0.0000       0.389982        10.6120 
 159   0.0000       0.401335        10.9209 
 160   0.0000       0.405396        11.0314 
 161   0.0000       0.405995        11.0477 
 162   0.0000       0.418006        11.3745 
 163   0.0000       0.429201        11.6791 
 164   0.0000       0.432683        11.7739 
 165   0.0000       0.439542        11.9606 
 166   0.0000       0.447812        12.1856 
 167   0.0000       0.448226        12.1969 
 168   0.0000       0.458053        12.4643 
 169   0.0000       0.464766        12.6469 
 170   0.0000       0.467777        12.7288 
 171   0.0000       0.469618        12.7789 
 172   0.0000       0.476370        12.9627 
 173   0.0000       0.477750        13.0002 
 174   0.0000       0.483574        13.1587 
 175   0.0000       0.491735        13.3808 
 176   0.0000       0.495216        13.4755 
 177   0.0000       0.499639        13.5959 
 178   0.0000       0.504654        13.7323 
 179   0.0000       0.504724        13.7342 
 180   0.0000       0.523077        14.2336 
 181   0.0000       0.529061        14.3965 
 182   0.0000       0.534868        14.5545 
 183   0.0000       0.543120        14.7790 
 184   0.0000       0.545784        14.8515 
 185   0.0000       0.557002        15.1568 
 186   0.0000       0.558345        15.1933 
 187   0.0000       0.566747        15.4220 
 188   0.0000       0.568556        15.4712 
 189   0.0000       0.570472        15.5233 
 190   0.0000       0.572569        15.5804 
 191   0.0000       0.574206        15.6249 
 192   0.0000       0.579600        15.7717 
 193   0.0000       0.590103        16.0575 
 194   0.0000       0.595613        16.2075 
 195   0.0000       0.598592        16.2885 
 196   0.0000       0.606501        16.5037 
 197   0.0000       0.620277        16.8786 
 198   0.0000       0.622597        16.9417 
 199   0.0000       0.630769        17.1641 
 200   0.0000       0.634492        17.2654 
 201   0.0000       0.651593        17.7308 
 202   0.0000       0.659421        17.9438 
 203   0.0000       0.660997        17.9866 
 204   0.0000       0.671354        18.2685 
 205   0.0000       0.689898        18.7731 
 206   0.0000       0.691447        18.8152 
 207   0.0000       0.694591        18.9008 
 208   0.0000       0.708424        19.2772 
 209   0.0000       0.719425        19.5765 
 210   0.0000       0.721124        19.6228 
 211   0.0000       0.733695        19.9649 
 212   0.0000       0.759315        20.6620 
 213   0.0000       0.767576        20.8868 
 214   0.0000       0.834167        22.6988 
 215   0.0000       0.854147        23.2425 
 216   0.0000       0.856906        23.3176 
 217   0.0000       0.882576        24.0161 
 218   0.0000       0.906772        24.6745 
 219   0.0000       0.916465        24.9383 
 220   0.0000       0.918147        24.9840 
 221   0.0000       0.944887        25.7117 
 222   0.0000       0.967974        26.3399 
 223   0.0000       0.985083        26.8055 
 224   0.0000       0.990207        26.9449 
 225   0.0000       1.016268        27.6541 
 226   0.0000       1.044739        28.4288 
 227   0.0000       1.046393        28.4738 
 228   0.0000       1.052039        28.6274 
 229   0.0000       1.069208        29.0946 
 230   0.0000       1.076656        29.2973 
 231   0.0000       1.089662        29.6512 
 232   0.0000       1.111454        30.2442 
 233   0.0000       1.137580        30.9551 
 234   0.0000       1.161301        31.6006 
 235   0.0000       1.168738        31.8030 
 236   0.0000       1.182871        32.1876 
 237   0.0000       1.194112        32.4934 
 238   0.0000       1.202734        32.7281 
 239   0.0000       1.217157        33.1205 
 240   0.0000       1.224067        33.3086 
 241   0.0000       1.233590        33.5677 
 242   0.0000       1.253782        34.1171 
 243   0.0000       1.283112        34.9153 
 244   0.0000       1.294113        35.2146 
 245   0.0000       1.296257        35.2729 
 246   0.0000       1.335831        36.3498 
 247   0.0000       1.376690        37.4616 
 248   0.0000       1.419304        38.6212 
 249   0.0000       1.576286        42.8929 
 250   0.0000       1.580841        43.0169 
 251   0.0000       1.613198        43.8973 
 252   0.0000       1.615595        43.9626 
 253   0.0000       1.629683        44.3459 
 254   0.0000       1.650239        44.9053 
 255   0.0000       1.659799        45.1654 
 256   0.0000       1.669949        45.4416 
 257   0.0000       1.679380        45.6982 
 258   0.0000       1.689909        45.9848 
 259   0.0000       1.695080        46.1255 
 260   0.0000       1.699225        46.2383 
 261   0.0000       1.708236        46.4835 
 262   0.0000       1.726507        46.9807 
 263   0.0000       1.729260        47.0556 
 264   0.0000       1.732976        47.1567 
 265   0.0000       1.734185        47.1896 
 266   0.0000       1.747643        47.5558 
 267   0.0000       1.758888        47.8618 
 268   0.0000       1.761248        47.9260 
 269   0.0000       1.762338        47.9557 
 270   0.0000       1.776730        48.3473 
 271   0.0000       1.780615        48.4530 
 272   0.0000       1.784963        48.5713 
 273   0.0000       1.788959        48.6800 
 274   0.0000       1.792171        48.7675 
 275   0.0000       1.796877        48.8955 
 276   0.0000       1.800414        48.9918 
 277   0.0000       1.802580        49.0507 
 278   0.0000       1.809998        49.2525 
 279   0.0000       1.816216        49.4218 
 280   0.0000       1.827773        49.7362 
 281   0.0000       1.836771        49.9811 
 282   0.0000       1.838106        50.0174 
 283   0.0000       1.842209        50.1291 
 284   0.0000       1.847103        50.2622 
 285   0.0000       1.849549        50.3288 
 286   0.0000       1.850061        50.3427 
 287   0.0000       1.854200        50.4554 
 288   0.0000       1.856150        50.5084 
 289   0.0000       1.858447        50.5709 
 290   0.0000       1.862508        50.6814 
 291   0.0000       1.863914        50.7197 
 292   0.0000       1.865443        50.7613 
 293   0.0000       1.866461        50.7890 
 294   0.0000       1.867058        50.8052 
 295   0.0000       1.870002        50.8853 
 296   0.0000       1.872399        50.9506 
 297   0.0000       1.872634        50.9570 
 298   0.0000       1.874681        51.0127 
 299   0.0000       1.877060        51.0774 
 300   0.0000       1.878115        51.1061 
 301   0.0000       1.878957        51.1290 
 302   0.0000       1.881697        51.2036 
 303   0.0000       1.886852        51.3439 
 304   0.0000       1.889936        51.4278 
 305   0.0000       1.891269        51.4640 
 306   0.0000       1.892364        51.4939 
 307   0.0000       1.894544        51.5532 
 308   0.0000       1.895178        51.5704 
 309   0.0000       1.899234        51.6808 
 310   0.0000       1.899358        51.6842 
 311   0.0000       1.901069        51.7307 
 312   0.0000       1.903426        51.7948 
 313   0.0000       1.904391        51.8211 
 314   0.0000       1.909110        51.9495 
 315   0.0000       1.912407        52.0392 
 316   0.0000       1.914675        52.1010 
 317   0.0000       1.916307        52.1454 
 318   0.0000       1.916572        52.1526 
 319   0.0000       1.922359        52.3100 
 320   0.0000       1.924623        52.3717 
 321   0.0000       1.926578        52.4249 
 322   0.0000       1.932262        52.5795 
 323   0.0000       1.933450        52.6119 
 324   0.0000       1.935235        52.6604 
 325   0.0000       1.935425        52.6656 
 326   0.0000       1.936560        52.6965 
 327   0.0000       1.938010        52.7359 
 328   0.0000       1.941396        52.8281 
 329   0.0000       1.942593        52.8606 
 330   0.0000       1.947914        53.0054 
 331   0.0000       1.950110        53.0652 
 332   0.0000       1.950954        53.0882 
 333   0.0000       1.952038        53.1176 
 334   0.0000       1.956844        53.2484 
 335   0.0000       1.959562        53.3224 
 336   0.0000       1.962925        53.4139 
 337   0.0000       1.968384        53.5625 
 338   0.0000       1.969178        53.5841 
 339   0.0000       1.973073        53.6900 
 340   0.0000       1.973906        53.7127 
 341   0.0000       1.982051        53.9343 
 342   0.0000       1.987397        54.0798 
 343   0.0000       1.990475        54.1636 
 344   0.0000       1.993463        54.2449 
 345   0.0000       1.997217        54.3470 
 346   0.0000       2.010324        54.7037 
 347   0.0000       2.012437        54.7612 
 348   0.0000       2.016915        54.8830 
 349   0.0000       2.022091        55.0239 
 350   0.0000       2.039073        55.4860 
 351   0.0000       2.049845        55.7791 
 352   0.0000       2.069167        56.3049 
 353   0.0000       2.079091        56.5749 
 354   0.0000       2.092297        56.9343 
 355   0.0000       2.114995        57.5519 
 356   0.0000       2.120026        57.6889 
 357   0.0000       2.136054        58.1250 
 358   0.0000       2.162471        58.8438 
 359   0.0000       2.187601        59.5277 
 360   0.0000       2.196445        59.7683 
 361   0.0000       2.247797        61.1657 
 362   0.0000       2.264846        61.6296 
 363   0.0000       2.278523        62.0018 
 364   0.0000       2.325006        63.2666 
 365   0.0000       2.329484        63.3885 
 366   0.0000       2.343390        63.7669 
 367   0.0000       2.369142        64.4676 
 368   0.0000       2.378524        64.7229 
 369   0.0000       2.428223        66.0753 
 370   0.0000       2.505560        68.1797 
 371   0.0000       2.579657        70.1960 
 372   0.0000       2.632085        71.6227 
 373   0.0000       2.677404        72.8559 
 374   0.0000       2.725351        74.1606 
 375   0.0000       2.765609        75.2560 
 376   0.0000       2.804479        76.3138 
 377   0.0000       2.852593        77.6230 
 378   0.0000       2.928800        79.6967 
 379   0.0000       2.962485        80.6133 
 380   0.0000       2.966352        80.7185 
 381   0.0000       3.050112        82.9978 
 382   0.0000       3.299458        89.7828 
 383   0.0000       3.770419       102.5983 
 384   0.0000       3.773129       102.6720 
 385   0.0000       3.775059       102.7246 
 386   0.0000       3.779276       102.8393 
 387   0.0000       3.786826       103.0448 
 388   0.0000       3.797000       103.3216 
 389   0.0000       3.813555       103.7721 
 390   0.0000       3.858968       105.0078 
 391   0.0000       3.903822       106.2284 
 392   0.0000       3.941384       107.2505 
 393   0.0000       3.969538       108.0166 
 394   0.0000       4.067312       110.6772 
 395   0.0000      23.967265       652.1824 
 396   0.0000      24.432016       664.8290 
 397   0.0000      24.437979       664.9912 
 398   0.0000      24.506527       666.8565 
 399   0.0000      24.602618       669.4713 
 400   0.0000      24.785559       674.4493 
 401   0.0000      24.837255       675.8561 
 402   0.0000      24.944463       678.7733 
 403   0.0000      25.549100       695.2263 
 404   0.0000      25.686150       698.9557 
 405   0.0000      25.783782       701.6124 
 406   0.0000      25.893782       704.6056 
 407   0.0000      26.166791       712.0346 
 408   0.0000      26.223477       713.5771 
 409   0.0000      26.312931       716.0112 
 410   0.0000      26.769224       728.4276 
 411   0.0000      26.776394       728.6227 
 412   0.0000      26.892632       731.7857 
 413   0.0000      26.902644       732.0582 
 414   0.0000      27.117637       737.9084 
 415   0.0000      27.449390       746.9359 
 416   0.0000      27.550912       749.6984 
 417   0.0000      27.645740       752.2788 
 418   0.0000      28.125064       765.3219 
 419   0.0000      28.233647       768.2766 
 420   0.0000      28.262442       769.0601 
 421   0.0000      28.436205       773.7885 
 422   0.0000      28.572428       777.4953 
 423   0.0000      29.018176       789.6247 
 424   0.0000      29.897765       813.5596 
 425   0.0000      44.511911      1211.2307 
 426   0.0000      44.561468      1212.5792 
 427   0.0000      44.595447      1213.5038 
 428   0.0000      44.640312      1214.7246 
 429   0.0000      44.670041      1215.5336 
 430   0.0000      44.711392      1216.6588 
 431   0.0000      44.758279      1217.9347 
 432   0.0000      44.784824      1218.6570 
 433   0.0000      44.801182      1219.1021 
 434   0.0000      44.830211      1219.8921 
 435   0.0000     205.382871      5588.7521 
 436   0.0000     205.403180      5589.3047 
 437   0.0000     205.419821      5589.7575 
 438   0.0000     205.437310      5590.2334 
 439   0.0000     205.447425      5590.5087 
 440   0.0000     205.464561      5590.9749 
 441   0.0000     205.486566      5591.5737 
 442   0.0000     205.491887      5591.7185 
 443   0.0000     205.501621      5591.9834 
 444   0.0000     205.509730      5592.2041 


---------------------------------------------
CAS-SCF STATES FOR BLOCK  1 MULT= 6 NROOTS= 1
---------------------------------------------

ROOT   0:  E=   -2498.0234200274 Eh
      1.00000 [     0]: 11111


---------------------------------------------
CAS-SCF STATES FOR BLOCK  2 MULT= 4 NROOTS=24
---------------------------------------------

ROOT   0:  E=   -2497.8867685210 Eh
      0.19802 [     2]: 21011
      0.15713 [    15]: 10121
      0.13717 [    18]: 01211
      0.09312 [    13]: 11012
      0.08143 [     5]: 12101
      0.07326 [    11]: 11102
      0.05740 [    10]: 11111
      0.04272 [     9]: 11120
      0.03436 [     3]: 20111
      0.02795 [    20]: 01112
      0.02200 [     0]: 21110
      0.01598 [     1]: 21101
      0.01438 [     7]: 11210
      0.01308 [    17]: 02111
      0.01214 [    16]: 10112
      0.00549 [    12]: 11021
      0.00520 [     8]: 11201
      0.00516 [     4]: 12110
      0.00382 [     6]: 12011
ROOT   1:  E=   -2497.8866543842 Eh  0.003 eV     25.1 cm**-1
      0.42501 [    10]: 11111
      0.12879 [    12]: 11021
      0.07775 [     3]: 20111
      0.07145 [    16]: 10112
      0.06727 [     4]: 12110
      0.05155 [    20]: 01112
      0.03758 [     8]: 11201
      0.02522 [     0]: 21110
      0.02493 [     2]: 21011
      0.02033 [    18]: 01211
      0.01956 [     9]: 11120
      0.01922 [    17]: 02111
      0.01485 [    11]: 11102
      0.00343 [     1]: 21101
      0.00314 [    13]: 11012
      0.00311 [    14]: 10211
      0.00256 [    15]: 10121
ROOT   2:  E=   -2497.8864074000 Eh  0.010 eV     79.3 cm**-1
      0.23862 [    19]: 01121
      0.16986 [     1]: 21101
      0.11532 [     6]: 12011
      0.10624 [    10]: 11111
      0.09432 [    14]: 10211
      0.05506 [     7]: 11210
      0.04823 [     9]: 11120
      0.04704 [    13]: 11012
      0.02822 [    18]: 01211
      0.01825 [     8]: 11201
      0.01577 [     0]: 21110
      0.01418 [    12]: 11021
      0.01028 [    11]: 11102
      0.00965 [    20]: 01112
      0.00872 [     4]: 12110
      0.00865 [    16]: 10112
      0.00753 [     2]: 21011
      0.00303 [    15]: 10121
ROOT   3:  E=   -2497.8863784019 Eh  0.011 eV     85.6 cm**-1
      0.39601 [    10]: 11111
      0.12642 [     3]: 20111
      0.09980 [     0]: 21110
      0.09372 [    17]: 02111
      0.08759 [    20]: 01112
      0.04851 [    12]: 11021
      0.03086 [     8]: 11201
      0.02941 [    19]: 01121
      0.02065 [     1]: 21101
      0.01325 [    18]: 01211
      0.00945 [     2]: 21011
      0.00783 [     5]: 12101
      0.00721 [     6]: 12011
      0.00615 [    15]: 10121
      0.00544 [     7]: 11210
      0.00505 [    14]: 10211
      0.00493 [     4]: 12110
      0.00443 [    13]: 11012
      0.00272 [    16]: 10112
ROOT   4:  E=   -2497.8862236211 Eh  0.015 eV    119.6 cm**-1
      0.31448 [    10]: 11111
      0.29834 [    17]: 02111
      0.29721 [     3]: 20111
      0.02631 [     4]: 12110
      0.01838 [    16]: 10112
      0.00844 [    14]: 10211
      0.00747 [     6]: 12011
      0.00676 [     0]: 21110
      0.00534 [    20]: 01112
      0.00513 [    19]: 01121
      0.00510 [     1]: 21101
ROOT   5:  E=   -2497.8860683920 Eh  0.019 eV    153.7 cm**-1
      0.27079 [    13]: 11012
      0.17486 [     7]: 11210
      0.12230 [    15]: 10121
      0.08368 [     5]: 12101
      0.06842 [    14]: 10211
      0.06647 [    10]: 11111
      0.05827 [     6]: 12011
      0.03994 [    11]: 11102
      0.03408 [     9]: 11120
      0.02135 [     2]: 21011
      0.01951 [    18]: 01211
      0.01283 [    19]: 01121
      0.00862 [    12]: 11021
      0.00748 [     8]: 11201
      0.00551 [     1]: 21101
ROOT   6:  E=   -2497.8856988130 Eh  0.029 eV    234.8 cm**-1
      0.41274 [    10]: 11111
      0.12497 [    12]: 11021
      0.12286 [     8]: 11201
      0.07393 [    16]: 10112
      0.05775 [     4]: 12110
      0.05147 [     0]: 21110
      0.05036 [    20]: 01112
      0.02423 [     7]: 11210
      0.02418 [    13]: 11012
      0.01610 [    18]: 01211
      0.01449 [     2]: 21011
      0.00574 [    17]: 02111
      0.00525 [     9]: 11120
      0.00444 [    19]: 01121
      0.00433 [     1]: 21101
      0.00428 [    11]: 11102
ROOT   7:  E=   -2497.8855270716 Eh  0.034 eV    272.5 cm**-1
      0.23751 [     9]: 11120
      0.16983 [    11]: 11102
      0.13165 [    15]: 10121
      0.09402 [     5]: 12101
      0.09101 [     7]: 11210
      0.05908 [    13]: 11012
      0.03210 [     1]: 21101
      0.03192 [     6]: 12011
      0.03182 [    12]: 11021
      0.02969 [    14]: 10211
      0.02689 [    19]: 01121
      0.02310 [     8]: 11201
      0.01622 [    18]: 01211
      0.01026 [    10]: 11111
      0.00979 [     2]: 21011
ROOT   8:  E=   -2497.8852437748 Eh  0.041 eV    334.6 cm**-1
      0.77441 [    10]: 11111
      0.04178 [     7]: 11210
      0.04135 [    13]: 11012
      0.03912 [     4]: 12110
      0.03487 [    16]: 10112
      0.01142 [    14]: 10211
      0.01124 [     6]: 12011
      0.01051 [     8]: 11201
      0.00910 [    12]: 11021
      0.00555 [    20]: 01112
      0.00366 [     0]: 21110
      0.00275 [    19]: 01121
      0.00260 [     1]: 21101
ROOT   9:  E=   -2497.8652246041 Eh  0.586 eV   4728.3 cm**-1
      0.43278 [    17]: 02111
      0.25918 [     3]: 20111
      0.13254 [    12]: 11021
      0.07718 [     0]: 21110
      0.05005 [     8]: 11201
      0.00958 [     9]: 11120
      0.00912 [    16]: 10112
      0.00689 [    10]: 11111
      0.00481 [     6]: 12011
      0.00472 [    18]: 01211
      0.00325 [    11]: 11102
      0.00318 [     7]: 11210
ROOT  10:  E=   -2497.8642536704 Eh  0.613 eV   4941.4 cm**-1
      0.31985 [     7]: 11210
      0.29737 [    13]: 11012
      0.14835 [    19]: 01121
      0.08772 [    14]: 10211
      0.03813 [     1]: 21101
      0.02444 [     2]: 21011
      0.01698 [    11]: 11102
      0.01645 [    16]: 10112
      0.01320 [    15]: 10121
      0.01119 [     0]: 21110
      0.00988 [     5]: 12101
      0.00520 [     4]: 12110
      0.00428 [    20]: 01112
ROOT  11:  E=   -2497.8634524352 Eh  0.634 eV   5117.3 cm**-1
      0.23116 [     5]: 12101
      0.18453 [    11]: 11102
      0.17084 [     9]: 11120
      0.10524 [    15]: 10121
      0.09697 [    18]: 01211
      0.06221 [     2]: 21011
      0.03301 [    19]: 01121
      0.03017 [     8]: 11201
      0.02972 [    12]: 11021
      0.02068 [     7]: 11210
      0.01045 [    20]: 01112
      0.00629 [    17]: 02111
      0.00521 [    14]: 10211
      0.00409 [     0]: 21110
      0.00310 [     3]: 20111
ROOT  12:  E=   -2497.8529329140 Eh  0.921 eV   7426.1 cm**-1
      0.19154 [     2]: 21011
      0.18717 [    15]: 10121
      0.16660 [    18]: 01211
      0.15172 [     9]: 11120
      0.10431 [    11]: 11102
      0.09749 [     5]: 12101
      0.02122 [    10]: 11111
      0.01711 [     0]: 21110
      0.01654 [    20]: 01112
      0.01107 [    14]: 10211
      0.01041 [     1]: 21101
      0.01010 [     6]: 12011
      0.00420 [    12]: 11021
      0.00388 [    19]: 01121
      0.00331 [     8]: 11201
ROOT  13:  E=   -2497.8525873732 Eh  0.930 eV   7501.9 cm**-1
      0.93985 [    10]: 11111
      0.01491 [    14]: 10211
      0.01191 [    18]: 01211
      0.01080 [     2]: 21011
      0.00887 [     6]: 12011
      0.00300 [    16]: 10112
      0.00292 [     0]: 21110
ROOT  14:  E=   -2497.8516669296 Eh  0.955 eV   7703.9 cm**-1
      0.36679 [    10]: 11111
      0.22671 [    16]: 10112
      0.20333 [     4]: 12110
      0.04220 [    20]: 01112
      0.02556 [    14]: 10211
      0.02321 [     0]: 21110
      0.01982 [    13]: 11012
      0.01928 [     7]: 11210
      0.01850 [     6]: 12011
      0.01807 [     3]: 20111
      0.01127 [    12]: 11021
      0.00967 [     8]: 11201
      0.00495 [     2]: 21011
      0.00374 [    18]: 01211
ROOT  15:  E=   -2497.8513331693 Eh  0.964 eV   7777.2 cm**-1
      0.27207 [     6]: 12011
      0.23761 [     1]: 21101
      0.14043 [    19]: 01121
      0.13838 [    14]: 10211
      0.06937 [     7]: 11210
      0.05873 [    10]: 11111
      0.03070 [     4]: 12110
      0.01173 [    18]: 01211
      0.01058 [    16]: 10112
      0.00837 [     5]: 12101
      0.00479 [    15]: 10121
      0.00443 [     2]: 21011
      0.00355 [    17]: 02111
ROOT  16:  E=   -2497.8509687369 Eh  0.974 eV   7857.1 cm**-1
      0.24930 [    20]: 01112
      0.19813 [     8]: 11201
      0.14992 [     0]: 21110
      0.13870 [    12]: 11021
      0.05442 [     3]: 20111
      0.04484 [    16]: 10112
      0.04044 [     4]: 12110
      0.02865 [    10]: 11111
      0.02292 [     2]: 21011
      0.02178 [    18]: 01211
      0.01937 [    11]: 11102
      0.01313 [     9]: 11120
      0.00486 [     6]: 12011
      0.00319 [    15]: 10121
      0.00262 [     5]: 12101
ROOT  17:  E=   -2497.7929202053 Eh  2.554 eV  20597.3 cm**-1
      0.22050 [     1]: 21101
      0.18381 [    19]: 01121
      0.15920 [    18]: 01211
      0.12868 [     2]: 21011
      0.09138 [    11]: 11102
      0.07682 [     9]: 11120
      0.03564 [    14]: 10211
      0.03524 [     6]: 12011
      0.01942 [     7]: 11210
      0.01792 [    13]: 11012
      0.00939 [    20]: 01112
      0.00848 [     0]: 21110
      0.00454 [    16]: 10112
      0.00448 [     4]: 12110
ROOT  18:  E=   -2497.7919954915 Eh  2.579 eV  20800.3 cm**-1
      0.23053 [    14]: 10211
      0.16910 [     6]: 12011
      0.14815 [     5]: 12101
      0.12550 [    15]: 10121
      0.12393 [    18]: 01211
      0.10781 [     2]: 21011
      0.02106 [     1]: 21101
      0.01105 [    16]: 10112
      0.00923 [     7]: 11210
      0.00780 [    11]: 11102
      0.00757 [     4]: 12110
      0.00678 [    19]: 01121
      0.00669 [    20]: 01112
      0.00644 [    13]: 11012
      0.00556 [     3]: 20111
      0.00543 [     0]: 21110
      0.00495 [    17]: 02111
ROOT  19:  E=   -2497.7916200442 Eh  2.589 eV  20882.7 cm**-1
      0.38150 [     0]: 21110
      0.33664 [    20]: 01112
      0.07285 [     4]: 12110
      0.06722 [    16]: 10112
      0.03482 [     3]: 20111
      0.02742 [     2]: 21011
      0.02206 [    17]: 02111
      0.02082 [    18]: 01211
      0.01184 [    13]: 11012
      0.00957 [     7]: 11210
      0.00303 [    10]: 11111
ROOT  20:  E=   -2497.7913922232 Eh  2.595 eV  20932.7 cm**-1
      0.29021 [     8]: 11201
      0.19930 [    12]: 11021
      0.13199 [    16]: 10112
      0.13113 [     4]: 12110
      0.07601 [     0]: 21110
      0.06907 [    20]: 01112
      0.03387 [    17]: 02111
      0.03147 [     3]: 20111
      0.01002 [    11]: 11102
      0.00557 [     9]: 11120
      0.00411 [     6]: 12011
      0.00411 [    14]: 10211
      0.00410 [     5]: 12101
      0.00284 [    15]: 10121
      0.00267 [    10]: 11111
ROOT  21:  E=   -2497.7912168740 Eh  2.600 eV  20971.2 cm**-1
      0.18281 [    14]: 10211
      0.18013 [     6]: 12011
      0.09836 [     1]: 21101
      0.09281 [     7]: 11210
      0.08346 [    18]: 01211
      0.07756 [     2]: 21011
      0.07410 [     5]: 12101
      0.06574 [    19]: 01121
      0.06551 [    13]: 11012
      0.03907 [    15]: 10121
      0.01492 [    11]: 11102
      0.00959 [     9]: 11120
      0.00749 [    16]: 10112
      0.00585 [     4]: 12110
ROOT  22:  E=   -2497.7908916857 Eh  2.609 eV  21042.5 cm**-1
      0.28453 [     4]: 12110
      0.24136 [    16]: 10112
      0.14445 [     8]: 11201
      0.10001 [    12]: 11021
      0.05132 [    17]: 02111
      0.04513 [     3]: 20111
      0.02664 [     6]: 12011
      0.01952 [    14]: 10211
      0.01732 [    11]: 11102
      0.01599 [    20]: 01112
      0.01546 [     0]: 21110
      0.01278 [     9]: 11120
      0.00538 [    18]: 01211
      0.00517 [     1]: 21101
      0.00449 [    19]: 01121
      0.00404 [    10]: 11111
      0.00339 [     2]: 21011
ROOT  23:  E=   -2497.7908085198 Eh  2.611 eV  21060.8 cm**-1
      0.21075 [    11]: 11102
      0.15396 [     9]: 11120
[...]
 3 96   43156.3    231.7   0.000000000   0.00000   0.00001   0.00003   0.00001
 3 97   43156.3    231.7   0.000000000   0.00000   0.00002   0.00004   0.00001
 3 98   43201.3    231.5   0.000000000   0.00000   0.00001   0.00002   0.00004
 3 99   43201.3    231.5   0.000000000   0.00000   0.00002   0.00001   0.00005
 3 100   43218.7    231.4   0.000000000   0.00000   0.00004   0.00004   0.00011
 3 101   43218.7    231.4   0.000000000   0.00000   0.00001   0.00004   0.00006
 4  5       0.0      0.0   0.000000000   0.00000   0.00000   0.00000   0.00000
 4  6   26281.0    380.5   0.000000003   0.00000   0.00043   0.00066   0.00100
 4  7   26281.0    380.5   0.000000000   0.00000   0.00029   0.00004   0.00005
 4  8   26283.0    380.5   0.000000001   0.00000   0.00036   0.00040   0.00061
 4  9   26283.0    380.5   0.000000002   0.00000   0.00038   0.00052   0.00081
 4 10   26361.3    379.3   0.000000001   0.00000   0.00072   0.00012   0.00024
 4 11   26361.3    379.3   0.000000000   0.00000   0.00026   0.00004   0.00010
 4 12   26363.0    379.3   0.000000004   0.00000   0.00119   0.00033   0.00044
 4 13   26363.0    379.3   0.000000002   0.00000   0.00099   0.00021   0.00031
 4 14   26473.9    377.7   0.000000004   0.00000   0.00015   0.00103   0.00078
 4 15   26473.9    377.7   0.000000001   0.00000   0.00007   0.00048   0.00060
 4 16   26475.9    377.7   0.000000001   0.00000   0.00005   0.00032   0.00051
 4 17   26475.9    377.7   0.000000001   0.00000   0.00012   0.00061   0.00038
 4 18   26553.9    376.6   0.000000000   0.00000   0.00023   0.00026   0.00016
 4 19   26553.9    376.6   0.000000000   0.00000   0.00033   0.00019   0.00008
 4 20   26557.3    376.5   0.000000001   0.00000   0.00074   0.00035   0.00013
 4 21   26557.3    376.5   0.000000000   0.00000   0.00024   0.00022   0.00014
 4 22   26600.0    375.9   0.000000000   0.00000   0.00008   0.00020   0.00004
 4 23   26600.0    375.9   0.000000000   0.00000   0.00002   0.00011   0.00001
 4 24   26602.8    375.9   0.000000000   0.00000   0.00016   0.00012   0.00003
 4 25   26602.8    375.9   0.000000000   0.00000   0.00020   0.00014   0.00001
 4 26   26637.6    375.4   0.000000001   0.00000   0.00005   0.00045   0.00027
 4 27   26637.6    375.4   0.000000002   0.00000   0.00011   0.00074   0.00041
 4 28   26639.5    375.4   0.000000000   0.00000   0.00010   0.00031   0.00015
 4 29   26639.5    375.4   0.000000000   0.00000   0.00006   0.00008   0.00003
 4 30   26782.8    373.4   0.000000010   0.00000   0.00206   0.00045   0.00054
 4 31   26782.8    373.4   0.000000000   0.00000   0.00033   0.00008   0.00016
 4 32   26785.1    373.3   0.000000013   0.00001   0.00240   0.00045   0.00061
 4 33   26785.1    373.3   0.000000003   0.00000   0.00111   0.00032   0.00032
 4 34   26802.0    373.1   0.000000003   0.00000   0.00003   0.00090   0.00081
 4 35   26802.0    373.1   0.000000002   0.00000   0.00038   0.00085   0.00052
 4 36   26804.4    373.1   0.000000002   0.00000   0.00033   0.00079   0.00007
 4 37   26804.4    373.1   0.000000001   0.00000   0.00011   0.00040   0.00056
 4 38   26904.9    371.7   0.000000003   0.00000   0.00122   0.00019   0.00032
 4 39   26904.9    371.7   0.000000011   0.00001   0.00221   0.00039   0.00055
 4 40   26906.6    371.7   0.000000000   0.00000   0.00039   0.00013   0.00008
 4 41   26906.6    371.7   0.000000001   0.00000   0.00060   0.00009   0.00016
 4 42   29174.3    342.8   0.000000000   0.00000   0.00017   0.00006   0.00009
 4 43   29174.3    342.8   0.000000000   0.00000   0.00012   0.00002   0.00012
 4 44   29213.6    342.3   0.000000000   0.00000   0.00004   0.00002   0.00008
 4 45   29213.6    342.3   0.000000000   0.00000   0.00031   0.00006   0.00007
 4 46   29519.2    338.8   0.000000000   0.00000   0.00003   0.00004   0.00018
 4 47   29519.2    338.8   0.000000000   0.00000   0.00006   0.00004   0.00019
 4 48   29597.7    337.9   0.000000000   0.00000   0.00003   0.00001   0.00006
 4 49   29597.7    337.9   0.000000000   0.00000   0.00007   0.00003   0.00008
 4 50   29780.6    335.8   0.000000000   0.00000   0.00002   0.00006   0.00003
 4 51   29780.6    335.8   0.000000000   0.00000   0.00005   0.00004   0.00005
 4 52   29807.0    335.5   0.000000000   0.00000   0.00001   0.00011   0.00003
 4 53   29807.0    335.5   0.000000000   0.00000   0.00002   0.00009   0.00007
 4 54   31567.0    316.8   0.000000002   0.00000   0.00021   0.00012   0.00087
 4 55   31567.0    316.8   0.000000000   0.00000   0.00012   0.00010   0.00024
 4 56   31618.5    316.3   0.000000008   0.00000   0.00045   0.00018   0.00169
 4 57   31618.5    316.3   0.000000000   0.00000   0.00007   0.00019   0.00039
 4 58   31689.7    315.6   0.000000000   0.00000   0.00027   0.00005   0.00033
 4 59   31689.7    315.6   0.000000000   0.00000   0.00001   0.00005   0.00034
 4 60   31716.4    315.3   0.000000000   0.00000   0.00008   0.00007   0.00041
 4 61   31716.4    315.3   0.000000001   0.00000   0.00020   0.00008   0.00061
 4 62   31938.5    313.1   0.000000000   0.00000   0.00031   0.00008   0.00010
 4 63   31938.5    313.1   0.000000000   0.00000   0.00006   0.00001   0.00012
 4 64   31986.2    312.6   0.000000000   0.00000   0.00016   0.00005   0.00008
 4 65   31986.2    312.6   0.000000000   0.00000   0.00013   0.00007   0.00023
 4 66   32085.0    311.7   0.000000000   0.00000   0.00027   0.00009   0.00014
 4 67   32085.0    311.7   0.000000000   0.00000   0.00021   0.00010   0.00019
 4 68   32141.7    311.1   0.000000002   0.00000   0.00026   0.00056   0.00060
 4 69   32141.7    311.1   0.000000000   0.00000   0.00020   0.00007   0.00036
 4 70   32216.7    310.4   0.000000000   0.00000   0.00020   0.00019   0.00011
 4 71   32216.7    310.4   0.000000001   0.00000   0.00032   0.00022   0.00023
 4 72   32283.7    309.8   0.000000000   0.00000   0.00004   0.00019   0.00006
 4 73   32283.7    309.8   0.000000000   0.00000   0.00021   0.00004   0.00012
 4 74   42470.6    235.5   0.000000000   0.00000   0.00001   0.00007   0.00004
 4 75   42470.6    235.5   0.000000000   0.00000   0.00001   0.00000   0.00006
 4 76   42475.2    235.4   0.000000000   0.00000   0.00001   0.00001   0.00003
 4 77   42475.2    235.4   0.000000000   0.00000   0.00000   0.00003   0.00001
 4 78   42748.6    233.9   0.000000000   0.00000   0.00004   0.00005   0.00014
 4 79   42748.6    233.9   0.000000000   0.00000   0.00001   0.00002   0.00001
 4 80   42756.9    233.9   0.000000000   0.00000   0.00003   0.00003   0.00008
 4 81   42756.9    233.9   0.000000000   0.00000   0.00000   0.00002   0.00004
 4 82   42894.2    233.1   0.000000000   0.00000   0.00006   0.00001   0.00002
 4 83   42894.2    233.1   0.000000000   0.00000   0.00006   0.00001   0.00001
 4 84   42900.7    233.1   0.000000000   0.00000   0.00002   0.00000   0.00002
 4 85   42900.7    233.1   0.000000000   0.00000   0.00002   0.00000   0.00001
 4 86   42984.8    232.6   0.000000000   0.00000   0.00002   0.00003   0.00001
 4 87   42984.8    232.6   0.000000000   0.00000   0.00002   0.00002   0.00001
 4 88   43000.8    232.6   0.000000000   0.00000   0.00009   0.00001   0.00002
 4 89   43000.8    232.6   0.000000000   0.00000   0.00003   0.00002   0.00001
 4 90   43033.7    232.4   0.000000000   0.00000   0.00001   0.00008   0.00002
 4 91   43033.7    232.4   0.000000000   0.00000   0.00003   0.00005   0.00001
 4 92   43048.4    232.3   0.000000000   0.00000   0.00003   0.00002   0.00001
 4 93   43048.4    232.3   0.000000000   0.00000   0.00001   0.00003   0.00002
 4 94   43134.8    231.8   0.000000000   0.00000   0.00002   0.00001   0.00003
 4 95   43134.8    231.8   0.000000000   0.00000   0.00002   0.00001   0.00003
 4 96   43156.2    231.7   0.000000000   0.00000   0.00007   0.00001   0.00002
 4 97   43156.2    231.7   0.000000000   0.00000   0.00005   0.00001   0.00003
 4 98   43201.3    231.5   0.000000000   0.00000   0.00003   0.00001   0.00011
 4 99   43201.3    231.5   0.000000000   0.00000   0.00002   0.00003   0.00006
 4 100   43218.6    231.4   0.000000000   0.00000   0.00001   0.00003   0.00007
 4 101   43218.6    231.4   0.000000000   0.00000   0.00004   0.00001   0.00006
 5  6   26281.0    380.5   0.000000000   0.00000   0.00029   0.00004   0.00005
 5  7   26281.0    380.5   0.000000003   0.00000   0.00043   0.00066   0.00100
 5  8   26283.0    380.5   0.000000002   0.00000   0.00038   0.00052   0.00081
 5  9   26283.0    380.5   0.000000001   0.00000   0.00036   0.00040   0.00061
 5 10   26361.3    379.3   0.000000000   0.00000   0.00026   0.00004   0.00010
 5 11   26361.3    379.3   0.000000001   0.00000   0.00072   0.00012   0.00024
 5 12   26363.0    379.3   0.000000002   0.00000   0.00099   0.00021   0.00031
 5 13   26363.0    379.3   0.000000004   0.00000   0.00119   0.00033   0.00044
 5 14   26473.9    377.7   0.000000001   0.00000   0.00007   0.00048   0.00060
 5 15   26473.9    377.7   0.000000004   0.00000   0.00015   0.00103   0.00078
 5 16   26475.9    377.7   0.000000001   0.00000   0.00012   0.00061   0.00038
 5 17   26475.9    377.7   0.000000001   0.00000   0.00005   0.00032   0.00051
 5 18   26553.9    376.6   0.000000000   0.00000   0.00033   0.00019   0.00008
 5 19   26553.9    376.6   0.000000000   0.00000   0.00023   0.00026   0.00016
 5 20   26557.3    376.5   0.000000000   0.00000   0.00024   0.00022   0.00014
 5 21   26557.3    376.5   0.000000001   0.00000   0.00074   0.00035   0.00013
 5 22   26600.0    375.9   0.000000000   0.00000   0.00002   0.00011   0.00001
 5 23   26600.0    375.9   0.000000000   0.00000   0.00008   0.00020   0.00004
 5 24   26602.8    375.9   0.000000000   0.00000   0.00020   0.00014   0.00001
 5 25   26602.8    375.9   0.000000000   0.00000   0.00016   0.00012   0.00003
 5 26   26637.6    375.4   0.000000002   0.00000   0.00011   0.00074   0.00041
 5 27   26637.6    375.4   0.000000001   0.00000   0.00005   0.00045   0.00027
 5 28   26639.5    375.4   0.000000000   0.00000   0.00006   0.00008   0.00003
 5 29   26639.5    375.4   0.000000000   0.00000   0.00010   0.00031   0.00015
 5 30   26782.8    373.4   0.000000000   0.00000   0.00033   0.00008   0.00016
 5 31   26782.8    373.4   0.000000010   0.00000   0.00206   0.00045   0.00054
 5 32   26785.1    373.3   0.000000003   0.00000   0.00111   0.00032   0.00032
 5 33   26785.1    373.3   0.000000013   0.00001   0.00240   0.00045   0.00061
 5 34   26802.0    373.1   0.000000002   0.00000   0.00038   0.00085   0.00052
 5 35   26802.0    373.1   0.000000003   0.00000   0.00003   0.00090   0.00081
 5 36   26804.4    373.1   0.000000001   0.00000   0.00011   0.00040   0.00056
 5 37   26804.4    373.1   0.000000002   0.00000   0.00033   0.00079   0.00007
 5 38   26904.9    371.7   0.000000011   0.00001   0.00221   0.00039   0.00055
 5 39   26904.9    371.7   0.000000003   0.00000   0.00122   0.00019   0.00032
 5 40   26906.6    371.7   0.000000001   0.00000   0.00060   0.00009   0.00016
 5 41   26906.6    371.7   0.000000000   0.00000   0.00039   0.00013   0.00008
 5 42   29174.3    342.8   0.000000000   0.00000   0.00012   0.00002   0.00012
 5 43   29174.3    342.8   0.000000000   0.00000   0.00017   0.00006   0.00009
 5 44   29213.6    342.3   0.000000000   0.00000   0.00031   0.00006   0.00007
 5 45   29213.6    342.3   0.000000000   0.00000   0.00004   0.00002   0.00008
 5 46   29519.2    338.8   0.000000000   0.00000   0.00006   0.00004   0.00019
 5 47   29519.2    338.8   0.000000000   0.00000   0.00003   0.00004   0.00018
 5 48   29597.7    337.9   0.000000000   0.00000   0.00007   0.00003   0.00008
 5 49   29597.7    337.9   0.000000000   0.00000   0.00003   0.00001   0.00006
 5 50   29780.6    335.8   0.000000000   0.00000   0.00005   0.00004   0.00005
 5 51   29780.6    335.8   0.000000000   0.00000   0.00002   0.00006   0.00003
 5 52   29807.0    335.5   0.000000000   0.00000   0.00002   0.00009   0.00007
 5 53   29807.0    335.5   0.000000000   0.00000   0.00001   0.00011   0.00003
 5 54   31567.0    316.8   0.000000000   0.00000   0.00012   0.00010   0.00024
 5 55   31567.0    316.8   0.000000002   0.00000   0.00021   0.00012   0.00087
 5 56   31618.5    316.3   0.000000000   0.00000   0.00007   0.00019   0.00039
 5 57   31618.5    316.3   0.000000008   0.00000   0.00045   0.00018   0.00169
 5 58   31689.7    315.6   0.000000000   0.00000   0.00001   0.00005   0.00034
 5 59   31689.7    315.6   0.000000000   0.00000   0.00027   0.00005   0.00033
 5 60   31716.4    315.3   0.000000001   0.00000   0.00020   0.00008   0.00061
 5 61   31716.4    315.3   0.000000000   0.00000   0.00008   0.00007   0.00041
 5 62   31938.5    313.1   0.000000000   0.00000   0.00006   0.00001   0.00012
 5 63   31938.5    313.1   0.000000000   0.00000   0.00031   0.00008   0.00010
 5 64   31986.2    312.6   0.000000000   0.00000   0.00013   0.00007   0.00023
 5 65   31986.2    312.6   0.000000000   0.00000   0.00016   0.00005   0.00008
 5 66   32085.0    311.7   0.000000000   0.00000   0.00021   0.00010   0.00019
 5 67   32085.0    311.7   0.000000000   0.00000   0.00027   0.00009   0.00014
 5 68   32141.7    311.1   0.000000000   0.00000   0.00020   0.00007   0.00036
 5 69   32141.7    311.1   0.000000002   0.00000   0.00026   0.00056   0.00060
 5 70   32216.7    310.4   0.000000001   0.00000   0.00032   0.00022   0.00023
 5 71   32216.7    310.4   0.000000000   0.00000   0.00020   0.00019   0.00011
 5 72   32283.7    309.8   0.000000000   0.00000   0.00021   0.00004   0.00012
 5 73   32283.7    309.8   0.000000000   0.00000   0.00004   0.00019   0.00006
 5 74   42470.6    235.5   0.000000000   0.00000   0.00001   0.00000   0.00006
 5 75   42470.6    235.5   0.000000000   0.00000   0.00001   0.00007   0.00004
 5 76   42475.2    235.4   0.000000000   0.00000   0.00000   0.00003   0.00001
 5 77   42475.2    235.4   0.000000000   0.00000   0.00001   0.00001   0.00003
 5 78   42748.6    233.9   0.000000000   0.00000   0.00001   0.00002   0.00001
 5 79   42748.6    233.9   0.000000000   0.00000   0.00004   0.00005   0.00014
 5 80   42756.9    233.9   0.000000000   0.00000   0.00000   0.00002   0.00004
 5 81   42756.9    233.9   0.000000000   0.00000   0.00003   0.00003   0.00008
 5 82   42894.2    233.1   0.000000000   0.00000   0.00006   0.00001   0.00001
 5 83   42894.2    233.1   0.000000000   0.00000   0.00006   0.00001   0.00002
 5 84   42900.7    233.1   0.000000000   0.00000   0.00002   0.00000   0.00001
 5 85   42900.7    233.1   0.000000000   0.00000   0.00002   0.00000   0.00002
 5 86   42984.8    232.6   0.000000000   0.00000   0.00002   0.00002   0.00001
 5 87   42984.8    232.6   0.000000000   0.00000   0.00002   0.00003   0.00001
 5 88   43000.8    232.6   0.000000000   0.00000   0.00003   0.00002   0.00001
 5 89   43000.8    232.6   0.000000000   0.00000   0.00009   0.00001   0.00002
 5 90   43033.7    232.4   0.000000000   0.00000   0.00003   0.00005   0.00001
 5 91   43033.7    232.4   0.000000000   0.00000   0.00001   0.00008   0.00002
 5 92   43048.4    232.3   0.000000000   0.00000   0.00001   0.00003   0.00002
 5 93   43048.4    232.3   0.000000000   0.00000   0.00003   0.00002   0.00001
 5 94   43134.8    231.8   0.000000000   0.00000   0.00002   0.00001   0.00003
 5 95   43134.8    231.8   0.000000000   0.00000   0.00002   0.00001   0.00003
 5 96   43156.2    231.7   0.000000000   0.00000   0.00005   0.00001   0.00003
 5 97   43156.2    231.7   0.000000000   0.00000   0.00007   0.00001   0.00002
 5 98   43201.3    231.5   0.000000000   0.00000   0.00002   0.00003   0.00006
 5 99   43201.3    231.5   0.000000000   0.00000   0.00003   0.00001   0.00011
 5 100   43218.6    231.4   0.000000000   0.00000   0.00004   0.00001   0.00006
 5 101   43218.6    231.4   0.000000000   0.00000   0.00001   0.00003   0.00007

------------------------------------------------------------------------------
                           SOC CORRECTED DIPOLE MOMENTS
------------------------------------------------------------------------------
      TX        TY        TZ           |T|
   (Debye)   (Debye)   (Debye)      (Debye)
------------------------------------------------------------------------------
  -7.06170  38.67721  60.88262     72.47405

--------------
CASSCF TIMINGS
--------------

Total time                       ...     2487.7 sec
Sum of individual times          ...     2496.1 sec (100.3%)

Calculation of AO operators
   F(Core) operator              ...       46.5 sec (  1.9%)
   G(Act) operator               ...       43.0 sec (  1.7%)
   J(AO) operators               ...        0.0 sec (  0.0%)
Calculation of MO transformed quantities
   J(MO) operators               ...        3.6 sec (  0.1%)
   (pq|rs) integrals             ...        0.0 sec (  0.0%)
   AO->MO one electron integrals ...        0.2 sec (  0.0%)
Configuration interaction steps
   CI-setup phase                ...        0.0 sec (  0.0%)
   CI-solution phase             ...        0.0 sec (  0.0%)
   Generation of densities       ...        0.0 sec (  0.0%)
Orbital improvement steps
   Orbital gradient              ...        0.0 sec (  0.0%)
PT2 
   NEVPT2 time                   ...     2369.8 sec ( 95.3%)
Properties                       ...       17.1 sec (  0.7%)
   SOC integral calculation      ...       15.9 sec (  0.6%)
   SSC RMEs (incl. integrals)    ...        0.0 sec (  0.0%)
   SOC RMEs                      ...        0.0 sec (  0.0%)

Maximum memory used throughout the entire CASSCF-calculation: 739.2 MB

-------------------------   --------------------
FINAL SINGLE POINT ENERGY     -2502.906478726909
-------------------------   --------------------


                            ***************************************
                            *     ORCA property calculations      *
                            ***************************************

                                    ---------------------
                                    Active property flags
                                    ---------------------
   (+) Dipole Moment


------------------------------------------------------------------------------
                       ORCA ELECTRIC PROPERTIES CALCULATION
------------------------------------------------------------------------------

Dipole Moment Calculation                       ... on
Quadrupole Moment Calculation                   ... off
Polarizability Calculation                      ... off
GBWName                                         ... nevpt2.gbw
Electron density                                ... nevpt2.scfp
The origin for moment calculation is the CENTER OF MASS  = (13.164235, 11.400027 14.963051)

-------------
DIPOLE MOMENT
-------------
                                X             Y             Z
Electronic contribution:      2.86710     -15.67092     -24.60746
Nuclear contribution   :     -2.77823      15.21648      23.95259
                        -----------------------------------------
Total Dipole Moment    :      0.08886      -0.45445      -0.65488
                        -----------------------------------------
Magnitude (a.u.)       :      0.80205
Magnitude (Debye)      :      2.03865



--------------------
Rotational spectrum 
--------------------
 
Rotational constants in cm-1:     0.001937     0.001414     0.001023 
Rotational constants in MHz :    58.079822    42.397457    30.678600 

 Dipole components along the rotational axes: 
x,y,z [a.u.] :    -0.738976    -0.311651    -0.008334 
x,y,z [Debye]:    -1.878329    -0.792154    -0.021183 

 

Timings for individual modules:

Sum of individual times         ...     2513.267 sec (=  41.888 min)
GTO integral calculation        ...        9.967 sec (=   0.166 min)   0.4 %
SCF iterations                  ...        8.179 sec (=   0.136 min)   0.3 %
CASSCF iterations               ...     2495.122 sec (=  41.585 min)  99.3 %
                             ****ORCA TERMINATED NORMALLY****
TOTAL RUN TIME: 0 days 0 hours 41 minutes 54 seconds 74 msec
