
                                 *****************
                                 * O   R   C   A *
                                 *****************

                                            #,                                       
                                            ###                                      
                                            ####                                     
                                            #####                                    
                                            ######                                   
                                           ########,                                 
                                     ,,################,,,,,                         
                               ,,#################################,,                 
                          ,,##########################################,,             
                       ,#########################################, ''#####,          
                    ,#############################################,,   '####,        
                  ,##################################################,,,,####,       
                ,###########''''           ''''###############################       
              ,#####''   ,,,,##########,,,,          '''####'''          '####       
            ,##' ,,,,###########################,,,                        '##       
           ' ,,###''''                  '''############,,,                           
         ,,##''                                '''############,,,,        ,,,,,,###''
      ,#''                                            '''#######################'''  
     '                                                          ''''####''''         
             ,#######,   #######,   ,#######,      ##                                
            ,#'     '#,  ##    ##  ,#'     '#,    #''#        ######   ,####,        
            ##       ##  ##   ,#'  ##            #'  '#       #        #'  '#        
            ##       ##  #######   ##           ,######,      #####,   #    #        
            '#,     ,#'  ##    ##  '#,     ,#' ,#      #,         ##   #,  ,#        
             '#######'   ##     ##  '#######'  #'      '#     #####' # '####'        



                  #######################################################
                  #                        -***-                        #
                  #          Department of theory and spectroscopy      #
                  #    Directorship and core code : Frank Neese         #
                  #        Max Planck Institute fuer Kohlenforschung    #
                  #                Kaiser Wilhelm Platz 1               #
                  #                 D-45470 Muelheim/Ruhr               #
                  #                      Germany                        #
                  #                                                     #
                  #                  All rights reserved                #
                  #                        -***-                        #
                  #######################################################


                         Program Version 5.0.3 -  RELEASE  -


 With contributions from (in alphabetic order):
   Daniel Aravena         : Magnetic Suceptibility
   Michael Atanasov       : Ab Initio Ligand Field Theory (pilot matlab implementation)
   Alexander A. Auer      : GIAO ZORA, VPT2 properties, NMR spectrum
   Ute Becker             : Parallelization
   Giovanni Bistoni       : ED, misc. LED, open-shell LED, HFLD
   Martin Brehm           : Molecular dynamics
   Dmytro Bykov           : SCF Hessian
   Vijay G. Chilkuri      : MRCI spin determinant printing, contributions to CSF-ICE
   Dipayan Datta          : RHF DLPNO-CCSD density
   Achintya Kumar Dutta   : EOM-CC, STEOM-CC
   Dmitry Ganyushin       : Spin-Orbit,Spin-Spin,Magnetic field MRCI
   Miquel Garcia          : C-PCM and meta-GGA Hessian, CC/C-PCM, Gaussian charge scheme
   Yang Guo               : DLPNO-NEVPT2, F12-NEVPT2, CIM, IAO-localization
   Andreas Hansen         : Spin unrestricted coupled pair/coupled cluster methods
   Benjamin Helmich-Paris : MC-RPA, TRAH-SCF, COSX integrals
   Lee Huntington         : MR-EOM, pCC
   Robert Izsak           : Overlap fitted RIJCOSX, COSX-SCS-MP3, EOM
   Marcus Kettner         : VPT2
   Christian Kollmar      : KDIIS, OOCD, Brueckner-CCSD(T), CCSD density, CASPT2, CASPT2-K
   Simone Kossmann        : Meta GGA functionals, TD-DFT gradient, OOMP2, MP2 Hessian
   Martin Krupicka        : Initial AUTO-CI
   Lucas Lang             : DCDCAS
   Marvin Lechner         : AUTO-CI (C++ implementation), FIC-MRCC
   Dagmar Lenk            : GEPOL surface, SMD
   Dimitrios Liakos       : Extrapolation schemes; Compound Job, initial MDCI parallelization
   Dimitrios Manganas     : Further ROCIS development; embedding schemes
   Dimitrios Pantazis     : SARC Basis sets
   Anastasios Papadopoulos: AUTO-CI, single reference methods and gradients
   Taras Petrenko         : DFT Hessian,TD-DFT gradient, ASA, ECA, R-Raman, ABS, FL, XAS/XES, NRVS
   Peter Pinski           : DLPNO-MP2, DLPNO-MP2 Gradient
   Christoph Reimann      : Effective Core Potentials
   Marius Retegan         : Local ZFS, SOC
   Christoph Riplinger    : Optimizer, TS searches, QM/MM, DLPNO-CCSD(T), (RO)-DLPNO pert. Triples
   Tobias Risthaus        : Range-separated hybrids, TD-DFT gradient, RPA, STAB
   Michael Roemelt        : Original ROCIS implementation
   Masaaki Saitow         : Open-shell DLPNO-CCSD energy and density
   Barbara Sandhoefer     : DKH picture change effects
   Avijit Sen             : IP-ROCIS
   Kantharuban Sivalingam : CASSCF convergence, NEVPT2, FIC-MRCI
   Bernardo de Souza      : ESD, SOC TD-DFT
   Georgi Stoychev        : AutoAux, RI-MP2 NMR, DLPNO-MP2 response
   Willem Van den Heuvel  : Paramagnetic NMR
   Boris Wezisla          : Elementary symmetry handling
   Frank Wennmohs         : Technical directorship


 We gratefully acknowledge several colleagues who have allowed us to
 interface, adapt or use parts of their codes:
   Stefan Grimme, W. Hujo, H. Kruse, P. Pracht,  : VdW corrections, initial TS optimization,
                  C. Bannwarth, S. Ehlert          DFT functionals, gCP, sTDA/sTD-DF
   Ed Valeev, F. Pavosevic, A. Kumar             : LibInt (2-el integral package), F12 methods
   Garnet Chan, S. Sharma, J. Yang, R. Olivares  : DMRG
   Ulf Ekstrom                                   : XCFun DFT Library
   Mihaly Kallay                                 : mrcc  (arbitrary order and MRCC methods)
   Jiri Pittner, Ondrej Demel                    : Mk-CCSD
   Frank Weinhold                                : gennbo (NPA and NBO analysis)
   Christopher J. Cramer and Donald G. Truhlar   : smd solvation model
   Lars Goerigk                                  : TD-DFT with DH, B97 family of functionals
   V. Asgeirsson, H. Jonsson                     : NEB implementation
   FAccTs GmbH                                   : IRC, NEB, NEB-TS, DLPNO-Multilevel, CI-OPT
                                                   MM, QMMM, 2- and 3-layer-ONIOM, Crystal-QMMM,
                                                   LR-CPCM, SF, NACMEs, symmetry and pop. for TD-DFT,
                                                   nearIR, NL-DFT gradient (VV10), updates on ESD,
                                                   ML-optimized integration grids
   S Lehtola, MJT Oliveira, MAL Marques          : LibXC Library
   Liviu Ungur et al                             : ANISO software


 Your calculation uses the libint2 library for the computation of 2-el integrals
 For citations please refer to: http://libint.valeyev.net

 Your ORCA version has been built with support for libXC version: 5.1.0
 For citations please refer to: https://tddft.org/programs/libxc/

 This ORCA versions uses:
   CBLAS   interface :  Fast vector & matrix operations
   LAPACKE interface :  Fast linear algebra routines
   SCALAPACK package :  Parallel linear algebra routines
   Shared memory     :  Shared parallel matrices
   BLAS/LAPACK       :  OpenBLAS 0.3.15  USE64BITINT DYNAMIC_ARCH NO_AFFINITY Sandybridge SINGLE_THREADED
        Core in use  :  Sandybridge
   Copyright (c) 2011-2014, The OpenBLAS Project




***************************************
The coordinates will be read from file: pbe.xyz
***************************************


================================================================================

cite the ECPs for Au [Def2-ECP] as follows:
Ce-Yb(ecp-28): M. Dolg, H. Stoll, H.Preuss, J. Chem. Phys., 1989, 90, 1730-1734.
Y-Cd(ecp-28), Hf-Hg(ecp-46): D. Andrae,U. Haeussermann, M. Dolg, H. Stoll, H. Preuss, Theor. Chim. Acta, 1990, 77, 123-141.
In-Sb(ecp-28), Tl-Bi(ecp-46): B. Metz, H. Stoll, M. Dolg, J. Chem. Phys., 2000, 113, 2563-2569.
Te-Xe(ecp-28), Po-Rn(ecp-46): K. A. Peterson, D. Figgen, E. Goll, H. Stoll, M. Dolg, J. Chem. Phys., 2003, 119, 11113-11123.
Rb(ecp-28), Cs(ecp-46): T. Leininger, A. Nicklass, W. Kuechle, H. Stoll, M. Dolg, A. Bergner, Chem. Phys. Lett., 1996, 255, 274-280.
Sr(ecp-28), Ba(ecp-46): M. Kaupp, P. V. Schleyer, H. Stoll and H. Preuss, J. Chem. Phys., 1991, 94, 1360-1366.
La(ecp-46): M. Dolg, H. Stoll, A. Savin, H. Preuss, Theor. Chim. Acta, 1989, 75, 173-194.
Lu(ecp-28): X. Cao, M. Dolg, J. Chem. Phys., 2001, 115, 7348-7355.

ECP parameters for Au [Def2-ECP] have been obtained from:
TURBOMOLE (7.0.2)

----- Orbital basis set information -----
Your calculation utilizes the basis: def2-TZVP
   F. Weigend and R. Ahlrichs, Phys. Chem. Chem. Phys. 7, 3297 (2005).

----- AuxJ basis set information -----
Your calculation utilizes the auxiliary basis: def2/J
   F. Weigend, Phys. Chem. Chem. Phys. 8, 1057 (2006).

----- AuxC basis set information -----
Your calculation utilizes the auxiliary basis: def2-TZVP/C
  H-La, Hf-Rn : A. Hellweg, C. Hattig, S. Hofener and W. Klopper, Theor. Chem. Acc. 117, 587 (2007).
        Ce-Lu : J. Chmela and M. E. Harding, Mol. Phys. (2018).

================================================================================
                                        WARNINGS
                       Please study these warnings very carefully!
================================================================================


WARNING: your system is open-shell and RHF/RKS was chosen
  ===> : WILL SWITCH to UHF/UKS


WARNING: No MP2 level density has been requested!
         To caclulate MP2 level properties use
         %mp2 Density relaxed end
         or
         %mp2 Density unrelaxed end
         Otherwise for double-hybrid DFT only the energy is correct!

WARNING: The frozen-core approximation is turned on by default for 
         the MP2 part of double-hybrid DFT.

INFO   : the flag for use of the SHARK integral package has been found!



***************************************
The coordinates will be read from file: pbe.xyz
***************************************


================================================================================

cite the ECPs for Au [Def2-ECP] as follows:
Ce-Yb(ecp-28): M. Dolg, H. Stoll, H.Preuss, J. Chem. Phys., 1989, 90, 1730-1734.
Y-Cd(ecp-28), Hf-Hg(ecp-46): D. Andrae,U. Haeussermann, M. Dolg, H. Stoll, H. Preuss, Theor. Chim. Acta, 1990, 77, 123-141.
In-Sb(ecp-28), Tl-Bi(ecp-46): B. Metz, H. Stoll, M. Dolg, J. Chem. Phys., 2000, 113, 2563-2569.
Te-Xe(ecp-28), Po-Rn(ecp-46): K. A. Peterson, D. Figgen, E. Goll, H. Stoll, M. Dolg, J. Chem. Phys., 2003, 119, 11113-11123.
Rb(ecp-28), Cs(ecp-46): T. Leininger, A. Nicklass, W. Kuechle, H. Stoll, M. Dolg, A. Bergner, Chem. Phys. Lett., 1996, 255, 274-280.
Sr(ecp-28), Ba(ecp-46): M. Kaupp, P. V. Schleyer, H. Stoll and H. Preuss, J. Chem. Phys., 1991, 94, 1360-1366.
La(ecp-46): M. Dolg, H. Stoll, A. Savin, H. Preuss, Theor. Chim. Acta, 1989, 75, 173-194.
Lu(ecp-28): X. Cao, M. Dolg, J. Chem. Phys., 2001, 115, 7348-7355.

ECP parameters for Au [Def2-ECP] have been obtained from:
TURBOMOLE (7.0.2)

----- Orbital basis set information -----
Your calculation utilizes the basis: def2-TZVP
   F. Weigend and R. Ahlrichs, Phys. Chem. Chem. Phys. 7, 3297 (2005).

----- AuxJ basis set information -----
Your calculation utilizes the auxiliary basis: def2/J
   F. Weigend, Phys. Chem. Chem. Phys. 8, 1057 (2006).

----- AuxC basis set information -----
Your calculation utilizes the auxiliary basis: def2-TZVP/C
  H-La, Hf-Rn : A. Hellweg, C. Hattig, S. Hofener and W. Klopper, Theor. Chem. Acc. 117, 587 (2007).
        Ce-Lu : J. Chmela and M. E. Harding, Mol. Phys. (2018).

================================================================================
                                        WARNINGS
                       Please study these warnings very carefully!
================================================================================


WARNING: No MP2 level density has been requested!
         To caclulate MP2 level properties use
         %mp2 Density relaxed end
         or
         %mp2 Density unrelaxed end
         Otherwise for double-hybrid DFT only the energy is correct!

WARNING: The frozen-core approximation is turned on by default for 
         the MP2 part of double-hybrid DFT.

INFO   : the flag for use of the SHARK integral package has been found!

================================================================================
                                       INPUT FILE
================================================================================
NAME = b2plyp.inp
|  1> !RI-B2PLYP def2-TZVP def2-TZVP/C
|  2> !RIJCOSX VERYSLOWCONV
|  3> 
|  4> %scf
|  5>   AutoTRAHIter 200
|  6>   maxiter 400
|  7> end
|  8> 
|  9> 
| 10> %pal nprocs 6 end 
| 11> 
| 12> *xyzfile 0 6 pbe.xyz
| 13> 
| 14> $new_job
| 15> 
| 16> !RI-B2PLYP def2-TZVP def2-TZVP/C
| 17> !RIJCOSX VERYSLOWCONV
| 18> 
| 19> %scf
| 20>   AutoTRAHIter 200
| 21>   maxiter 400
| 22> end
| 23> 
| 24> 
| 25> %pal nprocs 6 end 
| 26> 
| 27> *xyzfile 0 4 pbe.xyz
| 28> 
| 29> 
| 30> 
| 31> 
| 32> 
| 33>                          ****END OF INPUT****
================================================================================


                 $$$$$$$$$$$$$$$$$$$$$$$$$$$$$$$$$$$$$$$$$$$$$$ 
                 $ THERE ARE  2 JOBS TO BE PROCESSED THIS RUN $
                 $$$$$$$$$$$$$$$$$$$$$$$$$$$$$$$$$$$$$$$$$$$$$$ 




                 $$$$$$$$$$$$$$$$  JOB NUMBER  1 $$$$$$$$$$$$$$


                       ****************************
                       * Single Point Calculation *
                       ****************************

---------------------------------
CARTESIAN COORDINATES (ANGSTROEM)
---------------------------------
  Au     8.516217    8.250930    6.251554
  Au     6.230262    7.080884    5.724317
  Au     6.055401    5.182979    8.090920
  Au     4.058692    5.491282    6.159023
  Au     4.124676    7.298985    8.183506
  Au    10.861908    9.225831    7.119786
  Au     9.268554    8.462853    9.058983
  Au     5.267881    8.643511   10.144403
  Au     7.724779    6.086430    9.907211
  Au     7.822547    8.534562   11.267427
  Mn     6.775272    7.821443    8.192493

----------------------------
CARTESIAN COORDINATES (A.U.)
----------------------------
  NO LB      ZA    FRAG     MASS         X           Y           Z
   0 Au   19.0000*   0   196.966   16.093318   15.591998   11.813726
   1 Au   19.0000*   0   196.966   11.773489   13.380932   10.817392
   2 Au   19.0000*   0   196.966   11.443050    9.794411   15.289622
   3 Au   19.0000*   0   196.966    7.669816   10.377018   11.638867
   4 Au   19.0000*   0   196.966    7.794508   13.793083   15.464585
   5 Au   19.0000*   0   196.966   20.526032   17.434294   13.454446
   6 Au   19.0000*   0   196.966   17.515028   15.992474   17.118997
   7 Au   19.0000*   0   196.966    9.954852   16.333869   19.170144
   8 Au   19.0000*   0   196.966   14.597717   11.501687   18.721915
   9 Au   19.0000*   0   196.966   14.782472   16.127985   21.292352
  10 Mn   25.0000    0    54.940   12.803408   14.780385   15.481568
* core charge reduced due to ECP

--------------------------------
INTERNAL COORDINATES (ANGSTROEM)
--------------------------------
 Au     0   0   0     0.000000000000     0.00000000     0.00000000
 Au     1   0   0     2.621559628126     0.00000000     0.00000000
 Au     2   1   0     3.038655489006    99.92197530     0.00000000
 Au     2   1   3     2.726082446946   157.33800096     8.63160052
 Au     4   2   1     2.714898931100    73.21915748    56.81268711
 Au     1   2   3     2.684497107830   171.51756349   357.95738728
 Au     6   1   2     2.623242050464    66.59180727   330.52740114
 Au     5   4   2     2.638140616303   154.70830652   309.97955693
 Au     3   2   1     2.627158049261   106.68393770    18.25681068
 Au     7   6   1     2.640701375655   160.55040192   234.72274996
 Mn     8   5   4     2.599611284648    62.09618369    28.03983835

---------------------------
INTERNAL COORDINATES (A.U.)
---------------------------
 Au     0   0   0     0.000000000000     0.00000000     0.00000000
 Au     1   0   0     4.954029740903     0.00000000     0.00000000
 Au     2   1   0     5.742226689558    99.92197530     0.00000000
 Au     2   1   3     5.151549243218   157.33800096     8.63160052
 Au     4   2   1     5.130415461054    73.21915748    56.81268711
 Au     1   2   3     5.072964341103   171.51756349   357.95738728
 Au     6   1   2     4.957209058364    66.59180727   330.52740114
 Au     5   4   2     4.985363267588   154.70830652   309.97955693
 Au     3   2   1     4.964609223630   106.68393770    18.25681068
 Au     7   6   1     4.990202401456   160.55040192   234.72274996
 Mn     8   5   4     4.912553382637    62.09618369    28.03983835

---------------------
BASIS SET INFORMATION
---------------------
There are 2 groups of distinct atoms

 Group   1 Type Au  : 8s7p6d1f contracted to 6s4p3d1f pattern {311111/4111/411/1}
 Group   2 Type Mn  : 17s11p7d1f contracted to 6s4p4d1f pattern {842111/6311/4111/1}

Atom   0Au   basis set group =>   1
Atom   1Au   basis set group =>   1
Atom   2Au   basis set group =>   1
Atom   3Au   basis set group =>   1
Atom   4Au   basis set group =>   1
Atom   5Au   basis set group =>   1
Atom   6Au   basis set group =>   1
Atom   7Au   basis set group =>   1
Atom   8Au   basis set group =>   1
Atom   9Au   basis set group =>   1
Atom  10Mn   basis set group =>   2
---------------------------------
AUXILIARY/J BASIS SET INFORMATION
---------------------------------
There are 2 groups of distinct atoms

 Group   1 Type Au  : 11s5p5d3f3g contracted to 8s5p5d2f3g pattern {41111111/11111/11111/21/111}
 Group   2 Type Mn  : 19s5p5d3f3g contracted to 8s5p5d2f3g pattern {121111111/11111/11111/21/111}

Atom   0Au   basis set group =>   1
Atom   1Au   basis set group =>   1
Atom   2Au   basis set group =>   1
Atom   3Au   basis set group =>   1
Atom   4Au   basis set group =>   1
Atom   5Au   basis set group =>   1
Atom   6Au   basis set group =>   1
Atom   7Au   basis set group =>   1
Atom   8Au   basis set group =>   1
Atom   9Au   basis set group =>   1
Atom  10Mn   basis set group =>   2
---------------------------------
AUXILIARY/C BASIS SET INFORMATION
---------------------------------
There are 2 groups of distinct atoms

 Group   1 Type Au  : 8s8p7d5f3g2h contracted to 8s8p7d5f3g2h pattern {11111111/11111111/1111111/11111/111/11}
 Group   2 Type Mn  : 11s9p8d6f5g2h contracted to 9s8p8d6f5g2h pattern {311111111/21111111/11111111/111111/11111/11}

Atom   0Au   basis set group =>   1
Atom   1Au   basis set group =>   1
Atom   2Au   basis set group =>   1
Atom   3Au   basis set group =>   1
Atom   4Au   basis set group =>   1
Atom   5Au   basis set group =>   1
Atom   6Au   basis set group =>   1
Atom   7Au   basis set group =>   1
Atom   8Au   basis set group =>   1
Atom   9Au   basis set group =>   1
Atom  10Mn   basis set group =>   2
-------------------------
ECP PARAMETER INFORMATION
-------------------------

 Group 1, Type Au ECP Def2-ECP (replacing 60 core electrons, lmax=3)

Atom   0Au   ECP group =>   1
Atom   1Au   ECP group =>   1
Atom   2Au   ECP group =>   1
Atom   3Au   ECP group =>   1
Atom   4Au   ECP group =>   1
Atom   5Au   ECP group =>   1
Atom   6Au   ECP group =>   1
Atom   7Au   ECP group =>   1
Atom   8Au   ECP group =>   1
Atom   9Au   ECP group =>   1



           ************************************************************
           *        Program running with 6 parallel MPI-processes     *
           *              working on a common directory               *
           ************************************************************
------------------------------------------------------------------------------
                           ORCA GTO INTEGRAL CALCULATION
                           -- RI-GTO INTEGRALS CHOSEN --
------------------------------------------------------------------------------
------------------------------------------------------------------------------
                   ___                                                        
                  /   \      - P O W E R E D   B Y -                         
                 /     \                                                     
                 |  |  |   _    _      __       _____    __    __             
                 |  |  |  | |  | |    /  \     |  _  \  |  |  /  |          
                  \  \/   | |  | |   /    \    | | | |  |  | /  /          
                 / \  \   | |__| |  /  /\  \   | |_| |  |  |/  /          
                |  |  |   |  __  | /  /__\  \  |    /   |      \           
                |  |  |   | |  | | |   __   |  |    \   |  |\   \          
                \     /   | |  | | |  |  |  |  | |\  \  |  | \   \       
                 \___/    |_|  |_| |__|  |__|  |_| \__\ |__|  \__/        
                                                                              
                      - O R C A' S   B I G   F R I E N D -                    
                                      &                                       
                       - I N T E G R A L  F E E D E R -                       
                                                                              
 v1 FN, 2020, v2 2021                                                         
------------------------------------------------------------------------------


Reading SHARK input file b2plyp.SHARKINP.tmp ... ok
----------------------
SHARK INTEGRAL PACKAGE
----------------------

Number of atoms                             ...     11
Number of basis functions                   ...    445
Number of shells                            ...    155
Maximum angular momentum                    ...      3
Integral batch strategy                     ... SHARK/LIBINT Hybrid
RI-J (if used) integral strategy            ... SPLIT-RIJ (Revised 2003 algorithm where possible)
Printlevel                                  ...      1
Contraction scheme used                     ... SEGMENTED contraction
Coulomb Range Separation                    ... NOT USED
Exchange Range Separation                   ... NOT USED
Finite Nucleus Model                        ... NOT USED
Auxiliary Coulomb fitting basis             ... AVAILABLE
   # of basis functions in Aux-J            ...    979
   # of shells in Aux-J                     ...    253
   Maximum angular momentum in Aux-J        ...      4
Auxiliary J/K fitting basis                 ... NOT available
Auxiliary Correlation fitting basis         ... AVAILABLE
   # of basis functions in Aux-C            ...   1692
   # of shells in Aux-C                     ...    368
   Maximum angular momentum in Aux-C        ...      5
Auxiliary 'external' fitting basis          ... NOT available
Integral threshold                          ...     1.000000e-10
Primitive cut-off                           ...     1.000000e-11
Primitive pair pre-selection threshold      ...     1.000000e-11

Calculating pre-screening integrals         ... done (  0.2 sec) Dimension = 155
Organizing shell pair data                  ... done (  0.3 sec)
Shell pair information
Total number of shell pairs                 ...     12090
Shell pairs after pre-screening             ...      9563
Total number of primitive shell pairs       ...     33105
Primitive shell pairs kept                  ...     19254
          la=0 lb=0:   1516 shell pairs
          la=1 lb=0:   2170 shell pairs
          la=1 lb=1:    824 shell pairs
          la=2 lb=0:   1894 shell pairs
          la=2 lb=1:   1339 shell pairs
          la=2 lb=2:    558 shell pairs
          la=3 lb=0:    511 shell pairs
          la=3 lb=1:    378 shell pairs
          la=3 lb=2:    321 shell pairs
          la=3 lb=3:     52 shell pairs

Calculating one electron integrals          ... done (  0.0 sec)
Calculating ECP integrals                   ... done (  8.3 sec)
Calculating RI/J V-Matrix + Cholesky decomp.... done (  0.1 sec)
Calculating RI/C V-Matrix + Cholesky decomp.... done (  0.2 sec)
Calculating Nuclear repulsion               ... done (  0.0 sec) ENN=   3040.423471611714 Eh

SHARK setup successfully completed in   9.6 seconds

Maximum memory used throughout the entire GTOINT-calculation: 29.7 MB


           ************************************************************
           *        Program running with 6 parallel MPI-processes     *
           *              working on a common directory               *
           ************************************************************
-------------------------------------------------------------------------------
                                 ORCA SCF
-------------------------------------------------------------------------------

------------
SCF SETTINGS
------------
Hamiltonian:
 Density Functional     Method          .... DFT(GTOs)
 Exchange Functional    Exchange        .... B88
   X-Alpha parameter    XAlpha          ....  0.666667
   Becke's b parameter  XBeta           ....  0.004200
 Correlation Functional Correlation     .... LYP
 LDA part of GGA corr.  LDAOpt          .... VWN-3
 Gradients option       PostSCFGGA      .... off
 Hybrid DFT is turned on
   Fraction HF Exchange ScalHFX         ....  0.530000
   Scaling of DF-GGA-X  ScalDFX         ....  0.470000
   Scaling of DF-GGA-C  ScalDFC         ....  0.730000
   Scaling of DF-LDA-C  ScalLDAC        ....  0.730000
   Perturbative correction              ....  0.270000
   Density functional embedding theory  .... OFF
   NL short-range parameter             ....  7.800000
 RI-approximation to the Coulomb term is turned on
   Number of AuxJ basis functions       .... 979
   RIJ-COSX (HFX calculated with COS-X)).... on


General Settings:
 Integral files         IntName         .... b2plyp
 Hartree-Fock type      HFTyp           .... UHF
 Total Charge           Charge          ....    0
 Multiplicity           Mult            ....    6
 Number of Electrons    NEL             ....  215
 Basis Dimension        Dim             ....  445
 Nuclear Repulsion      ENuc            ....   3040.4234716117 Eh

Convergence Acceleration:
 DIIS                   CNVDIIS         .... on
   Start iteration      DIISMaxIt       ....     0
   Startup error        DIISStart       ....  0.200000
   # of expansion vecs  DIISMaxEq       ....     5
   Bias factor          DIISBfac        ....   1.050
   Max. coefficient     DIISMaxC        ....  10.000
 Trust-Rad. Augm. Hess. CNVTRAH         .... auto
   Auto Start mean grad. ratio tolernc. ....  1.125000
   Auto Start start iteration           ....   200
   Auto Start num. interpolation iter.  ....    10
   Max. Number of Micro iterations      ....    16
   Max. Number of Macro iterations      .... Maxiter - #DIIS iter
   Number of Davidson start vectors     ....     2
   Converg. threshold I  (grad. norm)   ....   5.000e-05
   Converg. threshold II (energy diff.) ....   1.000e-06
   Grad. Scal. Fac. for Micro threshold ....   0.100
   Minimum threshold for Micro iter.    ....   0.010
   NR start threshold (gradient norm)   ....   0.001
   Initial trust radius                 ....   0.400
   Minimum AH scaling param. (alpha)    ....   1.000
   Maximum AH scaling param. (alpha)    .... 1000.000
   Orbital update algorithm             .... Taylor
   White noise on init. David. guess    .... on
   Maximum white noise                  ....   0.010
   Quad. conv. algorithm                .... NR
 SOSCF                  CNVSOSCF        .... off
 Level Shifting         CNVShift        .... on
   Level shift para.    LevelShift      ....    0.2500
   Turn off err/grad.   ShiftErr        ....    0.0000
 Zerner damping         CNVZerner       .... off
 Static damping         CNVDamp         .... on
   Fraction old density DampFac         ....    0.9200
   Max. Damping (<1)    DampMax         ....    0.9800
   Min. Damping (>=0)   DampMin         ....    0.0000
   Turn off err/grad.   DampErr         ....    0.0030
 Fernandez-Rico         CNVRico         .... off

SCF Procedure:
 Maximum # iterations   MaxIter         ....   400
 SCF integral mode      SCFMode         .... Direct
   Integral package                     .... SHARK and LIBINT hybrid scheme
 Reset frequency        DirectResetFreq ....    20
 Integral Threshold     Thresh          ....  1.000e-10 Eh
 Primitive CutOff       TCut            ....  1.000e-11 Eh

Convergence Tolerance:
 Convergence Check Mode ConvCheckMode   .... Total+1el-Energy
 Convergence forced     ConvForced      .... 0
 Energy Change          TolE            ....  1.000e-06 Eh
 1-El. energy change                    ....  1.000e-03 Eh
 DIIS Error             TolErr          ....  1.000e-06


Diagonalization of the overlap matrix:
Smallest eigenvalue                        ... 5.376e-04
Time for diagonalization                   ...    0.052 sec
Threshold for overlap eigenvalues          ... 1.000e-08
Number of eigenvalues below threshold      ... 0
Time for construction of square roots      ...    0.043 sec
Total time needed                          ...    0.097 sec

Time for model grid setup =    0.604 sec

------------------------------
INITIAL GUESS: MODEL POTENTIAL
------------------------------
Loading Hartree-Fock densities                     ... done
  calling /home/ehlert/src/miniconda3/envs/orca500/Programs/ORCA501/orca b2plyp_atom79.inp > b2plyp_atom79.out in order to generate an atomic fitting density for atom 0 (Au with ECP) on-the-fly... 
    atom 0 (Au), assumed electronic state with S=2: 1s2 2s2 2p6 3s2 3p6 4s2 3d10 4p6 5s2 4d10 5p6 6s1 4f14 5d10           ... done
Calculating cut-offs                               ... done
Initializing the effective Hamiltonian             ... done
Setting up the integral package (SHARK)            ... done
Starting the Coulomb interaction                   ... done (   0.4 sec)
Reading the grid                                   ... done
Mapping shells                                     ... done
Starting the XC term evaluation                    ... done (   0.5 sec)
  promolecular density results
     # of electrons  =    815.012158142
     EX              =  -3724.534930810
     EC              =    -16.511764315
     EX+EC           =  -3741.046695125
Transforming the Hamiltonian                       ... done (   0.0 sec)
Diagonalizing the Hamiltonian                      ... done (   0.1 sec)
Back transforming the eigenvectors                 ... done (   0.0 sec)
Now organizing SCF variables                       ... done
                      ------------------
                      INITIAL GUESS DONE (   2.4 sec)
                      ------------------
-------------------
DFT GRID GENERATION
-------------------

General Integration Accuracy     IntAcc      ... 4.388
Radial Grid Type                 RadialGrid  ... OptM3 with GC (2021)
Angular Grid (max. ang.)         AngularGrid ... 4 (Lebedev-302)
Angular grid pruning method      GridPruning ... 4 (adaptive)
Weight generation scheme         WeightScheme... Becke
Basis function cutoff            BFCut       ... 1.0000e-10
Integration weight cutoff        WCut        ... 1.0000e-14
Angular grids for H and He will be reduced by one unit
Partially contracted basis set               ... off
Rotationally invariant grid construction     ... off

Total number of grid points                  ...   123898
Total number of batches                      ...     1941
Average number of points per batch           ...       63
Average number of grid points per atom       ...    11263
Time for grid setup =    1.968 sec

--------------------
COSX GRID GENERATION
--------------------

GRIDX 1
-------
General Integration Accuracy     IntAcc      ... 3.816
Radial Grid Type                 RadialGrid  ... OptM3 with GC (2021)
Angular Grid (max. ang.)         AngularGrid ... 1 (Lebedev-50)
Angular grid pruning method      GridPruning ... 4 (adaptive)
Weight generation scheme         WeightScheme... Becke
Basis function cutoff            BFCut       ... 1.0000e-10
Integration weight cutoff        WCut        ... 1.0000e-14
Angular grids for H and He will be reduced by one unit
Partially contracted basis set               ... on
Rotationally invariant grid construction     ... off

Total number of grid points                  ...    13099
Total number of batches                      ...      210
Average number of points per batch           ...       62
Average number of grid points per atom       ...     1191
UseSFitting                                  ... on

GRIDX 2
-------
General Integration Accuracy     IntAcc      ... 4.020
Radial Grid Type                 RadialGrid  ... OptM3 with GC (2021)
Angular Grid (max. ang.)         AngularGrid ... 2 (Lebedev-110)
Angular grid pruning method      GridPruning ... 4 (adaptive)
Weight generation scheme         WeightScheme... Becke
Basis function cutoff            BFCut       ... 1.0000e-10
Integration weight cutoff        WCut        ... 1.0000e-14
Angular grids for H and He will be reduced by one unit
Partially contracted basis set               ... on
Rotationally invariant grid construction     ... off

Total number of grid points                  ...    39644
Total number of batches                      ...      626
Average number of points per batch           ...       63
Average number of grid points per atom       ...     3604
UseSFitting                                  ... on

GRIDX 3
-------
General Integration Accuracy     IntAcc      ... 4.338
Radial Grid Type                 RadialGrid  ... OptM3 with GC (2021)
Angular Grid (max. ang.)         AngularGrid ... 3 (Lebedev-194)
Angular grid pruning method      GridPruning ... 4 (adaptive)
Weight generation scheme         WeightScheme... Becke
Basis function cutoff            BFCut       ... 1.0000e-10
Integration weight cutoff        WCut        ... 1.0000e-14
Angular grids for H and He will be reduced by one unit
Partially contracted basis set               ... on
Rotationally invariant grid construction     ... off

Total number of grid points                  ...    73045
Total number of batches                      ...     1147
Average number of points per batch           ...       63
Average number of grid points per atom       ...     6640
UseSFitting                                  ... on

Time for X-Grid setup             =    1.642 sec

--------------
SCF ITERATIONS
--------------
ITER       Energy         Delta-E        Max-DP      RMS-DP      [F,P]     Damp
               ***  Starting incremental Fock matrix formation  ***
  0  -2503.6476120012   0.000000000000 0.05523553  0.00053130  0.2722830 0.9200
  1  -2503.8926410923  -0.245029091066 0.04939288  0.00051736  0.2508324 0.9200
                               ***Turning on DIIS***
  2  -2503.9962923088  -0.103651216511 0.03489845  0.00039734  0.2308184 0.9200
  3  -2504.0233405710  -0.027048262166 0.02636514  0.00027015  0.2123776 0.9200
  4  -2504.0825454455  -0.059204874547 0.02460835  0.00025575  0.1953275 0.9200
  5  -2504.1432431693  -0.060697723751 0.02289552  0.00023806  0.1796471 0.9200
  6  -2504.1996678409  -0.056424671679 0.02138744  0.00022098  0.1652932 0.9200
  7  -2504.2547829083  -0.055115067316 0.01973427  0.00020886  0.1521206 0.9200
  8  -2504.3078400786  -0.053057170374 0.01859577  0.00019774  0.1400048 0.9200
  9  -2504.3578256753  -0.049985596641 0.01728011  0.00018399  0.1288257 0.9200
 10  -2504.4053621019  -0.047536426631 0.01589189  0.00017142  0.1185085 0.9200
 11  -2504.4498768227  -0.044514720777 0.01464532  0.00015919  0.1090068 0.9200
 12  -2504.4919307897  -0.042053966971 0.01351466  0.00014786  0.1002768 0.9200
 13  -2504.5317243209  -0.039793531269 0.01246756  0.00013768  0.0922597 0.9200
 14  -2504.5691310962  -0.037406775269 0.01151451  0.00012796  0.0848882 0.9200
 15  -2504.6042579976  -0.035126901409 0.01062437  0.00011875  0.0781012 0.9200
 16  -2504.6372145288  -0.032956531224 0.00978996  0.00011003  0.0718518 0.9200
 17  -2504.6681368560  -0.030922327137 0.00901775  0.00010185  0.0661020 0.9200
 18  -2504.6971401591  -0.029003303181 0.00830774  0.00009429  0.0608146 0.9200
 19  -2504.7242978546  -0.027157695454 0.00765517  0.00008732  0.0559520 0.9200
               *** Restarting incremental Fock matrix formation ***
                                   *** Resetting DIIS ***
 20  -2504.7485413466  -0.024243492005 0.00678298  0.00007593  0.0514738 0.9200
 21  -2504.7725232700  -0.023981923418 0.00623752  0.00006945  0.0473600 0.9200
 22  -2504.7948452057  -0.022321935664 0.00580973  0.00006504  0.0435783 0.9200
 23  -2504.8155696926  -0.020724486867 0.00542922  0.00006169  0.0401083 0.9200
 24  -2504.8347866664  -0.019216973822 0.00506741  0.00005860  0.0369126 0.9200
 25  -2504.8526016387  -0.017814972357 0.00470200  0.00005509  0.0339690 0.9200
 26  -2504.8691390010  -0.016537362281 0.00435307  0.00005155  0.0312580 0.9200
 27  -2504.8844886147  -0.015349613670 0.00402117  0.00004809  0.0287621 0.9200
 28  -2504.8987326199  -0.014244005267 0.00370980  0.00004476  0.0264653 0.9200
 29  -2504.9119481629  -0.013215542996 0.00342149  0.00004160  0.0243522 0.9200
 30  -2504.9242067045  -0.012258541546 0.00315605  0.00003864  0.0224080 0.9200
 31  -2504.9355737633  -0.011367058846 0.00291096  0.00003587  0.0206190 0.9200
 32  -2504.9461097325  -0.010535969208 0.00268417  0.00003329  0.0189728 0.9200
 33  -2504.9558711477  -0.009761415105 0.00247451  0.00003088  0.0174580 0.9200
 34  -2504.9649111557  -0.009040008011 0.00228154  0.00002865  0.0160643 0.9200
 35  -2504.9732797962  -0.008368640576 0.00210740  0.00002657  0.0147818 0.9200
 36  -2504.9810239914  -0.007744195120 0.00194695  0.00002464  0.0136018 0.9200
 37  -2504.9881876757  -0.007163684307 0.00179904  0.00002285  0.0125160 0.9200
 38  -2504.9948120318  -0.006624356161 0.00166243  0.00002120  0.0115168 0.9200
 39  -2505.0009355940  -0.006123562157 0.00153585  0.00001969  0.0105975 0.9200
               *** Restarting incremental Fock matrix formation ***
                                   *** Resetting DIIS ***
 40  -2505.0065946039  -0.005659009945 0.00135885  0.00001645  0.0097516 0.9200
 41  -2505.0118404721  -0.005245868222 0.00124454  0.00001488  0.0089775 0.9200
 42  -2505.0166824948  -0.004842022632 0.00115424  0.00001407  0.0082644 0.9200
 43  -2505.0211484938  -0.004465999036 0.00107961  0.00001358  0.0076071 0.9200
 44  -2505.0252660083  -0.004117514496 0.00101348  0.00001311  0.0070014 0.9200
 45  -2505.0290616373  -0.003795628941 0.00094854  0.00001243  0.0064432 0.9200
 46  -2505.0325619126  -0.003500275329 0.00088477  0.00001173  0.0059293 0.9200
 47  -2505.0357899977  -0.003228085071 0.00082196  0.00001103  0.0054562 0.9200
 48  -2505.0387670426  -0.002977044933 0.00076164  0.00001035  0.0050208 0.9200
 49  -2505.0415125379  -0.002745495281 0.00070533  0.00000968  0.0046202 0.9200
 50  -2505.0440443613  -0.002531823406 0.00065361  0.00000905  0.0042515 0.9200
 51  -2505.0463789586  -0.002334597329 0.00060595  0.00000845  0.0039123 0.9200
 52  -2505.0485314957  -0.002152537067 0.00056169  0.00000789  0.0036001 0.9200
 53  -2505.0505159540  -0.001984458305 0.00052041  0.00000737  0.0033129 0.9200
 54  -2505.0523452769  -0.001829322933 0.00048199  0.00000688  0.0030485 0.9200
 55  -2505.0540314179  -0.001686141034 0.00557942  0.00008019  0.0028053 0.0000
 56  -2505.0736708443  -0.019639426316 0.00072935  0.00000642  0.0002494 0.0000
               *** Restarting incremental Fock matrix formation ***
                                   *** Resetting DIIS ***
 57  -2505.0746284362  -0.000957591909 0.00540218  0.00010104  0.0004291 0.0000
 58  -2505.0747331588  -0.000104722663 0.00188076  0.00003429  0.0001548 0.0000
 59  -2505.0747478192  -0.000014660403 0.00071524  0.00001168  0.0001441 0.0000
 60  -2505.0747515449  -0.000003725693 0.00033599  0.00000533  0.0000485 0.0000
 61  -2505.0747528762  -0.000001331309 0.00019637  0.00000272  0.0000402 0.0000
 62  -2505.0747533886  -0.000000512336 0.00019518  0.00000210  0.0000306 0.0000
 63  -2505.0747537820  -0.000000393468 0.00013614  0.00000156  0.0000277 0.0000
 64  -2505.0747540478  -0.000000265788 0.00013293  0.00000139  0.0000184 0.0000
                 **** Energy Check signals convergence ****

               *****************************************************
               *                     SUCCESS                       *
               *           SCF CONVERGED AFTER  65 CYCLES          *
               *****************************************************

Old exchange energy                            =    -90.237368413 Eh
New exchange energy                            =    -90.237427733 Eh
Exchange energy change after final integration =     -0.000059319 Eh
Total energy after final integration           =  -2505.074813468 Eh
Final COS-X integration done in                =    14.662 sec

----------------
TOTAL SCF ENERGY
----------------

Total Energy       :        -2505.07481347 Eh          -68166.55119 eV

Components:
Nuclear Repulsion  :         3040.42347161 Eh           82734.12878 eV
Electronic Energy  :        -5545.49828508 Eh         -150900.67998 eV
One Electron Energy:       -10050.40225464 Eh         -273485.34908 eV
Two Electron Energy:         4504.90396956 Eh          122584.66910 eV
Max COSX asymmetry :            0.00000951 Eh               0.00026 eV

Virial components:
Potential Energy   :        -4114.07576064 Eh         -111949.69286 eV
Kinetic Energy     :         1609.00094718 Eh           43783.14166 eV
Virial Ratio       :            2.55691320


DFT components:
N(Alpha)           :      110.000000006821 electrons
N(Beta)            :      105.000001032119 electrons
N(Total)           :      215.000001038940 electrons
E(X)               :      -81.205783580289 Eh       
E(C)               :       -5.924406301598 Eh       
E(XC)              :      -87.130189881887 Eh       
DFET-embed. en.    :        0.000000000000 Eh       

---------------
SCF CONVERGENCE
---------------

  Last Energy change         ...   -1.0129e-07  Tolerance :   1.0000e-06
  Last MAX-Density change    ...    0.0000e+00  Tolerance :   1.0000e-05
  Last RMS-Density change    ...    0.0000e+00  Tolerance :   1.0000e-06
  Last DIIS Error            ...    1.6182e-05  Tolerance :   1.0000e-06

             **** THE GBW FILE WAS UPDATED (b2plyp.gbw) ****
             **** DENSITY b2plyp.scfp WAS UPDATED ****
             **** ENERGY FILE WAS UPDATED (b2plyp.en.tmp) ****
----------------------
UHF SPIN CONTAMINATION
----------------------

Warning: in a DFT calculation there is little theoretical justification to 
         calculate <S**2> as in Hartree-Fock theory. We will do it anyways
         but you should keep in mind that the values have only limited relevance

Expectation value of <S**2>     :     8.777093
Ideal value S*(S+1) for S=2.5   :     8.750000
Deviation                       :     0.027093

             **** THE GBW FILE WAS UPDATED (b2plyp.gbw) ****
             **** DENSITY b2plyp.scfp WAS UPDATED ****
----------------
ORBITAL ENERGIES
----------------
                 SPIN UP ORBITALS
  NO   OCC          E(Eh)            E(eV) 
   0   1.0000    -237.618898     -6465.9389 
   1   1.0000     -28.124174      -765.2977 
   2   1.0000     -24.042290      -654.2240 
   3   1.0000     -24.041744      -654.2091 
   4   1.0000     -24.040858      -654.1850 
   5   1.0000      -4.405611      -119.8828 
   6   1.0000      -4.397707      -119.6677 
   7   1.0000      -4.394714      -119.5863 
   8   1.0000      -4.394242      -119.5734 
   9   1.0000      -4.393149      -119.5437 
  10   1.0000      -4.392955      -119.5384 
  11   1.0000      -4.390450      -119.4702 
  12   1.0000      -4.389457      -119.4432 
  13   1.0000      -4.388411      -119.4147 
  14   1.0000      -4.380619      -119.2027 
  15   1.0000      -3.603871       -98.0663 
  16   1.0000      -2.528763       -68.8111 
  17   1.0000      -2.523538       -68.6690 
  18   1.0000      -2.521404       -68.6109 
  19   1.0000      -2.518581       -68.5341 
  20   1.0000      -2.517214       -68.4969 
  21   1.0000      -2.516596       -68.4801 
  22   1.0000      -2.515975       -68.4632 
  23   1.0000      -2.514712       -68.4288 
  24   1.0000      -2.513378       -68.3925 
  25   1.0000      -2.512966       -68.3813 
  26   1.0000      -2.512008       -68.3552 
  27   1.0000      -2.511563       -68.3431 
  28   1.0000      -2.510594       -68.3167 
  29   1.0000      -2.509961       -68.2995 
  30   1.0000      -2.508972       -68.2726 
  31   1.0000      -2.508201       -68.2516 
  32   1.0000      -2.507537       -68.2336 
  33   1.0000      -2.507017       -68.2194 
  34   1.0000      -2.506222       -68.1978 
  35   1.0000      -2.505589       -68.1805 
  36   1.0000      -2.505214       -68.1703 
  37   1.0000      -2.504995       -68.1644 
  38   1.0000      -2.504839       -68.1601 
  39   1.0000      -2.503099       -68.1128 
  40   1.0000      -2.502282       -68.0905 
  41   1.0000      -2.502176       -68.0877 
  42   1.0000      -2.501473       -68.0685 
  43   1.0000      -2.501138       -68.0594 
  44   1.0000      -2.497046       -67.9481 
  45   1.0000      -2.492581       -67.8266 
  46   1.0000      -2.405545       -65.4582 
  47   1.0000      -2.405354       -65.4530 
  48   1.0000      -2.404247       -65.4229 
  49   1.0000      -0.513282       -13.9671 
  50   1.0000      -0.511787       -13.9264 
  51   1.0000      -0.509997       -13.8777 
  52   1.0000      -0.502608       -13.6767 
  53   1.0000      -0.499656       -13.5963 
  54   1.0000      -0.477642       -12.9973 
  55   1.0000      -0.471338       -12.8258 
  56   1.0000      -0.465573       -12.6689 
  57   1.0000      -0.459979       -12.5167 
  58   1.0000      -0.452757       -12.3202 
  59   1.0000      -0.445085       -12.1114 
  60   1.0000      -0.443298       -12.0628 
  61   1.0000      -0.438139       -11.9224 
  62   1.0000      -0.434710       -11.8291 
  63   1.0000      -0.432420       -11.7667 
  64   1.0000      -0.428041       -11.6476 
  65   1.0000      -0.425868       -11.5885 
  66   1.0000      -0.420298       -11.4369 
  67   1.0000      -0.415107       -11.2956 
  68   1.0000      -0.414107       -11.2684 
  69   1.0000      -0.409507       -11.1432 
  70   1.0000      -0.406444       -11.0599 
  71   1.0000      -0.402885       -10.9630 
  72   1.0000      -0.402422       -10.9505 
  73   1.0000      -0.396475       -10.7886 
  74   1.0000      -0.393376       -10.7043 
  75   1.0000      -0.392379       -10.6772 
  76   1.0000      -0.387065       -10.5326 
  77   1.0000      -0.386799       -10.5253 
  78   1.0000      -0.383276       -10.4295 
  79   1.0000      -0.381989       -10.3944 
  80   1.0000      -0.377799       -10.2804 
  81   1.0000      -0.377017       -10.2592 
  82   1.0000      -0.374796       -10.1987 
  83   1.0000      -0.371852       -10.1186 
  84   1.0000      -0.369399       -10.0518 
  85   1.0000      -0.369240       -10.0475 
  86   1.0000      -0.367960       -10.0127 
  87   1.0000      -0.367294        -9.9946 
  88   1.0000      -0.364866        -9.9285 
  89   1.0000      -0.364388        -9.9155 
  90   1.0000      -0.362248        -9.8573 
  91   1.0000      -0.361454        -9.8357 
  92   1.0000      -0.360703        -9.8152 
  93   1.0000      -0.356697        -9.7062 
  94   1.0000      -0.355531        -9.6745 
  95   1.0000      -0.351967        -9.5775 
  96   1.0000      -0.349661        -9.5148 
  97   1.0000      -0.349009        -9.4970 
  98   1.0000      -0.347402        -9.4533 
  99   1.0000      -0.340067        -9.2537 
 100   1.0000      -0.339175        -9.2294 
 101   1.0000      -0.335104        -9.1187 
 102   1.0000      -0.329076        -8.9546 
 103   1.0000      -0.324789        -8.8380 
 104   1.0000      -0.321438        -8.7468 
 105   1.0000      -0.317383        -8.6364 
 106   1.0000      -0.307868        -8.3775 
 107   1.0000      -0.251252        -6.8369 
 108   1.0000      -0.238184        -6.4813 
 109   1.0000      -0.226547        -6.1647 
 110   0.0000      -0.098283        -2.6744 
 111   0.0000      -0.073429        -1.9981 
 112   0.0000      -0.064670        -1.7598 
 113   0.0000      -0.057534        -1.5656 
 114   0.0000      -0.039428        -1.0729 
 115   0.0000      -0.021949        -0.5973 
 116   0.0000      -0.007276        -0.1980 
 117   0.0000       0.000737         0.0200 
 118   0.0000       0.005992         0.1630 
 119   0.0000       0.012721         0.3461 
 120   0.0000       0.022948         0.6245 
 121   0.0000       0.026620         0.7244 
 122   0.0000       0.039566         1.0766 
 123   0.0000       0.050296         1.3686 
 124   0.0000       0.061593         1.6760 
 125   0.0000       0.069024         1.8782 
 126   0.0000       0.071444         1.9441 
 127   0.0000       0.083717         2.2781 
 128   0.0000       0.088293         2.4026 
 129   0.0000       0.089833         2.4445 
 130   0.0000       0.093293         2.5386 
 131   0.0000       0.101532         2.7628 
 132   0.0000       0.108232         2.9451 
 133   0.0000       0.112436         3.0595 
 134   0.0000       0.114776         3.1232 
 135   0.0000       0.115623         3.1463 
 136   0.0000       0.126037         3.4296 
 137   0.0000       0.134397         3.6571 
 138   0.0000       0.142492         3.8774 
 139   0.0000       0.145039         3.9467 
 140   0.0000       0.150062         4.0834 
 141   0.0000       0.153279         4.1709 
 142   0.0000       0.168017         4.5720 
 143   0.0000       0.188732         5.1357 
 144   0.0000       0.193753         5.2723 
 145   0.0000       0.204443         5.5632 
 146   0.0000       0.207188         5.6379 
 147   0.0000       0.220866         6.0101 
 148   0.0000       0.226558         6.1650 
 149   0.0000       0.230490         6.2719 
 150   0.0000       0.240087         6.5331 
 151   0.0000       0.251512         6.8440 
 152   0.0000       0.256955         6.9921 
 153   0.0000       0.268168         7.2972 
 154   0.0000       0.271112         7.3773 
 155   0.0000       0.284811         7.7501 
 156   0.0000       0.289887         7.8882 
 157   0.0000       0.298532         8.1235 
 158   0.0000       0.304612         8.2889 
 159   0.0000       0.312119         8.4932 
 160   0.0000       0.322045         8.7633 
 161   0.0000       0.332037         9.0352 
 162   0.0000       0.343184         9.3385 
 163   0.0000       0.344314         9.3693 
 164   0.0000       0.351543         9.5660 
 165   0.0000       0.355246         9.6667 
 166   0.0000       0.361816         9.8455 
 167   0.0000       0.367885        10.0106 
 168   0.0000       0.374497        10.1906 
 169   0.0000       0.376222        10.2375 
 170   0.0000       0.378936        10.3114 
 171   0.0000       0.384971        10.4756 
 172   0.0000       0.392770        10.6878 
 173   0.0000       0.394696        10.7402 
 174   0.0000       0.404127        10.9969 
 175   0.0000       0.410620        11.1735 
 176   0.0000       0.411693        11.2027 
 177   0.0000       0.413110        11.2413 
 178   0.0000       0.423023        11.5110 
 179   0.0000       0.428381        11.6568 
 180   0.0000       0.432170        11.7600 
 181   0.0000       0.441497        12.0137 
 182   0.0000       0.443750        12.0751 
 183   0.0000       0.448615        12.2074 
 184   0.0000       0.452337        12.3087 
 185   0.0000       0.455623        12.3981 
 186   0.0000       0.467040        12.7088 
 187   0.0000       0.467800        12.7295 
 188   0.0000       0.474963        12.9244 
 189   0.0000       0.485498        13.2111 
 190   0.0000       0.488626        13.2962 
 191   0.0000       0.492795        13.4096 
 192   0.0000       0.501114        13.6360 
 193   0.0000       0.507085        13.7985 
 194   0.0000       0.510902        13.9023 
 195   0.0000       0.516687        14.0598 
 196   0.0000       0.522088        14.2067 
 197   0.0000       0.530347        14.4315 
 198   0.0000       0.534191        14.5361 
 199   0.0000       0.541255        14.7283 
 200   0.0000       0.551473        15.0064 
 201   0.0000       0.555910        15.1271 
 202   0.0000       0.567908        15.4536 
 203   0.0000       0.568086        15.4584 
 204   0.0000       0.575392        15.6572 
 205   0.0000       0.580319        15.7913 
 206   0.0000       0.591143        16.0858 
 207   0.0000       0.598985        16.2992 
 208   0.0000       0.604479        16.4487 
 209   0.0000       0.608738        16.5646 
 210   0.0000       0.628258        17.0958 
 211   0.0000       0.637180        17.3386 
 212   0.0000       0.638655        17.3787 
 213   0.0000       0.661469        17.9995 
 214   0.0000       0.703345        19.1390 
 215   0.0000       0.713387        19.4122 
 216   0.0000       0.730270        19.8717 
 217   0.0000       0.742978        20.2175 
 218   0.0000       0.769409        20.9367 
 219   0.0000       0.786359        21.3979 
 220   0.0000       0.793334        21.5877 
 221   0.0000       0.797823        21.7099 
 222   0.0000       0.812669        22.1139 
 223   0.0000       0.825866        22.4730 
 224   0.0000       0.853837        23.2341 
 225   0.0000       0.866681        23.5836 
 226   0.0000       0.881796        23.9949 
 227   0.0000       0.899410        24.4742 
 228   0.0000       0.908432        24.7197 
 229   0.0000       0.924249        25.1501 
 230   0.0000       0.945684        25.7334 
 231   0.0000       0.959085        26.0980 
 232   0.0000       0.977218        26.5914 
 233   0.0000       0.987876        26.8815 
 234   0.0000       1.002377        27.2761 
 235   0.0000       1.014391        27.6030 
 236   0.0000       1.020668        27.7738 
 237   0.0000       1.038045        28.2466 
 238   0.0000       1.040872        28.3236 
 239   0.0000       1.052487        28.6396 
 240   0.0000       1.065181        28.9851 
 241   0.0000       1.073360        29.2076 
 242   0.0000       1.085444        29.5364 
 243   0.0000       1.116515        30.3819 
 244   0.0000       1.133302        30.8387 
 245   0.0000       1.170157        31.8416 
 246   0.0000       1.175173        31.9781 
 247   0.0000       1.225667        33.3521 
 248   0.0000       1.244957        33.8770 
 249   0.0000       1.391148        37.8551 
 250   0.0000       1.415831        38.5267 
 251   0.0000       1.423590        38.7379 
 252   0.0000       1.451083        39.4860 
 253   0.0000       1.459064        39.7032 
 254   0.0000       1.479940        40.2712 
 255   0.0000       1.490119        40.5482 
 256   0.0000       1.494800        40.6756 
 257   0.0000       1.497568        40.7509 
 258   0.0000       1.510139        41.0930 
 259   0.0000       1.518419        41.3183 
 260   0.0000       1.529763        41.6270 
 261   0.0000       1.537368        41.8339 
 262   0.0000       1.540943        41.9312 
 263   0.0000       1.550579        42.1934 
 264   0.0000       1.565484        42.5990 
 265   0.0000       1.569294        42.7027 
 266   0.0000       1.572393        42.7870 
 267   0.0000       1.577453        42.9247 
 268   0.0000       1.585479        43.1431 
 269   0.0000       1.591189        43.2984 
 270   0.0000       1.598598        43.5001 
 271   0.0000       1.600670        43.5564 
 272   0.0000       1.606974        43.7280 
 273   0.0000       1.613717        43.9115 
 274   0.0000       1.617466        44.0135 
 275   0.0000       1.624472        44.2041 
 276   0.0000       1.628632        44.3173 
 277   0.0000       1.632793        44.4306 
 278   0.0000       1.635869        44.5143 
 279   0.0000       1.642890        44.7053 
 280   0.0000       1.644171        44.7402 
 281   0.0000       1.649425        44.8831 
 282   0.0000       1.653572        44.9960 
 283   0.0000       1.659544        45.1585 
 284   0.0000       1.663405        45.2636 
 285   0.0000       1.666327        45.3431 
 286   0.0000       1.668704        45.4077 
 287   0.0000       1.670518        45.4571 
 288   0.0000       1.673169        45.5292 
 289   0.0000       1.676192        45.6115 
 290   0.0000       1.680174        45.7199 
 291   0.0000       1.681582        45.7582 
 292   0.0000       1.682776        45.7907 
 293   0.0000       1.686675        45.8968 
 294   0.0000       1.688762        45.9536 
 295   0.0000       1.689690        45.9788 
 296   0.0000       1.691777        46.0356 
 297   0.0000       1.692915        46.0666 
 298   0.0000       1.695312        46.1318 
 299   0.0000       1.696591        46.1666 
 300   0.0000       1.697708        46.1970 
 301   0.0000       1.699513        46.2461 
 302   0.0000       1.700419        46.2708 
 303   0.0000       1.705037        46.3964 
 304   0.0000       1.706610        46.4392 
 305   0.0000       1.708614        46.4938 
 306   0.0000       1.709588        46.5203 
 307   0.0000       1.711926        46.5839 
 308   0.0000       1.713436        46.6250 
 309   0.0000       1.715941        46.6931 
 310   0.0000       1.717450        46.7342 
 311   0.0000       1.719238        46.7828 
 312   0.0000       1.719999        46.8036 
 313   0.0000       1.722885        46.8821 
 314   0.0000       1.724220        46.9184 
 315   0.0000       1.725471        46.9525 
 316   0.0000       1.728923        47.0464 
 317   0.0000       1.729450        47.0607 
 318   0.0000       1.734946        47.2103 
 319   0.0000       1.737188        47.2713 
 320   0.0000       1.737824        47.2886 
 321   0.0000       1.740203        47.3533 
 322   0.0000       1.742032        47.4031 
 323   0.0000       1.745912        47.5087 
 324   0.0000       1.747366        47.5482 
 325   0.0000       1.749968        47.6190 
 326   0.0000       1.751845        47.6701 
 327   0.0000       1.752867        47.6979 
 328   0.0000       1.756827        47.8057 
 329   0.0000       1.759068        47.8667 
 330   0.0000       1.762175        47.9512 
 331   0.0000       1.763709        47.9930 
 332   0.0000       1.767711        48.1019 
 333   0.0000       1.769080        48.1391 
 334   0.0000       1.773515        48.2598 
 335   0.0000       1.774458        48.2855 
 336   0.0000       1.777503        48.3683 
 337   0.0000       1.779503        48.4227 
 338   0.0000       1.786229        48.6058 
 339   0.0000       1.788554        48.6690 
 340   0.0000       1.789728        48.7010 
 341   0.0000       1.797361        48.9087 
 342   0.0000       1.804844        49.1123 
 343   0.0000       1.807192        49.1762 
 344   0.0000       1.810462        49.2652 
 345   0.0000       1.816893        49.4402 
 346   0.0000       1.824095        49.6361 
 347   0.0000       1.828473        49.7553 
 348   0.0000       1.834965        49.9319 
 349   0.0000       1.840527        50.0833 
 350   0.0000       1.846635        50.2495 
 351   0.0000       1.863131        50.6984 
 352   0.0000       1.874670        51.0124 
 353   0.0000       1.879618        51.1470 
 354   0.0000       1.901768        51.7497 
 355   0.0000       1.916070        52.1389 
 356   0.0000       1.926421        52.4206 
 357   0.0000       1.932656        52.5902 
 358   0.0000       1.956310        53.2339 
 359   0.0000       1.999102        54.3983 
 360   0.0000       2.024834        55.0985 
 361   0.0000       2.040061        55.5129 
 362   0.0000       2.048489        55.7422 
 363   0.0000       2.063742        56.1573 
 364   0.0000       2.100111        57.1469 
 365   0.0000       2.104529        57.2672 
 366   0.0000       2.123114        57.7729 
 367   0.0000       2.157457        58.7074 
 368   0.0000       2.172330        59.1121 
 369   0.0000       2.191410        59.6313 
 370   0.0000       2.263921        61.6044 
 371   0.0000       2.343834        63.7790 
 372   0.0000       2.373806        64.5945 
 373   0.0000       2.440657        66.4137 
 374   0.0000       2.506067        68.1935 
 375   0.0000       2.546908        69.3049 
 376   0.0000       2.604977        70.8850 
 377   0.0000       2.617362        71.2220 
 378   0.0000       2.711214        73.7759 
 379   0.0000       2.725125        74.1544 
 380   0.0000       2.740143        74.5631 
 381   0.0000       2.776132        75.5424 
 382   0.0000       3.016561        82.0848 
 383   0.0000       3.423012        93.1449 
 384   0.0000       3.438081        93.5549 
 385   0.0000       3.442189        93.6667 
 386   0.0000       3.451623        93.9234 
 387   0.0000       3.455585        94.0313 
 388   0.0000       3.456100        94.0453 
 389   0.0000       3.475928        94.5848 
 390   0.0000       3.485316        94.8403 
 391   0.0000       3.537988        96.2735 
 392   0.0000       3.587155        97.6114 
 393   0.0000       3.679759       100.1313 
 394   0.0000       3.754381       102.1619 
 395   0.0000      23.634037       643.1149 
 396   0.0000      23.772793       646.8906 
 397   0.0000      23.856542       649.1695 
 398   0.0000      24.101036       655.8225 
 399   0.0000      24.178853       657.9400 
 400   0.0000      24.384620       663.5393 
 401   0.0000      24.416275       664.4006 
 402   0.0000      24.525598       667.3754 
 403   0.0000      24.713812       672.4970 
 404   0.0000      25.052924       681.7247 
 405   0.0000      25.233714       686.6443 
 406   0.0000      25.570036       695.7961 
 407   0.0000      25.719304       699.8578 
 408   0.0000      25.892647       704.5748 
 409   0.0000      25.940097       705.8659 
 410   0.0000      26.195790       712.8237 
 411   0.0000      26.287525       715.3199 
 412   0.0000      26.479945       720.5559 
 413   0.0000      26.555968       722.6246 
 414   0.0000      26.784571       728.8452 
 415   0.0000      26.955704       733.5020 
 416   0.0000      27.131803       738.2939 
 417   0.0000      27.232581       741.0362 
 418   0.0000      27.540428       749.4131 
 419   0.0000      27.715491       754.1769 
 420   0.0000      27.877532       758.5862 
 421   0.0000      28.259927       768.9917 
 422   0.0000      28.426036       773.5118 
 423   0.0000      28.460320       774.4447 
 424   0.0000      28.577510       777.6336 
 425   0.0000      44.078845      1199.4463 
 426   0.0000      44.131694      1200.8845 
 427   0.0000      44.169444      1201.9117 
 428   0.0000      44.210597      1203.0315 
 429   0.0000      44.269713      1204.6401 
 430   0.0000      44.282289      1204.9824 
 431   0.0000      44.338204      1206.5039 
 432   0.0000      44.356290      1206.9960 
 433   0.0000      44.375171      1207.5098 
 434   0.0000      44.396288      1208.0844 
 435   0.0000     202.663355      5514.7503 
 436   0.0000     202.683551      5515.2998 
 437   0.0000     202.696729      5515.6584 
 438   0.0000     202.717057      5516.2116 
 439   0.0000     202.739196      5516.8140 
 440   0.0000     202.745202      5516.9774 
 441   0.0000     202.764345      5517.4983 
 442   0.0000     202.773535      5517.7484 
 443   0.0000     202.786477      5518.1006 
 444   0.0000     202.789134      5518.1729 

                 SPIN DOWN ORBITALS
  NO   OCC          E(Eh)            E(eV) 
   0   1.0000    -237.616717     -6465.8796 
   1   1.0000     -28.022381      -762.5278 
   2   1.0000     -23.948504      -651.6719 
   3   1.0000     -23.948307      -651.6666 
   4   1.0000     -23.947705      -651.6502 
   5   1.0000      -4.404018      -119.8394 
   6   1.0000      -4.396249      -119.6280 
   7   1.0000      -4.393225      -119.5457 
   8   1.0000      -4.392779      -119.5336 
   9   1.0000      -4.392579      -119.5281 
  10   1.0000      -4.391491      -119.4985 
  11   1.0000      -4.388715      -119.4230 
  12   1.0000      -4.388256      -119.4105 
  13   1.0000      -4.388072      -119.4055 
  14   1.0000      -4.380377      -119.1961 
  15   1.0000      -3.317441       -90.2722 
  16   1.0000      -2.526737       -68.7560 
  17   1.0000      -2.520710       -68.5920 
  18   1.0000      -2.519430       -68.5572 
  19   1.0000      -2.516347       -68.4733 
  20   1.0000      -2.516051       -68.4652 
  21   1.0000      -2.514380       -68.4198 
  22   1.0000      -2.513862       -68.4057 
  23   1.0000      -2.512077       -68.3571 
  24   1.0000      -2.511954       -68.3537 
  25   1.0000      -2.510830       -68.3232 
  26   1.0000      -2.510570       -68.3161 
  27   1.0000      -2.509710       -68.2927 
  28   1.0000      -2.509349       -68.2829 
  29   1.0000      -2.508187       -68.2512 
  30   1.0000      -2.507068       -68.2208 
  31   1.0000      -2.506764       -68.2125 
  32   1.0000      -2.506343       -68.2011 
  33   1.0000      -2.505541       -68.1792 
  34   1.0000      -2.504919       -68.1623 
  35   1.0000      -2.504193       -68.1426 
  36   1.0000      -2.504044       -68.1385 
  37   1.0000      -2.503812       -68.1322 
  38   1.0000      -2.503497       -68.1236 
  39   1.0000      -2.502406       -68.0939 
  40   1.0000      -2.501745       -68.0759 
  41   1.0000      -2.501175       -68.0604 
  42   1.0000      -2.500715       -68.0479 
  43   1.0000      -2.500000       -68.0285 
  44   1.0000      -2.496913       -67.9445 
  45   1.0000      -2.492413       -67.8220 
  46   1.0000      -2.078596       -56.5615 
  47   1.0000      -2.077305       -56.5264 
  48   1.0000      -2.075994       -56.4907 
  49   1.0000      -0.479213       -13.0401 
  50   1.0000      -0.467518       -12.7218 
  51   1.0000      -0.466715       -12.6999 
  52   1.0000      -0.462601       -12.5880 
  53   1.0000      -0.456987       -12.4353 
  54   1.0000      -0.450325       -12.2540 
  55   1.0000      -0.448827       -12.2132 
  56   1.0000      -0.438293       -11.9266 
  57   1.0000      -0.437406       -11.9024 
  58   1.0000      -0.434317       -11.8184 
  59   1.0000      -0.429393       -11.6844 
  60   1.0000      -0.427643       -11.6368 
  61   1.0000      -0.423037       -11.5114 
  62   1.0000      -0.417985       -11.3740 
  63   1.0000      -0.416990       -11.3469 
  64   1.0000      -0.413681       -11.2568 
  65   1.0000      -0.410699       -11.1757 
  66   1.0000      -0.409466       -11.1421 
  67   1.0000      -0.406222       -11.0539 
  68   1.0000      -0.400980       -10.9112 
  69   1.0000      -0.397880       -10.8269 
  70   1.0000      -0.395304       -10.7568 
  71   1.0000      -0.391875       -10.6635 
  72   1.0000      -0.388287       -10.5658 
  73   1.0000      -0.385564       -10.4917 
  74   1.0000      -0.384942       -10.4748 
  75   1.0000      -0.382540       -10.4094 
  76   1.0000      -0.378527       -10.3002 
  77   1.0000      -0.375759       -10.2249 
  78   1.0000      -0.374211       -10.1828 
  79   1.0000      -0.372948       -10.1484 
  80   1.0000      -0.371374       -10.1056 
  81   1.0000      -0.369266       -10.0482 
  82   1.0000      -0.367924       -10.0117 
  83   1.0000      -0.366698        -9.9784 
  84   1.0000      -0.364593        -9.9211 
  85   1.0000      -0.362874        -9.8743 
  86   1.0000      -0.361989        -9.8502 
  87   1.0000      -0.360403        -9.8071 
  88   1.0000      -0.356076        -9.6893 
  89   1.0000      -0.355359        -9.6698 
  90   1.0000      -0.350781        -9.5452 
  91   1.0000      -0.350039        -9.5250 
  92   1.0000      -0.348991        -9.4965 
  93   1.0000      -0.346846        -9.4382 
  94   1.0000      -0.340560        -9.2671 
  95   1.0000      -0.339350        -9.2342 
  96   1.0000      -0.335661        -9.1338 
  97   1.0000      -0.328823        -8.9477 
  98   1.0000      -0.325082        -8.8459 
  99   1.0000      -0.320691        -8.7264 
 100   1.0000      -0.316750        -8.6192 
 101   1.0000      -0.308629        -8.3982 
 102   1.0000      -0.257669        -7.0115 
 103   1.0000      -0.242385        -6.5956 
 104   1.0000      -0.231621        -6.3027 
 105   0.0000      -0.100235        -2.7275 
 106   0.0000      -0.074239        -2.0201 
 107   0.0000      -0.062171        -1.6918 
 108   0.0000      -0.057209        -1.5567 
 109   0.0000      -0.037277        -1.0144 
 110   0.0000      -0.021777        -0.5926 
 111   0.0000      -0.012517        -0.3406 
 112   0.0000      -0.003274        -0.0891 
 113   0.0000       0.002677         0.0728 
 114   0.0000       0.005221         0.1421 
 115   0.0000       0.012740         0.3467 
 116   0.0000       0.025845         0.7033 
 117   0.0000       0.027537         0.7493 
 118   0.0000       0.035915         0.9773 
 119   0.0000       0.045038         1.2255 
 120   0.0000       0.050408         1.3717 
 121   0.0000       0.056036         1.5248 
 122   0.0000       0.065672         1.7870 
 123   0.0000       0.070861         1.9282 
 124   0.0000       0.075388         2.0514 
 125   0.0000       0.076834         2.0908 
 126   0.0000       0.083673         2.2769 
 127   0.0000       0.090610         2.4656 
 128   0.0000       0.095810         2.6071 
 129   0.0000       0.102789         2.7970 
 130   0.0000       0.106849         2.9075 
 131   0.0000       0.109607         2.9826 
 132   0.0000       0.112474         3.0606 
 133   0.0000       0.116147         3.1605 
 134   0.0000       0.116392         3.1672 
 135   0.0000       0.119464         3.2508 
 136   0.0000       0.128538         3.4977 
 137   0.0000       0.138741         3.7753 
 138   0.0000       0.146784         3.9942 
 139   0.0000       0.149107         4.0574 
 140   0.0000       0.154511         4.2045 
 141   0.0000       0.155843         4.2407 
 142   0.0000       0.169816         4.6209 
 143   0.0000       0.199902         5.4396 
 144   0.0000       0.202035         5.4977 
 145   0.0000       0.213352         5.8056 
 146   0.0000       0.214223         5.8293 
 147   0.0000       0.229677         6.2498 
 148   0.0000       0.240594         6.5469 
 149   0.0000       0.252219         6.8632 
 150   0.0000       0.256268         6.9734 
 151   0.0000       0.268528         7.3070 
 152   0.0000       0.275770         7.5041 
 153   0.0000       0.280041         7.6203 
 154   0.0000       0.284633         7.7453 
 155   0.0000       0.296632         8.0718 
 156   0.0000       0.299822         8.1586 
 157   0.0000       0.304668         8.2904 
 158   0.0000       0.312284         8.4977 
 159   0.0000       0.315828         8.5941 
 160   0.0000       0.323932         8.8146 
 161   0.0000       0.336540         9.1577 
 162   0.0000       0.345514         9.4019 
 163   0.0000       0.346582         9.4310 
 164   0.0000       0.353587         9.6216 
 165   0.0000       0.357632         9.7316 
 166   0.0000       0.363484         9.8909 
 167   0.0000       0.370220        10.0742 
 168   0.0000       0.375851        10.2274 
 169   0.0000       0.377321        10.2674 
 170   0.0000       0.380895        10.3647 
 171   0.0000       0.386348        10.5131 
 172   0.0000       0.393620        10.7109 
 173   0.0000       0.395656        10.7664 
 174   0.0000       0.405228        11.0268 
 175   0.0000       0.411503        11.1976 
 176   0.0000       0.413243        11.2449 
 177   0.0000       0.415464        11.3054 
 178   0.0000       0.425381        11.5752 
 179   0.0000       0.428951        11.6723 
 180   0.0000       0.433157        11.7868 
 181   0.0000       0.442531        12.0419 
 182   0.0000       0.444203        12.0874 
 183   0.0000       0.449838        12.2407 
 184   0.0000       0.453983        12.3535 
 185   0.0000       0.456304        12.4167 
 186   0.0000       0.468152        12.7391 
 187   0.0000       0.468903        12.7595 
 188   0.0000       0.477019        12.9804 
 189   0.0000       0.487662        13.2700 
 190   0.0000       0.490227        13.3397 
 191   0.0000       0.495259        13.4767 
 192   0.0000       0.501858        13.6562 
 193   0.0000       0.508508        13.8372 
 194   0.0000       0.513841        13.9823 
 195   0.0000       0.517893        14.0926 
 196   0.0000       0.523028        14.2323 
 197   0.0000       0.532815        14.4986 
 198   0.0000       0.536085        14.5876 
 199   0.0000       0.544527        14.8173 
 200   0.0000       0.553645        15.0655 
 201   0.0000       0.558998        15.2111 
 202   0.0000       0.571230        15.5440 
 203   0.0000       0.573611        15.6087 
 204   0.0000       0.579962        15.7816 
 205   0.0000       0.585526        15.9330 
 206   0.0000       0.592862        16.1326 
 207   0.0000       0.601492        16.3674 
 208   0.0000       0.605937        16.4884 
 209   0.0000       0.610821        16.6213 
 210   0.0000       0.632885        17.2217 
 211   0.0000       0.638201        17.3663 
 212   0.0000       0.641684        17.4611 
 213   0.0000       0.663103        18.0439 
 214   0.0000       0.712798        19.3962 
 215   0.0000       0.726131        19.7590 
 216   0.0000       0.736679        20.0460 
 217   0.0000       0.754562        20.5327 
 218   0.0000       0.787471        21.4282 
 219   0.0000       0.789746        21.4901 
 220   0.0000       0.801210        21.8020 
 221   0.0000       0.818767        22.2798 
 222   0.0000       0.822187        22.3728 
 223   0.0000       0.850069        23.1316 
 224   0.0000       0.868507        23.6333 
 225   0.0000       0.880590        23.9621 
 226   0.0000       0.894385        24.3374 
 227   0.0000       0.913308        24.8524 
 228   0.0000       0.921106        25.0646 
 229   0.0000       0.934430        25.4271 
 230   0.0000       0.954184        25.9647 
 231   0.0000       0.972030        26.4503 
 232   0.0000       0.984447        26.7882 
 233   0.0000       0.990631        26.9564 
 234   0.0000       1.018672        27.7195 
 235   0.0000       1.021683        27.8014 
 236   0.0000       1.039737        28.2927 
 237   0.0000       1.049070        28.5467 
 238   0.0000       1.055182        28.7130 
 239   0.0000       1.067114        29.0377 
 240   0.0000       1.074880        29.2490 
 241   0.0000       1.083586        29.4859 
 242   0.0000       1.094068        29.7711 
 243   0.0000       1.138030        30.9674 
 244   0.0000       1.158265        31.5180 
 245   0.0000       1.179101        32.0850 
 246   0.0000       1.194744        32.5106 
 247   0.0000       1.237616        33.6772 
 248   0.0000       1.253089        34.0983 
 249   0.0000       1.392110        37.8812 
 250   0.0000       1.417324        38.5673 
 251   0.0000       1.424170        38.7536 
 252   0.0000       1.452643        39.5284 
 253   0.0000       1.460062        39.7303 
 254   0.0000       1.480452        40.2851 
 255   0.0000       1.490820        40.5673 
 256   0.0000       1.496313        40.7168 
 257   0.0000       1.499754        40.8104 
 258   0.0000       1.510996        41.1163 
 259   0.0000       1.520892        41.3856 
 260   0.0000       1.532023        41.6885 
 261   0.0000       1.538660        41.8691 
 262   0.0000       1.542317        41.9686 
 263   0.0000       1.552423        42.2436 
 264   0.0000       1.566319        42.6217 
 265   0.0000       1.571474        42.7620 
 266   0.0000       1.575621        42.8748 
 267   0.0000       1.579395        42.9775 
 268   0.0000       1.586363        43.1671 
 269   0.0000       1.592275        43.3280 
 270   0.0000       1.600197        43.5436 
 271   0.0000       1.602054        43.5941 
 272   0.0000       1.610452        43.8226 
 273   0.0000       1.615922        43.9715 
 274   0.0000       1.619139        44.0590 
 275   0.0000       1.626055        44.2472 
 276   0.0000       1.631861        44.4052 
 277   0.0000       1.634311        44.4719 
 278   0.0000       1.637150        44.5491 
 279   0.0000       1.643965        44.7346 
 280   0.0000       1.645004        44.7628 
 281   0.0000       1.650881        44.9228 
 282   0.0000       1.654601        45.0240 
 283   0.0000       1.661869        45.2218 
 284   0.0000       1.664598        45.2960 
 285   0.0000       1.668044        45.3898 
 286   0.0000       1.669975        45.4423 
 287   0.0000       1.671528        45.4846 
 288   0.0000       1.674708        45.5711 
 289   0.0000       1.678249        45.6675 
 290   0.0000       1.681230        45.7486 
 291   0.0000       1.682759        45.7902 
 292   0.0000       1.685251        45.8580 
 293   0.0000       1.687355        45.9153 
 294   0.0000       1.690253        45.9941 
 295   0.0000       1.690693        46.0061 
 296   0.0000       1.693214        46.0747 
 297   0.0000       1.695023        46.1239 
 298   0.0000       1.697137        46.1815 
 299   0.0000       1.697829        46.2003 
 300   0.0000       1.698830        46.2275 
 301   0.0000       1.700332        46.2684 
 302   0.0000       1.701533        46.3011 
 303   0.0000       1.706309        46.4310 
 304   0.0000       1.708154        46.4812 
 305   0.0000       1.710686        46.5501 
 306   0.0000       1.711229        46.5649 
 307   0.0000       1.713145        46.6170 
 308   0.0000       1.714689        46.6591 
 309   0.0000       1.716825        46.7172 
 310   0.0000       1.718709        46.7684 
 311   0.0000       1.720558        46.8188 
 312   0.0000       1.721581        46.8466 
 313   0.0000       1.724659        46.9304 
 314   0.0000       1.726637        46.9842 
 315   0.0000       1.727236        47.0005 
 316   0.0000       1.730983        47.1024 
 317   0.0000       1.731550        47.1179 
 318   0.0000       1.736588        47.2550 
 319   0.0000       1.738401        47.3043 
 320   0.0000       1.740258        47.3548 
 321   0.0000       1.742669        47.4204 
 322   0.0000       1.743449        47.4417 
 323   0.0000       1.748674        47.5838 
 324   0.0000       1.748811        47.5876 
 325   0.0000       1.752484        47.6875 
 326   0.0000       1.754431        47.7405 
 327   0.0000       1.757224        47.8165 
 328   0.0000       1.758118        47.8408 
 329   0.0000       1.760729        47.9119 
 330   0.0000       1.764372        48.0110 
 331   0.0000       1.766597        48.0715 
 332   0.0000       1.769023        48.1376 
 333   0.0000       1.770596        48.1804 
 334   0.0000       1.776092        48.3299 
 335   0.0000       1.777586        48.3706 
 336   0.0000       1.779276        48.4166 
 337   0.0000       1.781860        48.4869 
 338   0.0000       1.789101        48.6839 
 339   0.0000       1.790709        48.7277 
 340   0.0000       1.791172        48.7403 
 341   0.0000       1.799691        48.9721 
 342   0.0000       1.805927        49.1418 
 343   0.0000       1.809850        49.2485 
 344   0.0000       1.812425        49.3186 
 345   0.0000       1.818824        49.4927 
 346   0.0000       1.826631        49.7051 
 347   0.0000       1.833784        49.8998 
[...]
      f+1     :     0.000676
      f-1     :     0.000549
      f+2     :     0.000899
      f-2     :     0.000820
      f+3     :     0.000547
      f-3     :     0.000504
  9 Aus       :     2.599882  s :     2.599882
      pz      :     2.115983  p :     6.401122
      px      :     2.197635
      py      :     2.087504
      dz2     :     1.984250  d :     9.946872
      dxz     :     1.992123
      dyz     :     1.992235
      dx2y2   :     1.987649
      dxy     :     1.990615
      f0      :     0.000667  f :     0.004195
      f+1     :     0.000918
      f-1     :     0.000377
      f+2     :     0.000964
      f-2     :     0.000431
      f+3     :     0.000456
      f-3     :     0.000382
 10 Mns       :     6.346063  s :     6.346063
      pz      :     4.240521  p :    12.624038
      px      :     4.227087
      py      :     4.156429
      dz2     :     1.264435  d :     6.069377
      dxz     :     1.287353
      dyz     :     1.151662
      dx2y2   :     1.235698
      dxy     :     1.130229
      f0      :     0.000139  f :     0.000995
      f+1     :     0.000207
      f-1     :     0.000145
      f+2     :     0.000147
      f-2     :     0.000130
      f+3     :     0.000123
      f-3     :     0.000105

SPIN
  0 Aus       :    -0.026176  s :    -0.026176
      pz      :    -0.010210  p :    -0.031461
      px      :    -0.022843
      py      :     0.001591
      dz2     :     0.002787  d :     0.023893
      dxz     :     0.010568
      dyz     :     0.004176
      dx2y2   :     0.003827
      dxy     :     0.002534
      f0      :     0.000016  f :     0.000318
      f+1     :     0.000125
      f-1     :     0.000027
      f+2     :     0.000089
      f-2     :     0.000077
      f+3     :    -0.000002
      f-3     :    -0.000013
  1 Aus       :    -0.062832  s :    -0.062832
      pz      :    -0.011344  p :    -0.035845
      px      :    -0.017463
      py      :    -0.007038
      dz2     :     0.004898  d :     0.010805
      dxz     :     0.005044
      dyz     :     0.002259
      dx2y2   :    -0.000073
      dxy     :    -0.001323
      f0      :     0.000131  f :     0.000330
      f+1     :     0.000093
      f-1     :     0.000097
      f+2     :     0.000017
      f-2     :     0.000002
      f+3     :    -0.000006
      f-3     :    -0.000005
  2 Aus       :    -0.151308  s :    -0.151308
      pz      :    -0.053965  p :    -0.098799
      px      :    -0.022606
      py      :    -0.022228
      dz2     :    -0.002195  d :     0.016292
      dxz     :     0.004745
      dyz     :     0.001381
      dx2y2   :     0.009222
      dxy     :     0.003139
      f0      :    -0.000011  f :     0.000012
      f+1     :    -0.000060
      f-1     :     0.000039
      f+2     :    -0.000052
      f-2     :     0.000007
      f+3     :     0.000024
      f-3     :     0.000065
  3 Aus       :    -0.095529  s :    -0.095529
      pz      :    -0.012333  p :    -0.047035
      px      :    -0.006888
      py      :    -0.027815
      dz2     :    -0.001860  d :    -0.019826
      dxz     :    -0.004749
      dyz     :    -0.010204
      dx2y2   :    -0.002647
      dxy     :    -0.000366
      f0      :    -0.000001  f :    -0.000080
      f+1     :    -0.000011
      f-1     :    -0.000033
      f+2     :    -0.000044
      f-2     :     0.000008
      f+3     :     0.000001
      f-3     :    -0.000002
  4 Aus       :    -0.081061  s :    -0.081061
      pz      :    -0.024438  p :    -0.021749
      px      :    -0.002369
      py      :     0.005058
      dz2     :    -0.003060  d :     0.001757
      dxz     :     0.004563
      dyz     :    -0.005189
      dx2y2   :     0.006390
      dxy     :    -0.000947
      f0      :     0.000014  f :     0.000144
      f+1     :     0.000047
      f-1     :    -0.000040
      f+2     :     0.000002
      f-2     :     0.000020
      f+3     :     0.000078
      f-3     :     0.000023
  5 Aus       :    -0.072454  s :    -0.072454
      pz      :    -0.014969  p :    -0.019294
      px      :    -0.002134
      py      :    -0.002191
      dz2     :    -0.001828  d :    -0.013230
      dxz     :    -0.009006
      dyz     :    -0.002988
      dx2y2   :     0.000912
      dxy     :    -0.000320
      f0      :    -0.000000  f :    -0.000045
      f+1     :     0.000003
      f-1     :    -0.000004
      f+2     :    -0.000001
      f-2     :    -0.000039
      f+3     :    -0.000001
      f-3     :    -0.000003
  6 Aus       :    -0.054834  s :    -0.054834
      pz      :    -0.039532  p :    -0.036991
      px      :     0.010020
      py      :    -0.007479
      dz2     :    -0.002231  d :     0.001662
      dxz     :    -0.005023
      dyz     :     0.001113
      dx2y2   :     0.006791
      dxy     :     0.001012
      f0      :     0.000009  f :     0.000116
      f+1     :    -0.000002
      f-1     :    -0.000014
      f+2     :     0.000020
      f-2     :     0.000015
      f+3     :     0.000049
      f-3     :     0.000038
  7 Aus       :    -0.053046  s :    -0.053046
      pz      :    -0.088344  p :    -0.135519
      px      :    -0.032552
      py      :    -0.014623
      dz2     :     0.003873  d :     0.012274
      dxz     :     0.011069
      dyz     :    -0.002335
      dx2y2   :    -0.006201
      dxy     :     0.005868
      f0      :     0.000033  f :     0.000187
      f+1     :     0.000049
      f-1     :    -0.000001
      f+2     :     0.000040
      f-2     :     0.000064
      f+3     :    -0.000004
      f-3     :     0.000006
  8 Aus       :    -0.038611  s :    -0.038611
      pz      :    -0.023740  p :    -0.140607
      px      :    -0.048092
      py      :    -0.068775
      dz2     :     0.003422  d :    -0.011177
      dxz     :    -0.001498
      dyz     :    -0.004910
      dx2y2   :    -0.011680
      dxy     :     0.003489
      f0      :     0.000006  f :     0.000187
      f+1     :    -0.000003
      f-1     :     0.000098
      f+2     :     0.000027
      f-2     :     0.000082
      f+3     :    -0.000035
      f-3     :     0.000011
  9 Aus       :    -0.232084  s :    -0.232084
      pz      :    -0.039297  p :    -0.143716
      px      :    -0.087406
      py      :    -0.017012
      dz2     :    -0.007367  d :    -0.028637
      dxz     :    -0.013207
      dyz     :    -0.005803
      dx2y2   :    -0.000985
      dxy     :    -0.001274
      f0      :    -0.000025  f :    -0.000097
      f+1     :    -0.000041
      f-1     :    -0.000007
      f+2     :     0.000015
      f-2     :    -0.000020
      f+3     :    -0.000026
      f-3     :     0.000008
 10 Mns       :     0.024333  s :     0.024333
      pz      :     0.019440  p :     0.032899
      px      :     0.009526
      py      :     0.003933
      dz2     :     0.887238  d :     4.526854
      dxz     :     0.874399
      dyz     :     0.924540
      dx2y2   :     0.882909
      dxy     :     0.957767
      f0      :    -0.000003  f :    -0.000016
      f+1     :    -0.000003
      f-1     :    -0.000001
      f+2     :    -0.000002
      f-2     :    -0.000005
      f+3     :    -0.000001
      f-3     :    -0.000002


                      *****************************
                      * MAYER POPULATION ANALYSIS *
                      *****************************

  NA   - Mulliken gross atomic population
  ZA   - Total nuclear charge
  QA   - Mulliken gross atomic charge
  VA   - Mayer's total valence
  BVA  - Mayer's bonded valence
  FA   - Mayer's free valence

  ATOM       NA         ZA         QA         VA         BVA        FA
  0 Au    19.1446    19.0000    -0.1446     1.9012     1.8954     0.0059
  1 Au    18.8531    19.0000     0.1469     1.6117     1.5909     0.0208
  2 Au    18.9935    19.0000     0.0065     1.6363     1.4744     0.1619
  3 Au    18.6846    19.0000     0.3154     1.2076     1.1729     0.0347
  4 Au    19.0139    19.0000    -0.0139     1.6207     1.5766     0.0440
  5 Au    18.6787    19.0000     0.3213     1.2278     1.2057     0.0221
  6 Au    19.4114    19.0000    -0.4114     1.9744     1.9022     0.0722
  7 Au    18.9583    19.0000     0.0417     1.4927     1.4591     0.0335
  8 Au    18.8528    19.0000     0.1472     1.4463     1.4160     0.0304
  9 Au    18.6527    19.0000     0.3473     1.2579     1.0326     0.2253
 10 Mn    25.7563    25.0000    -0.7563     8.2553     3.6740     4.5813

  Mayer bond orders larger than 0.100000
B(  0-Au,  1-Au) :   0.5194 B(  0-Au,  5-Au) :   0.4242 B(  0-Au,  6-Au) :   0.2569 
B(  0-Au, 10-Mn) :   0.5762 B(  1-Au,  2-Au) :   0.1159 B(  1-Au,  3-Au) :   0.2525 
B(  1-Au, 10-Mn) :   0.5096 B(  2-Au,  3-Au) :   0.3776 B(  2-Au,  4-Au) :   0.1560 
B(  2-Au,  8-Au) :   0.3868 B(  2-Au, 10-Mn) :   0.3071 B(  3-Au,  4-Au) :   0.3039 
B(  4-Au,  7-Au) :   0.3738 B(  4-Au, 10-Mn) :   0.5418 B(  5-Au,  6-Au) :   0.5771 
B(  6-Au,  8-Au) :   0.2669 B(  6-Au,  9-Au) :   0.2445 B(  6-Au, 10-Mn) :   0.4388 
B(  7-Au,  9-Au) :   0.3214 B(  7-Au, 10-Mn) :   0.6066 B(  8-Au,  9-Au) :   0.1691 
B(  8-Au, 10-Mn) :   0.4662 B(  9-Au, 10-Mn) :   0.1414 

-------
TIMINGS
-------

Total SCF time: 0 days 0 hours 6 min 28 sec 

Total time                  ....     388.716 sec
Sum of individual times     ....     386.850 sec  ( 99.5%)

Fock matrix formation       ....     371.765 sec  ( 95.6%)
  Split-RI-J                ....      26.059 sec  (  7.0% of F)
  Chain of spheres X        ....     301.562 sec  ( 81.1% of F)
  XC integration            ....      42.963 sec  ( 11.6% of F)
    Basis function eval.    ....       6.810 sec  ( 15.9% of XC)
    Density eval.           ....      18.902 sec  ( 44.0% of XC)
    XC-Functional eval.     ....       0.950 sec  (  2.2% of XC)
    XC-Potential eval.      ....      12.408 sec  ( 28.9% of XC)
Diagonalization             ....       7.683 sec  (  2.0%)
Density matrix formation    ....       0.269 sec  (  0.1%)
Population analysis         ....       0.193 sec  (  0.0%)
Initial guess               ....       0.285 sec  (  0.1%)
Orbital Transformation      ....       0.000 sec  (  0.0%)
Orbital Orthonormalization  ....       0.247 sec  (  0.1%)
DIIS solution               ....       2.956 sec  (  0.8%)
Grid generation             ....       3.698 sec  (  1.0%)

Maximum memory used throughout the entire SCF-calculation: 109.2 MB


           ************************************************************
           *        Program running with 6 parallel MPI-processes     *
           *              working on a common directory               *
           ************************************************************

------------------------------------------------------------------------------
                                ORCA  MP2 
------------------------------------------------------------------------------

Freezing NCore=10 chemical core electrons

   <<< Use J-auxbasis for calculation of Separable RI-J derivative contributions (Dim=979) >>> 


-------------
RI-MP2 ENERGY
-------------
Dimension of the basis                    ...  445
Memory devoted to MP2                     ...  256 MB   
Data format for buffers                   ... DOUBLE
Compression type for matrix containers    ... UNCOMPRESSED
Overall scaling of the MP2 energy         ...   2.700e-01
Calculating two index integrals           ... done (    0.041 sec)
Cholesky decomposition of V**-1           ... done (    0.455 sec)

-----------------
RI-TRANSFORMATION (AUX index driven)
-----------------

Dimension of the orbital-basis         ... 445
Dimension of the aux-basis             ... 1692
Transformation of internal/external MOs...    5- 108 to  109- 444
Number Format for Storage              ... Double (8 Byte)
Integral mode                          ... Direct

First Phase: integral generation and transformation of MO indices
  Aux angular momentum 0               ... done (    0.121 sec)
  Aux angular momentum 1               ... done (    0.311 sec)
  Aux angular momentum 2               ... done (    0.444 sec)
  Aux angular momentum 3               ... done (    0.509 sec)
  Aux angular momentum 4               ... done (    0.453 sec)
  Aux angular momentum 5               ... done (    0.417 sec)
Closing buffer VIA ( 0.44 GB; CompressionRatio= 1.00)
  Phase 1 completed in     4.060 sec
Second Phase: sorting and transformation of aux index

IA-Transformation
Memory available                       ... 187 MB 
Max. # MO pairs treated in a batch     ... 18    
# of internal orbitals                 ... 104
# batches for internal orbitals        ... 1
Closing buffer IAV ( 0.44 GB; CompressionRatio= 1.00)
(ia|v) transformation done in     3.794 sec

  Phase 2 completed in     3.880 sec
RI-Integral transformation completed in     7.940 sec

-----------------
RI-TRANSFORMATION (AUX index driven)
-----------------

Dimension of the orbital-basis         ... 445
Dimension of the aux-basis             ... 1692
Transformation of internal/external MOs...    5- 105 to  106- 444
Number Format for Storage              ... Double (8 Byte)
Integral mode                          ... Direct

First Phase: integral generation and transformation of MO indices
  Aux angular momentum 0               ... done (    0.125 sec)
  Aux angular momentum 1               ... done (    0.331 sec)
  Aux angular momentum 2               ... done (    0.487 sec)
  Aux angular momentum 3               ... done (    0.552 sec)
  Aux angular momentum 4               ... done (    0.465 sec)
  Aux angular momentum 5               ... done (    0.412 sec)
Closing buffer VIA ( 0.43 GB; CompressionRatio= 1.00)
  Phase 1 completed in     4.088 sec
Second Phase: sorting and transformation of aux index

IA-Transformation
Memory available                       ... 187 MB 
Max. # MO pairs treated in a batch     ... 17    
# of internal orbitals                 ... 101
# batches for internal orbitals        ... 1
Closing buffer IAV ( 0.43 GB; CompressionRatio= 1.00)
(ia|v) transformation done in     3.675 sec

  Phase 2 completed in     3.759 sec
RI-Integral transformation completed in     7.848 sec
Opening buffers                              ... done

Starting loop over batches of integrals:

Operator 0  - window                       ... (  5-108)x(109-444)
Operator 0  - Memory available             ...   256 MB
Operator 0  - Memory needed per MO         ...   4.3 MB
Operator 0  - Number of orbitals per batch ... 18
Operator 0  - Number of batches            ... 1

OPERATOR  0   PASS   0:  MOs     5 ...   22 +   23 ...   40 +   41 ...   58 +   59 ...   76
                            +   77 ...   94 +   95 ...  108
  Reading integrals       ... ok
  Internal MO   7
  Internal MO  10
  Internal MO  13
  Internal MO  16
  Internal MO  19
  Internal MO  22

Operator 1  - window                       ... (  5-105)x(106-444)
Operator 1  - Memory available             ...   256 MB
Operator 1  - Memory needed per MO         ...   4.4 MB
Operator 1  - Number of orbitals per batch ... 17
Operator 1  - Number of batches            ... 1

OPERATOR  1   PASS   0:  MOs     5 ...   21 +   22 ...   38 +   39 ...   55 +   56 ...   72
                            +   73 ...   89 +   90 ...  105
  Reading integrals       ... ok
  Internal MO   7
  Internal MO  10
  Internal MO  13
  Internal MO  16
  Internal MO  19
Time spent in pair loops =   124.452 sec
Deleting buffer (Ka|jb)[aa] ...done
Deleting buffer (Ka|jb)[ba] ...done
Deleting buffer (Ka|jb)[ab] ...done
Deleting buffer (Ka|jb)[bb] ...done

Correlation energy components}
 E2 and T2 for alpha/alpha pairs :     -0.300368652 Eh      0.000000000
 E2 and T2 for beta/beta   pairs :     -0.291370339 Eh      0.000000000
 E2 and T2 for alpha/beta  pairs :     -1.016057516 Eh      0.000000000


-----------------------------------------------
 RI-MP2 CORRELATION ENERGY:     -1.607796507 Eh
-----------------------------------------------


-------
TIMINGS
-------

Total time                :  159.879 sec
Integral trafo            :   15.820 sec (  9.9%)
I/O of integrals          :    0.103 sec (  0.1%)
K(i,j) Operators          :   97.889 sec ( 61.2%)
T(i,j) pair energies      :    1.527 sec (  1.0%)
V-calculation             :    0.041 sec (  0.0%)
V**(-1/2)                 :    0.455 sec (  0.3%)
Gamma(ia|P)               :    0.000 sec (  0.0%)
Gamma-Trafo               :    0.000 sec (  0.0%)
D(virtual)                :    0.000 sec (  0.0%)
D(internal)               :    0.000 sec (  0.0%)
W(virtual)                :    0.000 sec (  0.0%)
W(internal)               :    0.000 sec (  0.0%)
L(virtual)                :    0.000 sec (  0.0%)
L(internal)               :    0.000 sec (  0.0%)
G(D)                      :    0.000 sec (  0.0%)
G(Z)                      :    0.000 sec (  0.0%)
Z-Vector Solution         :    0.000 sec (  0.0%)
3-Index Derivative        :    0.000 sec (  0.0%)
2-Index Derivative        :    0.000 sec (  0.0%)
Separable Gradient (RIJ)  :    0.000 sec (  0.0%)
Separable Gradient (COSX) :    0.000 sec (  0.0%)


---------------------------------------
MP2 TOTAL ENERGY:    -2506.638381670 Eh
---------------------------------------

Maximum memory used throughout the entire MP2-calculation: 194.3 MB

-------------------------   --------------------
FINAL SINGLE POINT ENERGY     -2506.638381670364
-------------------------   --------------------


                            ***************************************
                            *     ORCA property calculations      *
                            ***************************************


  WARNING: The energy has been calculated at the MP2 level but the densities
           used in the property calculations are still SCF densities
           MP2 response densities have not been calculated 
           use %mp2 Density relaxed end
           or  %mp2 Density unrelaxed end

                                    ---------------------
                                    Active property flags
                                    ---------------------
   (+) Dipole Moment


------------------------------------------------------------------------------
                       ORCA ELECTRIC PROPERTIES CALCULATION
------------------------------------------------------------------------------

Dipole Moment Calculation                       ... on
Quadrupole Moment Calculation                   ... off
Polarizability Calculation                      ... off
GBWName                                         ... b2plyp_job2.gbw
Electron density                                ... b2plyp_job2.scfp
The origin for moment calculation is the CENTER OF MASS  = (13.203858, 14.053062 15.478296)

-------------
DIPOLE MOMENT
-------------
                                X             Y             Z
Electronic contribution:      7.80789     -14.77075      -0.06332
Nuclear contribution   :     -7.88899      14.32848       0.06446
                        -----------------------------------------
Total Dipole Moment    :     -0.08110      -0.44226       0.00115
                        -----------------------------------------
Magnitude (a.u.)       :      0.44964
Magnitude (Debye)      :      1.14289



--------------------
Rotational spectrum 
--------------------
 
Rotational constants in cm-1:     0.002085     0.001335     0.000996 
Rotational constants in MHz :    62.511506    40.013717    29.864702 

 Dipole components along the rotational axes: 
x,y,z [a.u.] :     0.265273     0.002277     0.363042 
x,y,z [Debye]:     0.674271     0.005788     0.922779 

 

Timings for individual modules:

Sum of individual times         ...      559.290 sec (=   9.321 min)
GTO integral calculation        ...        9.871 sec (=   0.165 min)   1.8 %
SCF iterations                  ...      388.961 sec (=   6.483 min)  69.5 %
MP2 module                      ...      160.457 sec (=   2.674 min)  28.7 %



                             ****ORCA TERMINATED NORMALLY****
TOTAL RUN TIME: 0 days 0 hours 19 minutes 47 seconds 811 msec
