
                                 *****************
                                 * O   R   C   A *
                                 *****************

                                            #,                                       
                                            ###                                      
                                            ####                                     
                                            #####                                    
                                            ######                                   
                                           ########,                                 
                                     ,,################,,,,,                         
                               ,,#################################,,                 
                          ,,##########################################,,             
                       ,#########################################, ''#####,          
                    ,#############################################,,   '####,        
                  ,##################################################,,,,####,       
                ,###########''''           ''''###############################       
              ,#####''   ,,,,##########,,,,          '''####'''          '####       
            ,##' ,,,,###########################,,,                        '##       
           ' ,,###''''                  '''############,,,                           
         ,,##''                                '''############,,,,        ,,,,,,###''
      ,#''                                            '''#######################'''  
     '                                                          ''''####''''         
             ,#######,   #######,   ,#######,      ##                                
            ,#'     '#,  ##    ##  ,#'     '#,    #''#        ######   ,####,        
            ##       ##  ##   ,#'  ##            #'  '#       #        #'  '#        
            ##       ##  #######   ##           ,######,      #####,   #    #        
            '#,     ,#'  ##    ##  '#,     ,#' ,#      #,         ##   #,  ,#        
             '#######'   ##     ##  '#######'  #'      '#     #####' # '####'        



                  #######################################################
                  #                        -***-                        #
                  #          Department of theory and spectroscopy      #
                  #    Directorship and core code : Frank Neese         #
                  #        Max Planck Institute fuer Kohlenforschung    #
                  #                Kaiser Wilhelm Platz 1               #
                  #                 D-45470 Muelheim/Ruhr               #
                  #                      Germany                        #
                  #                                                     #
                  #                  All rights reserved                #
                  #                        -***-                        #
                  #######################################################


                         Program Version 5.0.3 -  RELEASE  -


 With contributions from (in alphabetic order):
   Daniel Aravena         : Magnetic Suceptibility
   Michael Atanasov       : Ab Initio Ligand Field Theory (pilot matlab implementation)
   Alexander A. Auer      : GIAO ZORA, VPT2 properties, NMR spectrum
   Ute Becker             : Parallelization
   Giovanni Bistoni       : ED, misc. LED, open-shell LED, HFLD
   Martin Brehm           : Molecular dynamics
   Dmytro Bykov           : SCF Hessian
   Vijay G. Chilkuri      : MRCI spin determinant printing, contributions to CSF-ICE
   Dipayan Datta          : RHF DLPNO-CCSD density
   Achintya Kumar Dutta   : EOM-CC, STEOM-CC
   Dmitry Ganyushin       : Spin-Orbit,Spin-Spin,Magnetic field MRCI
   Miquel Garcia          : C-PCM and meta-GGA Hessian, CC/C-PCM, Gaussian charge scheme
   Yang Guo               : DLPNO-NEVPT2, F12-NEVPT2, CIM, IAO-localization
   Andreas Hansen         : Spin unrestricted coupled pair/coupled cluster methods
   Benjamin Helmich-Paris : MC-RPA, TRAH-SCF, COSX integrals
   Lee Huntington         : MR-EOM, pCC
   Robert Izsak           : Overlap fitted RIJCOSX, COSX-SCS-MP3, EOM
   Marcus Kettner         : VPT2
   Christian Kollmar      : KDIIS, OOCD, Brueckner-CCSD(T), CCSD density, CASPT2, CASPT2-K
   Simone Kossmann        : Meta GGA functionals, TD-DFT gradient, OOMP2, MP2 Hessian
   Martin Krupicka        : Initial AUTO-CI
   Lucas Lang             : DCDCAS
   Marvin Lechner         : AUTO-CI (C++ implementation), FIC-MRCC
   Dagmar Lenk            : GEPOL surface, SMD
   Dimitrios Liakos       : Extrapolation schemes; Compound Job, initial MDCI parallelization
   Dimitrios Manganas     : Further ROCIS development; embedding schemes
   Dimitrios Pantazis     : SARC Basis sets
   Anastasios Papadopoulos: AUTO-CI, single reference methods and gradients
   Taras Petrenko         : DFT Hessian,TD-DFT gradient, ASA, ECA, R-Raman, ABS, FL, XAS/XES, NRVS
   Peter Pinski           : DLPNO-MP2, DLPNO-MP2 Gradient
   Christoph Reimann      : Effective Core Potentials
   Marius Retegan         : Local ZFS, SOC
   Christoph Riplinger    : Optimizer, TS searches, QM/MM, DLPNO-CCSD(T), (RO)-DLPNO pert. Triples
   Tobias Risthaus        : Range-separated hybrids, TD-DFT gradient, RPA, STAB
   Michael Roemelt        : Original ROCIS implementation
   Masaaki Saitow         : Open-shell DLPNO-CCSD energy and density
   Barbara Sandhoefer     : DKH picture change effects
   Avijit Sen             : IP-ROCIS
   Kantharuban Sivalingam : CASSCF convergence, NEVPT2, FIC-MRCI
   Bernardo de Souza      : ESD, SOC TD-DFT
   Georgi Stoychev        : AutoAux, RI-MP2 NMR, DLPNO-MP2 response
   Willem Van den Heuvel  : Paramagnetic NMR
   Boris Wezisla          : Elementary symmetry handling
   Frank Wennmohs         : Technical directorship


 We gratefully acknowledge several colleagues who have allowed us to
 interface, adapt or use parts of their codes:
   Stefan Grimme, W. Hujo, H. Kruse, P. Pracht,  : VdW corrections, initial TS optimization,
                  C. Bannwarth, S. Ehlert          DFT functionals, gCP, sTDA/sTD-DF
   Ed Valeev, F. Pavosevic, A. Kumar             : LibInt (2-el integral package), F12 methods
   Garnet Chan, S. Sharma, J. Yang, R. Olivares  : DMRG
   Ulf Ekstrom                                   : XCFun DFT Library
   Mihaly Kallay                                 : mrcc  (arbitrary order and MRCC methods)
   Jiri Pittner, Ondrej Demel                    : Mk-CCSD
   Frank Weinhold                                : gennbo (NPA and NBO analysis)
   Christopher J. Cramer and Donald G. Truhlar   : smd solvation model
   Lars Goerigk                                  : TD-DFT with DH, B97 family of functionals
   V. Asgeirsson, H. Jonsson                     : NEB implementation
   FAccTs GmbH                                   : IRC, NEB, NEB-TS, DLPNO-Multilevel, CI-OPT
                                                   MM, QMMM, 2- and 3-layer-ONIOM, Crystal-QMMM,
                                                   LR-CPCM, SF, NACMEs, symmetry and pop. for TD-DFT,
                                                   nearIR, NL-DFT gradient (VV10), updates on ESD,
                                                   ML-optimized integration grids
   S Lehtola, MJT Oliveira, MAL Marques          : LibXC Library
   Liviu Ungur et al                             : ANISO software


 Your calculation uses the libint2 library for the computation of 2-el integrals
 For citations please refer to: http://libint.valeyev.net

 Your ORCA version has been built with support for libXC version: 5.1.0
 For citations please refer to: https://tddft.org/programs/libxc/

 This ORCA versions uses:
   CBLAS   interface :  Fast vector & matrix operations
   LAPACKE interface :  Fast linear algebra routines
   SCALAPACK package :  Parallel linear algebra routines
   Shared memory     :  Shared parallel matrices
   BLAS/LAPACK       :  OpenBLAS 0.3.15  USE64BITINT DYNAMIC_ARCH NO_AFFINITY Sandybridge SINGLE_THREADED
        Core in use  :  Sandybridge
   Copyright (c) 2011-2014, The OpenBLAS Project




***************************************
The coordinates will be read from file: pbe.xyz
***************************************


================================================================================

cite the ECPs for Au [Def2-ECP] as follows:
Ce-Yb(ecp-28): M. Dolg, H. Stoll, H.Preuss, J. Chem. Phys., 1989, 90, 1730-1734.
Y-Cd(ecp-28), Hf-Hg(ecp-46): D. Andrae,U. Haeussermann, M. Dolg, H. Stoll, H. Preuss, Theor. Chim. Acta, 1990, 77, 123-141.
In-Sb(ecp-28), Tl-Bi(ecp-46): B. Metz, H. Stoll, M. Dolg, J. Chem. Phys., 2000, 113, 2563-2569.
Te-Xe(ecp-28), Po-Rn(ecp-46): K. A. Peterson, D. Figgen, E. Goll, H. Stoll, M. Dolg, J. Chem. Phys., 2003, 119, 11113-11123.
Rb(ecp-28), Cs(ecp-46): T. Leininger, A. Nicklass, W. Kuechle, H. Stoll, M. Dolg, A. Bergner, Chem. Phys. Lett., 1996, 255, 274-280.
Sr(ecp-28), Ba(ecp-46): M. Kaupp, P. V. Schleyer, H. Stoll and H. Preuss, J. Chem. Phys., 1991, 94, 1360-1366.
La(ecp-46): M. Dolg, H. Stoll, A. Savin, H. Preuss, Theor. Chim. Acta, 1989, 75, 173-194.
Lu(ecp-28): X. Cao, M. Dolg, J. Chem. Phys., 2001, 115, 7348-7355.

ECP parameters for Au [Def2-ECP] have been obtained from:
TURBOMOLE (7.0.2)

----- Orbital basis set information -----
Your calculation utilizes the basis: def2-TZVP
   F. Weigend and R. Ahlrichs, Phys. Chem. Chem. Phys. 7, 3297 (2005).

----- AuxJ basis set information -----
Your calculation utilizes the auxiliary basis: def2/J
   F. Weigend, Phys. Chem. Chem. Phys. 8, 1057 (2006).

================================================================================
                                        WARNINGS
                       Please study these warnings very carefully!
================================================================================

Using LibXC functional ID 497 : Re-regularized SCAN exchange by Furness et al
[ 1]  J. W. Furness, A. D. Kaplan, J. Ning, J. P. Perdew, and J. Sun, J. Phys. Chem. Lett. 11, 8208 (2020)
[ 2]  J. W. Furness, A. D. Kaplan, J. Ning, J. P. Perdew, and J. Sun, J. Phys. Chem. Lett. 11, 9248 (2020)
Using LibXC functional ID 498 : Re-regularized SCAN correlation by Furness et al
[ 1]  J. W. Furness, A. D. Kaplan, J. Ning, J. P. Perdew, and J. Sun, J. Phys. Chem. Lett. 11, 8208 (2020)
[ 2]  J. W. Furness, A. D. Kaplan, J. Ning, J. P. Perdew, and J. Sun, J. Phys. Chem. Lett. 11, 9248 (2020)
Using LibXC functional ID 497 : Re-regularized SCAN exchange by Furness et al
[ 1]  J. W. Furness, A. D. Kaplan, J. Ning, J. P. Perdew, and J. Sun, J. Phys. Chem. Lett. 11, 8208 (2020)
[ 2]  J. W. Furness, A. D. Kaplan, J. Ning, J. P. Perdew, and J. Sun, J. Phys. Chem. Lett. 11, 9248 (2020)
Using LibXC functional ID 498 : Re-regularized SCAN correlation by Furness et al
[ 1]  J. W. Furness, A. D. Kaplan, J. Ning, J. P. Perdew, and J. Sun, J. Phys. Chem. Lett. 11, 8208 (2020)
[ 2]  J. W. Furness, A. D. Kaplan, J. Ning, J. P. Perdew, and J. Sun, J. Phys. Chem. Lett. 11, 9248 (2020)

WARNING: your system is open-shell and RHF/RKS was chosen
  ===> : WILL SWITCH to UHF/UKS


INFO   : the flag for use of the SHARK integral package has been found!



***************************************
The coordinates will be read from file: pbe.xyz
***************************************


================================================================================

cite the ECPs for Au [Def2-ECP] as follows:
Ce-Yb(ecp-28): M. Dolg, H. Stoll, H.Preuss, J. Chem. Phys., 1989, 90, 1730-1734.
Y-Cd(ecp-28), Hf-Hg(ecp-46): D. Andrae,U. Haeussermann, M. Dolg, H. Stoll, H. Preuss, Theor. Chim. Acta, 1990, 77, 123-141.
In-Sb(ecp-28), Tl-Bi(ecp-46): B. Metz, H. Stoll, M. Dolg, J. Chem. Phys., 2000, 113, 2563-2569.
Te-Xe(ecp-28), Po-Rn(ecp-46): K. A. Peterson, D. Figgen, E. Goll, H. Stoll, M. Dolg, J. Chem. Phys., 2003, 119, 11113-11123.
Rb(ecp-28), Cs(ecp-46): T. Leininger, A. Nicklass, W. Kuechle, H. Stoll, M. Dolg, A. Bergner, Chem. Phys. Lett., 1996, 255, 274-280.
Sr(ecp-28), Ba(ecp-46): M. Kaupp, P. V. Schleyer, H. Stoll and H. Preuss, J. Chem. Phys., 1991, 94, 1360-1366.
La(ecp-46): M. Dolg, H. Stoll, A. Savin, H. Preuss, Theor. Chim. Acta, 1989, 75, 173-194.
Lu(ecp-28): X. Cao, M. Dolg, J. Chem. Phys., 2001, 115, 7348-7355.

ECP parameters for Au [Def2-ECP] have been obtained from:
TURBOMOLE (7.0.2)

----- Orbital basis set information -----
Your calculation utilizes the basis: def2-TZVP
   F. Weigend and R. Ahlrichs, Phys. Chem. Chem. Phys. 7, 3297 (2005).

----- AuxJ basis set information -----
Your calculation utilizes the auxiliary basis: def2/J
   F. Weigend, Phys. Chem. Chem. Phys. 8, 1057 (2006).

================================================================================
                                        WARNINGS
                       Please study these warnings very carefully!
================================================================================

Using LibXC functional ID 497 : Re-regularized SCAN exchange by Furness et al
[ 1]  J. W. Furness, A. D. Kaplan, J. Ning, J. P. Perdew, and J. Sun, J. Phys. Chem. Lett. 11, 8208 (2020)
[ 2]  J. W. Furness, A. D. Kaplan, J. Ning, J. P. Perdew, and J. Sun, J. Phys. Chem. Lett. 11, 9248 (2020)
Using LibXC functional ID 498 : Re-regularized SCAN correlation by Furness et al
[ 1]  J. W. Furness, A. D. Kaplan, J. Ning, J. P. Perdew, and J. Sun, J. Phys. Chem. Lett. 11, 8208 (2020)
[ 2]  J. W. Furness, A. D. Kaplan, J. Ning, J. P. Perdew, and J. Sun, J. Phys. Chem. Lett. 11, 9248 (2020)
Using LibXC functional ID 497 : Re-regularized SCAN exchange by Furness et al
[ 1]  J. W. Furness, A. D. Kaplan, J. Ning, J. P. Perdew, and J. Sun, J. Phys. Chem. Lett. 11, 8208 (2020)
[ 2]  J. W. Furness, A. D. Kaplan, J. Ning, J. P. Perdew, and J. Sun, J. Phys. Chem. Lett. 11, 9248 (2020)
Using LibXC functional ID 498 : Re-regularized SCAN correlation by Furness et al
[ 1]  J. W. Furness, A. D. Kaplan, J. Ning, J. P. Perdew, and J. Sun, J. Phys. Chem. Lett. 11, 8208 (2020)
[ 2]  J. W. Furness, A. D. Kaplan, J. Ning, J. P. Perdew, and J. Sun, J. Phys. Chem. Lett. 11, 9248 (2020)

INFO   : the flag for use of the SHARK integral package has been found!

================================================================================
                                       INPUT FILE
================================================================================
NAME = scan.inp
|  1> !R2SCAN def2-TZVP VERYSLOWCONV
|  2> !KDIIS
|  3> %scf
|  4>   AutoTRAHIter 200
|  5>   maxiter 400
|  6> end
|  7> 
|  8> %pal nprocs 6 end 
|  9> 
| 10> *xyzfile 0 6 pbe.xyz
| 11> 
| 12> $new_job
| 13> 
| 14> !R2SCAN def2-TZVP VERYSLOWCONV
| 15> !KDIIS
| 16> %scf
| 17>   AutoTRAHIter 200
| 18>   maxiter 400
| 19> end
| 20> 
| 21> 
| 22> %pal nprocs 6 end 
| 23> 
| 24> *xyzfile 0 4 pbe.xyz
| 25> 
| 26> 
| 27> 
| 28> 
| 29> 
| 30>                          ****END OF INPUT****
================================================================================


                 $$$$$$$$$$$$$$$$$$$$$$$$$$$$$$$$$$$$$$$$$$$$$$ 
                 $ THERE ARE  2 JOBS TO BE PROCESSED THIS RUN $
                 $$$$$$$$$$$$$$$$$$$$$$$$$$$$$$$$$$$$$$$$$$$$$$ 




                 $$$$$$$$$$$$$$$$  JOB NUMBER  1 $$$$$$$$$$$$$$


                       ****************************
                       * Single Point Calculation *
                       ****************************

---------------------------------
CARTESIAN COORDINATES (ANGSTROEM)
---------------------------------
  Au     8.516217    8.250930    6.251554
  Au     6.230262    7.080884    5.724317
  Au     6.055401    5.182979    8.090920
  Au     4.058692    5.491282    6.159023
  Au     4.124676    7.298985    8.183506
  Au    10.861908    9.225831    7.119786
  Au     9.268554    8.462853    9.058983
  Au     5.267881    8.643511   10.144403
  Au     7.724779    6.086430    9.907211
  Au     7.822547    8.534562   11.267427
  Mn     6.775272    7.821443    8.192493

----------------------------
CARTESIAN COORDINATES (A.U.)
----------------------------
  NO LB      ZA    FRAG     MASS         X           Y           Z
   0 Au   19.0000*   0   196.966   16.093318   15.591998   11.813726
   1 Au   19.0000*   0   196.966   11.773489   13.380932   10.817392
   2 Au   19.0000*   0   196.966   11.443050    9.794411   15.289622
   3 Au   19.0000*   0   196.966    7.669816   10.377018   11.638867
   4 Au   19.0000*   0   196.966    7.794508   13.793083   15.464585
   5 Au   19.0000*   0   196.966   20.526032   17.434294   13.454446
   6 Au   19.0000*   0   196.966   17.515028   15.992474   17.118997
   7 Au   19.0000*   0   196.966    9.954852   16.333869   19.170144
   8 Au   19.0000*   0   196.966   14.597717   11.501687   18.721915
   9 Au   19.0000*   0   196.966   14.782472   16.127985   21.292352
  10 Mn   25.0000    0    54.940   12.803408   14.780385   15.481568
* core charge reduced due to ECP

--------------------------------
INTERNAL COORDINATES (ANGSTROEM)
--------------------------------
 Au     0   0   0     0.000000000000     0.00000000     0.00000000
 Au     1   0   0     2.621559628126     0.00000000     0.00000000
 Au     2   1   0     3.038655489006    99.92197530     0.00000000
 Au     2   1   3     2.726082446946   157.33800096     8.63160052
 Au     4   2   1     2.714898931100    73.21915748    56.81268711
 Au     1   2   3     2.684497107830   171.51756349   357.95738728
 Au     6   1   2     2.623242050464    66.59180727   330.52740114
 Au     5   4   2     2.638140616303   154.70830652   309.97955693
 Au     3   2   1     2.627158049261   106.68393770    18.25681068
 Au     7   6   1     2.640701375655   160.55040192   234.72274996
 Mn     8   5   4     2.599611284648    62.09618369    28.03983835

---------------------------
INTERNAL COORDINATES (A.U.)
---------------------------
 Au     0   0   0     0.000000000000     0.00000000     0.00000000
 Au     1   0   0     4.954029740903     0.00000000     0.00000000
 Au     2   1   0     5.742226689558    99.92197530     0.00000000
 Au     2   1   3     5.151549243218   157.33800096     8.63160052
 Au     4   2   1     5.130415461054    73.21915748    56.81268711
 Au     1   2   3     5.072964341103   171.51756349   357.95738728
 Au     6   1   2     4.957209058364    66.59180727   330.52740114
 Au     5   4   2     4.985363267588   154.70830652   309.97955693
 Au     3   2   1     4.964609223630   106.68393770    18.25681068
 Au     7   6   1     4.990202401456   160.55040192   234.72274996
 Mn     8   5   4     4.912553382637    62.09618369    28.03983835

---------------------
BASIS SET INFORMATION
---------------------
There are 2 groups of distinct atoms

 Group   1 Type Au  : 8s7p6d1f contracted to 6s4p3d1f pattern {311111/4111/411/1}
 Group   2 Type Mn  : 17s11p7d1f contracted to 6s4p4d1f pattern {842111/6311/4111/1}

Atom   0Au   basis set group =>   1
Atom   1Au   basis set group =>   1
Atom   2Au   basis set group =>   1
Atom   3Au   basis set group =>   1
Atom   4Au   basis set group =>   1
Atom   5Au   basis set group =>   1
Atom   6Au   basis set group =>   1
Atom   7Au   basis set group =>   1
Atom   8Au   basis set group =>   1
Atom   9Au   basis set group =>   1
Atom  10Mn   basis set group =>   2
---------------------------------
AUXILIARY/J BASIS SET INFORMATION
---------------------------------
There are 2 groups of distinct atoms

 Group   1 Type Au  : 11s5p5d3f3g contracted to 8s5p5d2f3g pattern {41111111/11111/11111/21/111}
 Group   2 Type Mn  : 19s5p5d3f3g contracted to 8s5p5d2f3g pattern {121111111/11111/11111/21/111}

Atom   0Au   basis set group =>   1
Atom   1Au   basis set group =>   1
Atom   2Au   basis set group =>   1
Atom   3Au   basis set group =>   1
Atom   4Au   basis set group =>   1
Atom   5Au   basis set group =>   1
Atom   6Au   basis set group =>   1
Atom   7Au   basis set group =>   1
Atom   8Au   basis set group =>   1
Atom   9Au   basis set group =>   1
Atom  10Mn   basis set group =>   2
-------------------------
ECP PARAMETER INFORMATION
-------------------------

 Group 1, Type Au ECP Def2-ECP (replacing 60 core electrons, lmax=3)

Atom   0Au   ECP group =>   1
Atom   1Au   ECP group =>   1
Atom   2Au   ECP group =>   1
Atom   3Au   ECP group =>   1
Atom   4Au   ECP group =>   1
Atom   5Au   ECP group =>   1
Atom   6Au   ECP group =>   1
Atom   7Au   ECP group =>   1
Atom   8Au   ECP group =>   1
Atom   9Au   ECP group =>   1



           ************************************************************
           *        Program running with 6 parallel MPI-processes     *
           *              working on a common directory               *
           ************************************************************
------------------------------------------------------------------------------
                           ORCA GTO INTEGRAL CALCULATION
                           -- RI-GTO INTEGRALS CHOSEN --
------------------------------------------------------------------------------
------------------------------------------------------------------------------
                   ___                                                        
                  /   \      - P O W E R E D   B Y -                         
                 /     \                                                     
                 |  |  |   _    _      __       _____    __    __             
                 |  |  |  | |  | |    /  \     |  _  \  |  |  /  |          
                  \  \/   | |  | |   /    \    | | | |  |  | /  /          
                 / \  \   | |__| |  /  /\  \   | |_| |  |  |/  /          
                |  |  |   |  __  | /  /__\  \  |    /   |      \           
                |  |  |   | |  | | |   __   |  |    \   |  |\   \          
                \     /   | |  | | |  |  |  |  | |\  \  |  | \   \       
                 \___/    |_|  |_| |__|  |__|  |_| \__\ |__|  \__/        
                                                                              
                      - O R C A' S   B I G   F R I E N D -                    
                                      &                                       
                       - I N T E G R A L  F E E D E R -                       
                                                                              
 v1 FN, 2020, v2 2021                                                         
------------------------------------------------------------------------------


Reading SHARK input file scan.SHARKINP.tmp ... ok
----------------------
SHARK INTEGRAL PACKAGE
----------------------

Number of atoms                             ...     11
Number of basis functions                   ...    445
Number of shells                            ...    155
Maximum angular momentum                    ...      3
Integral batch strategy                     ... SHARK/LIBINT Hybrid
RI-J (if used) integral strategy            ... SPLIT-RIJ (Revised 2003 algorithm where possible)
Printlevel                                  ...      1
Contraction scheme used                     ... SEGMENTED contraction
Coulomb Range Separation                    ... NOT USED
Exchange Range Separation                   ... NOT USED
Finite Nucleus Model                        ... NOT USED
Auxiliary Coulomb fitting basis             ... AVAILABLE
   # of basis functions in Aux-J            ...    979
   # of shells in Aux-J                     ...    253
   Maximum angular momentum in Aux-J        ...      4
Auxiliary J/K fitting basis                 ... NOT available
Auxiliary Correlation fitting basis         ... NOT available
Auxiliary 'external' fitting basis          ... NOT available
Integral threshold                          ...     1.000000e-10
Primitive cut-off                           ...     1.000000e-11
Primitive pair pre-selection threshold      ...     1.000000e-11

Calculating pre-screening integrals         ... done (  0.2 sec) Dimension = 155
Organizing shell pair data                  ... done (  0.2 sec)
Shell pair information
Total number of shell pairs                 ...     12090
Shell pairs after pre-screening             ...      9563
Total number of primitive shell pairs       ...     33105
Primitive shell pairs kept                  ...     19254
          la=0 lb=0:   1516 shell pairs
          la=1 lb=0:   2170 shell pairs
          la=1 lb=1:    824 shell pairs
          la=2 lb=0:   1894 shell pairs
          la=2 lb=1:   1339 shell pairs
          la=2 lb=2:    558 shell pairs
          la=3 lb=0:    511 shell pairs
          la=3 lb=1:    378 shell pairs
          la=3 lb=2:    321 shell pairs
          la=3 lb=3:     52 shell pairs

Calculating one electron integrals          ... done (  0.0 sec)
Calculating ECP integrals                   ... done (  8.3 sec)
Calculating RI/J V-Matrix + Cholesky decomp.... done (  0.1 sec)
Calculating Nuclear repulsion               ... done (  0.0 sec) ENN=   3040.423471611714 Eh

SHARK setup successfully completed in   9.2 seconds

Maximum memory used throughout the entire GTOINT-calculation: 26.8 MB


           ************************************************************
           *        Program running with 6 parallel MPI-processes     *
           *              working on a common directory               *
           ************************************************************
-------------------------------------------------------------------------------
                                 ORCA SCF
-------------------------------------------------------------------------------

------------
SCF SETTINGS
------------
Hamiltonian:
 Density Functional     Method          .... DFT(GTOs)
  Functional kind                       .... Exchange
  Functional name                       .... Re-regularized SCAN exchange by Furness et al
  Functional family                     .... MGGA
  Functional refs                              
    [ 0] J. W. Furness, A. D. Kaplan, J. Ning, J. P. Perdew, and J. Sun, J. Phys. Chem. Lett. 11, 8208 (2020)
    [ 1] J. W. Furness, A. D. Kaplan, J. Ning, J. P. Perdew, and J. Sun, J. Phys. Chem. Lett. 11, 9248 (2020)
  Functional external parameters         .... 8
 Parameter  0 :         c1 parameter
 Parameter  1 :         c2 parameter
 Parameter  2 :          d parameter
 Parameter  3 :         k1 parameter
 Parameter  4 :       taur parameter
 Parameter  5 :     alphar parameter
 Parameter  6 :        eta parameter
 Parameter  7 :        dp2 parameter
  Functional kind                       .... Correlation
  Functional name                       .... Re-regularized SCAN correlation by Furness et al
  Functional family                     .... MGGA
  Functional refs                              
    [ 0] J. W. Furness, A. D. Kaplan, J. Ning, J. P. Perdew, and J. Sun, J. Phys. Chem. Lett. 11, 8208 (2020)
    [ 1] J. W. Furness, A. D. Kaplan, J. Ning, J. P. Perdew, and J. Sun, J. Phys. Chem. Lett. 11, 9248 (2020)
  Functional external parameters         .... 0
 Gradients option       PostSCFGGA      .... off
   Density functional embedding theory  .... OFF
   NL short-range parameter             .... 12.300000
 RI-approximation to the Coulomb term is turned on
   Number of AuxJ basis functions       .... 979


General Settings:
 Integral files         IntName         .... scan
 Hartree-Fock type      HFTyp           .... UHF
 Total Charge           Charge          ....    0
 Multiplicity           Mult            ....    6
 Number of Electrons    NEL             ....  215
 Basis Dimension        Dim             ....  445
 Nuclear Repulsion      ENuc            ....   3040.4234716117 Eh

Convergence Acceleration:
 DIIS                   CNVDIIS         .... off
 Trust-Rad. Augm. Hess. CNVTRAH         .... auto
   Auto Start mean grad. ratio tolernc. ....  1.125000
   Auto Start start iteration           ....   200
   Auto Start num. interpolation iter.  ....    10
   Max. Number of Micro iterations      ....    16
   Max. Number of Macro iterations      .... Maxiter - #DIIS iter
   Number of Davidson start vectors     ....     2
   Converg. threshold I  (grad. norm)   ....   5.000e-05
   Converg. threshold II (energy diff.) ....   1.000e-06
   Grad. Scal. Fac. for Micro threshold ....   0.100
   Minimum threshold for Micro iter.    ....   0.010
   NR start threshold (gradient norm)   ....   0.001
   Initial trust radius                 ....   0.400
   Minimum AH scaling param. (alpha)    ....   1.000
   Maximum AH scaling param. (alpha)    .... 1000.000
   Orbital update algorithm             .... Taylor
   White noise on init. David. guess    .... on
   Maximum white noise                  ....   0.010
   Quad. conv. algorithm                .... NR
 SOSCF                  CNVSOSCF        .... off
 Level Shifting         CNVShift        .... off
 Zerner damping         CNVZerner       .... off
 Static damping         CNVDamp         .... off
 Fernandez-Rico         CNVRico         .... off

SCF Procedure:
 Maximum # iterations   MaxIter         ....   400
 SCF integral mode      SCFMode         .... Direct
   Integral package                     .... SHARK and LIBINT hybrid scheme
 Reset frequency        DirectResetFreq ....    20
 Integral Threshold     Thresh          ....  1.000e-10 Eh
 Primitive CutOff       TCut            ....  1.000e-11 Eh

Convergence Tolerance:
 Convergence Check Mode ConvCheckMode   .... All-Criteria
 Convergence forced     ConvForced      .... 0
 Energy Change          TolE            ....  1.000e-06 Eh
 Max Density Change     TolMaxP         ....  1.000e-05
 RMS Density Change     TolRMSP         ....  1.000e-06


Diagonalization of the overlap matrix:
Smallest eigenvalue                        ... 5.376e-04
Time for diagonalization                   ...    0.051 sec
Threshold for overlap eigenvalues          ... 1.000e-08
Number of eigenvalues below threshold      ... 0
Time for construction of square roots      ...    0.038 sec
Total time needed                          ...    0.091 sec

Time for model grid setup =    0.585 sec

------------------------------
INITIAL GUESS: MODEL POTENTIAL
------------------------------
Loading Hartree-Fock densities                     ... done
  calling /home/ehlert/src/miniconda3/envs/orca500/Programs/ORCA501/orca scan_atom79.inp > scan_atom79.out in order to generate an atomic fitting density for atom 0 (Au with ECP) on-the-fly... 
    atom 0 (Au), assumed electronic state with S=2: 1s2 2s2 2p6 3s2 3p6 4s2 3d10 4p6 5s2 4d10 5p6 6s1 4f14 5d10           ... done
Calculating cut-offs                               ... done
Initializing the effective Hamiltonian             ... done
Setting up the integral package (SHARK)            ... done
Starting the Coulomb interaction                   ... done (   0.4 sec)
Reading the grid                                   ... done
Mapping shells                                     ... done
Starting the XC term evaluation                    ... done (   0.4 sec)
  promolecular density results
     # of electrons  =    815.012158142
     EX              =  -3708.754532937
     EC              =    -49.478274771
     EX+EC           =  -3758.232807708
Transforming the Hamiltonian                       ... done (   0.0 sec)
Diagonalizing the Hamiltonian                      ... done (   0.1 sec)
Back transforming the eigenvectors                 ... done (   0.0 sec)
Now organizing SCF variables                       ... done
                      ------------------
                      INITIAL GUESS DONE (   2.3 sec)
                      ------------------
-------------------
DFT GRID GENERATION
-------------------

General Integration Accuracy     IntAcc      ... 4.388
Radial Grid Type                 RadialGrid  ... OptM3 with GC (2021)
Angular Grid (max. ang.)         AngularGrid ... 4 (Lebedev-302)
Angular grid pruning method      GridPruning ... 4 (adaptive)
Weight generation scheme         WeightScheme... Becke
Basis function cutoff            BFCut       ... 1.0000e-10
Integration weight cutoff        WCut        ... 1.0000e-14
Angular grids for H and He will be reduced by one unit
Partially contracted basis set               ... off
Rotationally invariant grid construction     ... off

Total number of grid points                  ...   123898
Total number of batches                      ...     1941
Average number of points per batch           ...       63
Average number of grid points per atom       ...    11263
Time for grid setup =    1.942 sec

--------------
SCF ITERATIONS
--------------
ITER       Energy         Delta-E        Max-DP      RMS-DP      [F,P]   Gradient Norm
               ***  Starting incremental Fock matrix formation  ***
                             ****Resetting KDIIS****
                             ****Turning on KDIIS(Cayley)****
  0  -2508.2223168645   0.000000000000 0.10274382  0.00095139  0.3334198   0.202526672
  1  -2508.7947198864  -0.572403021878 0.07524143  0.00095418  0.2983838   0.165285404
  2  -2509.0978311990  -0.303111312538 0.10869323  0.00113213  0.2358571   0.127090329
  3  -2509.3081585113  -0.210327312359 0.15518834  0.00163444  0.1389927   0.075101113
  4  -2509.4156103347  -0.107451823416 0.03691506  0.00047963  0.0150054   0.013085385
  5  -2509.4347885748  -0.019178240063 0.04151971  0.00045724  0.0152398   0.006047438
  6  -2509.4441434406  -0.009354865829 0.01341446  0.00026061  0.0144189   0.005974162
  7  -2509.4492997658  -0.005156325197 0.01598346  0.00024170  0.0040519   0.004122954
  8  -2509.4481189635   0.001180802327 0.01851329  0.00017294  0.0041520   0.006666890
  9  -2509.4518337887  -0.003714825218 0.00515712  0.00005486  0.0015678   0.001532896
 10  -2509.4519592174  -0.000125428692 0.00229313  0.00003529  0.0016262   0.001232301
 11  -2509.4521457420  -0.000186524558 0.00300950  0.00003504  0.0006885   0.000392641
 12  -2509.4521939944  -0.000048252415 0.00147421  0.00001755  0.0009573   0.000640373
 13  -2509.4521785173   0.000015477103 0.00127827  0.00001773  0.0004601   0.000318040
 14  -2509.4522010880  -0.000022570750 0.00082890  0.00001116  0.0004283   0.000244674
 15  -2509.4522123207  -0.000011232681 0.00110064  0.00001253  0.0003583   0.000314317
 16  -2509.4522180653  -0.000005744605 0.00056165  0.00000627  0.0003368   0.000201603
 17  -2509.4522161485   0.000001916797 0.00077458  0.00001027  0.0002885   0.000135041
 18  -2509.4522204204  -0.000004271933 0.00045770  0.00000423  0.0002144   0.000115303
 19  -2509.4522252818  -0.000004861346 0.00033226  0.00000485  0.0002467   0.000116362
               *** Restarting incremental Fock matrix formation ***
                             ****Resetting KDIIS****
                          ***Energy convergence achieved***
                           ***RMSP convergence achieved***
 20  -2509.4522249356   0.000000346211 0.00007001  0.00000069  0.0001781   0.000073325

            ***Energy convergence in two consecutive cycles with***
                    ***'reasonable' density convergence***
                       *** signaling convergence ***

                    *** KDIIS BlockDiag ( 0.118 sec) ***

               *****************************************************
               *                     SUCCESS                       *
               *           SCF CONVERGED AFTER  21 CYCLES          *
               *****************************************************


----------------
TOTAL SCF ENERGY
----------------

Total Energy       :        -2509.45222521 Eh          -68285.66662 eV

Components:
Nuclear Repulsion  :         3040.42347161 Eh           82734.12878 eV
Electronic Energy  :        -5549.87569682 Eh         -151019.79541 eV
One Electron Energy:       -10048.73380974 Eh         -273439.94838 eV
Two Electron Energy:         4498.85811292 Eh          122420.15297 eV

Virial components:
Potential Energy   :        -4117.32689987 Eh         -112038.16086 eV
Kinetic Energy     :         1607.87467467 Eh           43752.49423 eV
Virial Ratio       :            2.56072626


DFT components:
N(Alpha)           :      110.000000799111 electrons
N(Beta)            :      105.000001744071 electrons
N(Total)           :      215.000002543182 electrons
E(X)               :     -172.451746827117 Eh       
E(C)               :       -8.886877142977 Eh       
E(XC)              :     -181.338623970095 Eh       
DFET-embed. en.    :        0.000000000000 Eh       

---------------
SCF CONVERGENCE
---------------

  Last Energy change         ...   -2.6948e-07  Tolerance :   1.0000e-06
  Last MAX-Density change    ...    6.8592e-05  Tolerance :   1.0000e-05
  Last RMS-Density change    ...    1.0074e-06  Tolerance :   1.0000e-06

             **** THE GBW FILE WAS UPDATED (scan.gbw) ****
             **** DENSITY scan.scfp WAS UPDATED ****
             **** ENERGY FILE WAS UPDATED (scan.en.tmp) ****
----------------------
UHF SPIN CONTAMINATION
----------------------

Warning: in a DFT calculation there is little theoretical justification to 
         calculate <S**2> as in Hartree-Fock theory. We will do it anyways
         but you should keep in mind that the values have only limited relevance

Expectation value of <S**2>     :     8.776820
Ideal value S*(S+1) for S=2.5   :     8.750000
Deviation                       :     0.026820

             **** THE GBW FILE WAS UPDATED (scan.gbw) ****
             **** DENSITY scan.scfp WAS UPDATED ****
----------------
ORBITAL ENERGIES
----------------
                 SPIN UP ORBITALS
  NO   OCC          E(Eh)            E(eV) 
   0   1.0000    -235.040932     -6395.7889 
   1   1.0000     -27.223083      -740.7777 
   2   1.0000     -23.270573      -633.2245 
   3   1.0000     -23.269509      -633.1955 
   4   1.0000     -23.268296      -633.1625 
   5   1.0000      -4.125408      -112.2580 
   6   1.0000      -4.116345      -112.0114 
   7   1.0000      -4.115232      -111.9812 
   8   1.0000      -4.114855      -111.9709 
   9   1.0000      -4.114442      -111.9597 
  10   1.0000      -4.113042      -111.9216 
  11   1.0000      -4.112099      -111.8959 
  12   1.0000      -4.111621      -111.8829 
  13   1.0000      -4.110372      -111.8489 
  14   1.0000      -4.101402      -111.6048 
  15   1.0000      -3.247516       -88.3694 
  16   1.0000      -2.318481       -63.0891 
  17   1.0000      -2.311440       -62.8975 
  18   1.0000      -2.309191       -62.8363 
  19   1.0000      -2.308853       -62.8271 
  20   1.0000      -2.305952       -62.7481 
  21   1.0000      -2.304773       -62.7161 
  22   1.0000      -2.303801       -62.6896 
  23   1.0000      -2.303686       -62.6865 
  24   1.0000      -2.303043       -62.6690 
  25   1.0000      -2.302770       -62.6616 
  26   1.0000      -2.302238       -62.6471 
  27   1.0000      -2.301402       -62.6243 
  28   1.0000      -2.300856       -62.6095 
  29   1.0000      -2.299875       -62.5828 
  30   1.0000      -2.298645       -62.5493 
  31   1.0000      -2.297878       -62.5284 
  32   1.0000      -2.297419       -62.5160 
  33   1.0000      -2.297219       -62.5105 
  34   1.0000      -2.296461       -62.4899 
  35   1.0000      -2.295855       -62.4734 
  36   1.0000      -2.295316       -62.4587 
  37   1.0000      -2.294046       -62.4242 
  38   1.0000      -2.293695       -62.4146 
  39   1.0000      -2.293095       -62.3983 
  40   1.0000      -2.292313       -62.3770 
  41   1.0000      -2.291586       -62.3572 
  42   1.0000      -2.290602       -62.3305 
  43   1.0000      -2.290133       -62.3177 
  44   1.0000      -2.287262       -62.2396 
  45   1.0000      -2.280003       -62.0420 
  46   1.0000      -2.105988       -57.3068 
  47   1.0000      -2.103899       -57.2500 
  48   1.0000      -2.102031       -57.1992 
  49   1.0000      -0.413411       -11.2495 
  50   1.0000      -0.393149       -10.6981 
  51   1.0000      -0.385056       -10.4779 
  52   1.0000      -0.381262       -10.3747 
  53   1.0000      -0.376089       -10.2339 
  54   1.0000      -0.371280       -10.1030 
  55   1.0000      -0.367449        -9.9988 
  56   1.0000      -0.356446        -9.6994 
  57   1.0000      -0.354218        -9.6388 
  58   1.0000      -0.349093        -9.4993 
  59   1.0000      -0.348564        -9.4849 
  60   1.0000      -0.342071        -9.3082 
  61   1.0000      -0.339917        -9.2496 
  62   1.0000      -0.337119        -9.1735 
  63   1.0000      -0.334404        -9.0996 
  64   1.0000      -0.332925        -9.0593 
  65   1.0000      -0.329300        -8.9607 
  66   1.0000      -0.325131        -8.8473 
  67   1.0000      -0.323282        -8.7970 
  68   1.0000      -0.321754        -8.7554 
  69   1.0000      -0.315919        -8.5966 
  70   1.0000      -0.313989        -8.5441 
  71   1.0000      -0.310389        -8.4461 
  72   1.0000      -0.309353        -8.4179 
  73   1.0000      -0.305596        -8.3157 
  74   1.0000      -0.300916        -8.1883 
  75   1.0000      -0.299518        -8.1503 
  76   1.0000      -0.296851        -8.0777 
  77   1.0000      -0.293553        -7.9880 
  78   1.0000      -0.292450        -7.9580 
  79   1.0000      -0.289577        -7.8798 
  80   1.0000      -0.287423        -7.8212 
  81   1.0000      -0.286102        -7.7852 
  82   1.0000      -0.284216        -7.7339 
  83   1.0000      -0.282427        -7.6852 
  84   1.0000      -0.281573        -7.6620 
  85   1.0000      -0.278861        -7.5882 
  86   1.0000      -0.277644        -7.5551 
  87   1.0000      -0.275829        -7.5057 
  88   1.0000      -0.273831        -7.4513 
  89   1.0000      -0.273307        -7.4371 
  90   1.0000      -0.270889        -7.3713 
  91   1.0000      -0.269823        -7.3423 
  92   1.0000      -0.268457        -7.3051 
  93   1.0000      -0.266581        -7.2540 
  94   1.0000      -0.266065        -7.2400 
  95   1.0000      -0.264653        -7.2016 
  96   1.0000      -0.264080        -7.1860 
  97   1.0000      -0.262098        -7.1320 
  98   1.0000      -0.259321        -7.0565 
  99   1.0000      -0.257335        -7.0024 
 100   1.0000      -0.253742        -6.9047 
 101   1.0000      -0.253179        -6.8893 
 102   1.0000      -0.251695        -6.8490 
 103   1.0000      -0.248940        -6.7740 
 104   1.0000      -0.248766        -6.7693 
 105   1.0000      -0.244352        -6.6492 
 106   1.0000      -0.240249        -6.5375 
 107   1.0000      -0.220348        -5.9960 
 108   1.0000      -0.215664        -5.8685 
 109   1.0000      -0.208081        -5.6622 
 110   0.0000      -0.159207        -4.3322 
 111   0.0000      -0.136191        -3.7059 
 112   0.0000      -0.124635        -3.3915 
 113   0.0000      -0.121124        -3.2960 
 114   0.0000      -0.097355        -2.6492 
 115   0.0000      -0.070273        -1.9122 
 116   0.0000      -0.058325        -1.5871 
 117   0.0000      -0.050682        -1.3791 
 118   0.0000      -0.044586        -1.2133 
 119   0.0000      -0.035887        -0.9765 
 120   0.0000      -0.027835        -0.7574 
 121   0.0000      -0.021106        -0.5743 
 122   0.0000      -0.012762        -0.3473 
 123   0.0000       0.000942         0.0256 
 124   0.0000       0.013699         0.3728 
 125   0.0000       0.024977         0.6797 
 126   0.0000       0.033197         0.9033 
 127   0.0000       0.045114         1.2276 
 128   0.0000       0.046355         1.2614 
 129   0.0000       0.054911         1.4942 
 130   0.0000       0.057142         1.5549 
 131   0.0000       0.068526         1.8647 
 132   0.0000       0.072273         1.9666 
 133   0.0000       0.078241         2.1290 
 134   0.0000       0.080345         2.1863 
 135   0.0000       0.083518         2.2726 
 136   0.0000       0.089259         2.4288 
 137   0.0000       0.098125         2.6701 
 138   0.0000       0.104241         2.8365 
 139   0.0000       0.107158         2.9159 
 140   0.0000       0.113630         3.0920 
 141   0.0000       0.117469         3.1965 
 142   0.0000       0.127163         3.4603 
 143   0.0000       0.138956         3.7812 
 144   0.0000       0.146586         3.9888 
 145   0.0000       0.164107         4.4656 
 146   0.0000       0.165758         4.5105 
 147   0.0000       0.171358         4.6629 
 148   0.0000       0.173967         4.7339 
 149   0.0000       0.181798         4.9470 
 150   0.0000       0.187483         5.1017 
 151   0.0000       0.195158         5.3105 
 152   0.0000       0.204343         5.5605 
 153   0.0000       0.210207         5.7200 
 154   0.0000       0.217534         5.9194 
 155   0.0000       0.222748         6.0613 
 156   0.0000       0.226843         6.1727 
 157   0.0000       0.242237         6.5916 
 158   0.0000       0.244070         6.6415 
 159   0.0000       0.246810         6.7160 
 160   0.0000       0.261731         7.1221 
 161   0.0000       0.270188         7.3522 
 162   0.0000       0.279195         7.5973 
 163   0.0000       0.281689         7.6652 
 164   0.0000       0.286724         7.8022 
 165   0.0000       0.291403         7.9295 
 166   0.0000       0.294396         8.0109 
 167   0.0000       0.303032         8.2459 
 168   0.0000       0.308316         8.3897 
 169   0.0000       0.311760         8.4834 
 170   0.0000       0.314276         8.5519 
 171   0.0000       0.322091         8.7645 
 172   0.0000       0.328224         8.9314 
 173   0.0000       0.331439         9.0189 
 174   0.0000       0.338716         9.2169 
 175   0.0000       0.346950         9.4410 
 176   0.0000       0.347905         9.4670 
 177   0.0000       0.351156         9.5554 
 178   0.0000       0.356894         9.7116 
 179   0.0000       0.363610         9.8943 
 180   0.0000       0.368794        10.0354 
 181   0.0000       0.375537        10.2189 
 182   0.0000       0.376945        10.2572 
 183   0.0000       0.379588        10.3291 
 184   0.0000       0.387210        10.5365 
 185   0.0000       0.390655        10.6303 
 186   0.0000       0.399636        10.8746 
 187   0.0000       0.403136        10.9699 
 188   0.0000       0.407600        11.0914 
 189   0.0000       0.418218        11.3803 
 190   0.0000       0.424688        11.5564 
 191   0.0000       0.426791        11.6136 
 192   0.0000       0.429761        11.6944 
 193   0.0000       0.441483        12.0134 
 194   0.0000       0.443974        12.0811 
 195   0.0000       0.453131        12.3303 
 196   0.0000       0.455979        12.4078 
 197   0.0000       0.466430        12.6922 
 198   0.0000       0.471575        12.8322 
 199   0.0000       0.475788        12.9469 
 200   0.0000       0.486361        13.2346 
 201   0.0000       0.492087        13.3904 
 202   0.0000       0.495333        13.4787 
 203   0.0000       0.500368        13.6157 
 204   0.0000       0.506185        13.7740 
 205   0.0000       0.513901        13.9840 
 206   0.0000       0.525398        14.2968 
 207   0.0000       0.528462        14.3802 
 208   0.0000       0.536068        14.5872 
 209   0.0000       0.541242        14.7280 
 210   0.0000       0.553616        15.0647 
 211   0.0000       0.564907        15.3719 
 212   0.0000       0.570076        15.5126 
 213   0.0000       0.587532        15.9875 
 214   0.0000       0.606694        16.5090 
 215   0.0000       0.617053        16.7909 
 216   0.0000       0.630335        17.1523 
 217   0.0000       0.644829        17.5467 
 218   0.0000       0.670447        18.2438 
 219   0.0000       0.683208        18.5910 
 220   0.0000       0.690833        18.7985 
 221   0.0000       0.698979        19.0202 
 222   0.0000       0.712649        19.3922 
 223   0.0000       0.724807        19.7230 
 224   0.0000       0.751899        20.4602 
 225   0.0000       0.760502        20.6943 
 226   0.0000       0.775916        21.1138 
 227   0.0000       0.791866        21.5478 
 228   0.0000       0.803035        21.8517 
 229   0.0000       0.816072        22.2064 
 230   0.0000       0.832288        22.6477 
 231   0.0000       0.850098        23.1324 
 232   0.0000       0.863746        23.5037 
 233   0.0000       0.876591        23.8532 
 234   0.0000       0.885352        24.0917 
 235   0.0000       0.901240        24.5240 
 236   0.0000       0.906651        24.6712 
 237   0.0000       0.925686        25.1892 
 238   0.0000       0.927036        25.2259 
 239   0.0000       0.942247        25.6398 
 240   0.0000       0.955271        25.9942 
 241   0.0000       0.964546        26.2466 
 242   0.0000       0.975357        26.5408 
 243   0.0000       0.994838        27.0709 
 244   0.0000       1.014619        27.6092 
 245   0.0000       1.050079        28.5741 
 246   0.0000       1.067215        29.0404 
 247   0.0000       1.111304        30.2401 
 248   0.0000       1.132572        30.8189 
 249   0.0000       1.254980        34.1497 
 250   0.0000       1.280345        34.8400 
 251   0.0000       1.286123        34.9972 
 252   0.0000       1.320689        35.9378 
 253   0.0000       1.328359        36.1465 
 254   0.0000       1.349474        36.7210 
 255   0.0000       1.361525        37.0490 
 256   0.0000       1.365972        37.1700 
 257   0.0000       1.368141        37.2290 
 258   0.0000       1.380513        37.5657 
 259   0.0000       1.389321        37.8053 
 260   0.0000       1.399826        38.0912 
 261   0.0000       1.411005        38.3954 
 262   0.0000       1.411754        38.4158 
 263   0.0000       1.420891        38.6644 
 264   0.0000       1.435263        39.0555 
 265   0.0000       1.440549        39.1993 
 266   0.0000       1.445405        39.3315 
 267   0.0000       1.449583        39.4452 
 268   0.0000       1.457499        39.6606 
 269   0.0000       1.462798        39.8048 
 270   0.0000       1.468534        39.9608 
 271   0.0000       1.472123        40.0585 
 272   0.0000       1.476603        40.1804 
 273   0.0000       1.484341        40.3910 
 274   0.0000       1.486933        40.4615 
 275   0.0000       1.493966        40.6529 
 276   0.0000       1.497603        40.7518 
 277   0.0000       1.501034        40.8452 
 278   0.0000       1.504221        40.9319 
 279   0.0000       1.510924        41.1143 
 280   0.0000       1.512572        41.1592 
 281   0.0000       1.517801        41.3015 
 282   0.0000       1.521031        41.3894 
 283   0.0000       1.527921        41.5769 
 284   0.0000       1.531712        41.6800 
 285   0.0000       1.534558        41.7575 
 286   0.0000       1.536078        41.7988 
 287   0.0000       1.538210        41.8568 
 288   0.0000       1.540930        41.9308 
 289   0.0000       1.543751        42.0076 
 290   0.0000       1.547772        42.1170 
 291   0.0000       1.548868        42.1468 
 292   0.0000       1.551237        42.2113 
 293   0.0000       1.554532        42.3010 
 294   0.0000       1.556685        42.3595 
 295   0.0000       1.558055        42.3968 
 296   0.0000       1.559391        42.4332 
 297   0.0000       1.561102        42.4798 
 298   0.0000       1.563780        42.5526 
 299   0.0000       1.565488        42.5991 
 300   0.0000       1.565854        42.6091 
 301   0.0000       1.568860        42.6909 
 302   0.0000       1.569362        42.7045 
 303   0.0000       1.574196        42.8361 
 304   0.0000       1.576274        42.8926 
 305   0.0000       1.578668        42.9577 
 306   0.0000       1.579774        42.9878 
 307   0.0000       1.581055        43.0227 
 308   0.0000       1.583333        43.0847 
 309   0.0000       1.584553        43.1179 
 310   0.0000       1.586680        43.1758 
 311   0.0000       1.589116        43.2420 
 312   0.0000       1.589414        43.2502 
 313   0.0000       1.592191        43.3257 
 314   0.0000       1.592942        43.3461 
 315   0.0000       1.596423        43.4409 
 316   0.0000       1.597798        43.4783 
 317   0.0000       1.598863        43.5073 
 318   0.0000       1.604010        43.6473 
 319   0.0000       1.607201        43.7342 
 320   0.0000       1.608708        43.7752 
 321   0.0000       1.609780        43.8043 
 322   0.0000       1.610717        43.8298 
 323   0.0000       1.614336        43.9283 
 324   0.0000       1.616546        43.9885 
 325   0.0000       1.619311        44.0637 
 326   0.0000       1.621271        44.1170 
 327   0.0000       1.623126        44.1675 
 328   0.0000       1.626386        44.2562 
 329   0.0000       1.629443        44.3394 
 330   0.0000       1.629818        44.3496 
 331   0.0000       1.631900        44.4063 
 332   0.0000       1.635517        44.5047 
 333   0.0000       1.637278        44.5526 
 334   0.0000       1.642325        44.6899 
 335   0.0000       1.644278        44.7431 
 336   0.0000       1.645796        44.7844 
 337   0.0000       1.650120        44.9021 
 338   0.0000       1.657056        45.0908 
 339   0.0000       1.658963        45.1427 
 340   0.0000       1.662951        45.2512 
 341   0.0000       1.669493        45.4292 
 342   0.0000       1.675447        45.5912 
 343   0.0000       1.676124        45.6096 
 344   0.0000       1.680741        45.7353 
 345   0.0000       1.688040        45.9339 
 346   0.0000       1.692203        46.0472 
 347   0.0000       1.699063        46.2339 
 348   0.0000       1.706927        46.4478 
 349   0.0000       1.708910        46.5018 
 350   0.0000       1.714297        46.6484 
 351   0.0000       1.728000        47.0213 
 352   0.0000       1.741942        47.4007 
 353   0.0000       1.748913        47.5903 
 354   0.0000       1.770168        48.1687 
 355   0.0000       1.780855        48.4595 
 356   0.0000       1.796389        48.8822 
 357   0.0000       1.796571        48.8872 
 358   0.0000       1.821541        49.5666 
 359   0.0000       1.859467        50.5987 
 360   0.0000       1.886692        51.3395 
 361   0.0000       1.899864        51.6979 
 362   0.0000       1.908181        51.9242 
 363   0.0000       1.926422        52.4206 
 364   0.0000       1.962291        53.3966 
 365   0.0000       1.970715        53.6259 
 366   0.0000       1.986742        54.0620 
 367   0.0000       2.016160        54.8625 
 368   0.0000       2.032121        55.2968 
 369   0.0000       2.050559        55.7985 
 370   0.0000       2.120204        57.6937 
 371   0.0000       2.182790        59.3967 
 372   0.0000       2.225275        60.5528 
 373   0.0000       2.282839        62.1192 
 374   0.0000       2.353773        64.0494 
 375   0.0000       2.391453        65.0747 
 376   0.0000       2.449114        66.6438 
 377   0.0000       2.461553        66.9823 
 378   0.0000       2.559565        69.6493 
 379   0.0000       2.572564        70.0030 
 380   0.0000       2.587309        70.4043 
 381   0.0000       2.623535        71.3900 
 382   0.0000       2.842159        77.3391 
 383   0.0000       3.253238        88.5251 
 384   0.0000       3.299214        89.7762 
 385   0.0000       3.306625        89.9778 
 386   0.0000       3.312139        90.1279 
 387   0.0000       3.317746        90.2805 
 388   0.0000       3.321370        90.3791 
 389   0.0000       3.335018        90.7505 
 390   0.0000       3.341142        90.9171 
 391   0.0000       3.380155        91.9787 
 392   0.0000       3.419397        93.0465 
 393   0.0000       3.508859        95.4809 
 394   0.0000       3.584303        97.5339 
 395   0.0000      23.760059       646.5441 
 396   0.0000      23.900777       650.3732 
 397   0.0000      23.985577       652.6807 
 398   0.0000      24.235530       659.4823 
 399   0.0000      24.315930       661.6701 
 400   0.0000      24.525058       667.3608 
 401   0.0000      24.555677       668.1940 
 402   0.0000      24.666477       671.2090 
 403   0.0000      24.857290       676.4012 
 404   0.0000      25.202981       685.8080 
 405   0.0000      25.385462       690.7735 
 406   0.0000      25.728667       700.1126 
 407   0.0000      25.879774       704.2244 
 408   0.0000      26.055047       708.9939 
 409   0.0000      26.102694       710.2904 
 410   0.0000      26.362472       717.3593 
 411   0.0000      26.456641       719.9218 
 412   0.0000      26.651231       725.2169 
 413   0.0000      26.728569       727.3213 
 414   0.0000      26.961248       733.6528 
 415   0.0000      27.133986       738.3533 
 416   0.0000      27.313778       743.2457 
 417   0.0000      27.414951       745.9987 
 418   0.0000      27.727968       754.5164 
 419   0.0000      27.904525       759.3207 
 420   0.0000      28.069450       763.8086 
 421   0.0000      28.458143       774.3854 
 422   0.0000      28.626950       778.9789 
 423   0.0000      28.661867       779.9290 
 424   0.0000      28.781180       783.1757 
 425   0.0000      44.349648      1206.8153 
 426   0.0000      44.404097      1208.2969 
 427   0.0000      44.441376      1209.3113 
 428   0.0000      44.483936      1210.4695 
 429   0.0000      44.542765      1212.0703 
 430   0.0000      44.555229      1212.4094 
 431   0.0000      44.612414      1213.9655 
 432   0.0000      44.631091      1214.4737 
 433   0.0000      44.648906      1214.9585 
 434   0.0000      44.671078      1215.5618 
 435   0.0000     205.239524      5584.8514 
 436   0.0000     205.260931      5585.4339 
 437   0.0000     205.273298      5585.7704 
 438   0.0000     205.295162      5586.3654 
 439   0.0000     205.316227      5586.9386 
 440   0.0000     205.322356      5587.1054 
 441   0.0000     205.341478      5587.6257 
 442   0.0000     205.351809      5587.9068 
 443   0.0000     205.363243      5588.2179 
 444   0.0000     205.366370      5588.3030 

                 SPIN DOWN ORBITALS
  NO   OCC          E(Eh)            E(eV) 
   0   1.0000    -235.039832     -6395.7590 
   1   1.0000     -27.132972      -738.3257 
   2   1.0000     -23.200756      -631.3247 
   3   1.0000     -23.200546      -631.3190 
   4   1.0000     -23.199662      -631.2949 
   5   1.0000      -4.123885      -112.2166 
   6   1.0000      -4.114889      -111.9718 
   7   1.0000      -4.114388      -111.9582 
   8   1.0000      -4.113734      -111.9404 
   9   1.0000      -4.112743      -111.9134 
  10   1.0000      -4.111463      -111.8786 
  11   1.0000      -4.111340      -111.8752 
  12   1.0000      -4.110287      -111.8466 
  13   1.0000      -4.109121      -111.8149 
  14   1.0000      -4.101242      -111.6005 
  15   1.0000      -3.031931       -82.5030 
  16   1.0000      -2.316673       -63.0399 
  17   1.0000      -2.309146       -62.8351 
  18   1.0000      -2.307412       -62.7879 
  19   1.0000      -2.306883       -62.7735 
  20   1.0000      -2.304451       -62.7073 
  21   1.0000      -2.303691       -62.6866 
  22   1.0000      -2.302434       -62.6524 
  23   1.0000      -2.301993       -62.6404 
  24   1.0000      -2.300777       -62.6073 
  25   1.0000      -2.300618       -62.6030 
  26   1.0000      -2.300171       -62.5908 
  27   1.0000      -2.299792       -62.5805 
  28   1.0000      -2.299391       -62.5696 
  29   1.0000      -2.298478       -62.5448 
  30   1.0000      -2.297086       -62.5069 
  31   1.0000      -2.296461       -62.4899 
  32   1.0000      -2.296043       -62.4785 
  33   1.0000      -2.295887       -62.4743 
  34   1.0000      -2.295612       -62.4668 
  35   1.0000      -2.294580       -62.4387 
  36   1.0000      -2.294513       -62.4369 
  37   1.0000      -2.293572       -62.4113 
  38   1.0000      -2.292801       -62.3903 
  39   1.0000      -2.292229       -62.3747 
  40   1.0000      -2.290988       -62.3410 
  41   1.0000      -2.290174       -62.3188 
  42   1.0000      -2.289448       -62.2990 
  43   1.0000      -2.288817       -62.2819 
  44   1.0000      -2.287187       -62.2375 
  45   1.0000      -2.279850       -62.0379 
  46   1.0000      -1.890638       -51.4469 
  47   1.0000      -1.889776       -51.4234 
  48   1.0000      -1.888423       -51.3866 
  49   1.0000      -0.407567       -11.0905 
  50   1.0000      -0.389912       -10.6101 
  51   1.0000      -0.381484       -10.3807 
  52   1.0000      -0.373413       -10.1611 
  53   1.0000      -0.369258       -10.0480 
  54   1.0000      -0.362709        -9.8698 
  55   1.0000      -0.357948        -9.7403 
  56   1.0000      -0.347017        -9.4428 
  57   1.0000      -0.345139        -9.3917 
  58   1.0000      -0.342707        -9.3255 
  59   1.0000      -0.338018        -9.1979 
  60   1.0000      -0.336995        -9.1701 
  61   1.0000      -0.332135        -9.0378 
  62   1.0000      -0.328990        -8.9523 
  63   1.0000      -0.325351        -8.8532 
  64   1.0000      -0.322912        -8.7869 
  65   1.0000      -0.322045        -8.7633 
  66   1.0000      -0.319575        -8.6961 
  67   1.0000      -0.315998        -8.5988 
  68   1.0000      -0.313467        -8.5299 
  69   1.0000      -0.310910        -8.4603 
  70   1.0000      -0.309426        -8.4199 
  71   1.0000      -0.305225        -8.3056 
  72   1.0000      -0.302963        -8.2440 
  73   1.0000      -0.299259        -8.1432 
  74   1.0000      -0.297601        -8.0981 
  75   1.0000      -0.295670        -8.0456 
  76   1.0000      -0.290461        -7.9039 
  77   1.0000      -0.290146        -7.8953 
  78   1.0000      -0.287480        -7.8227 
  79   1.0000      -0.285353        -7.7648 
  80   1.0000      -0.284302        -7.7363 
  81   1.0000      -0.282939        -7.6992 
  82   1.0000      -0.280937        -7.6447 
  83   1.0000      -0.279593        -7.6081 
  84   1.0000      -0.278727        -7.5845 
  85   1.0000      -0.277427        -7.5492 
  86   1.0000      -0.274482        -7.4690 
  87   1.0000      -0.273729        -7.4486 
  88   1.0000      -0.271301        -7.3825 
  89   1.0000      -0.269555        -7.3350 
  90   1.0000      -0.268296        -7.3007 
  91   1.0000      -0.265413        -7.2223 
  92   1.0000      -0.263904        -7.1812 
  93   1.0000      -0.261520        -7.1163 
  94   1.0000      -0.260834        -7.0977 
  95   1.0000      -0.258418        -7.0319 
  96   1.0000      -0.255868        -6.9625 
  97   1.0000      -0.252284        -6.8650 
  98   1.0000      -0.250348        -6.8123 
  99   1.0000      -0.248750        -6.7688 
 100   1.0000      -0.246060        -6.6956 
 101   1.0000      -0.242281        -6.5928 
 102   1.0000      -0.226049        -6.1511 
 103   1.0000      -0.221840        -6.0366 
 104   1.0000      -0.213033        -5.7969 
 105   0.0000      -0.163963        -4.4617 
 106   0.0000      -0.140646        -3.8272 
 107   0.0000      -0.129123        -3.5136 
 108   0.0000      -0.123914        -3.3719 
 109   0.0000      -0.109266        -2.9733 
 110   0.0000      -0.106476        -2.8974 
 111   0.0000      -0.103849        -2.8259 
 112   0.0000      -0.100741        -2.7413 
 113   0.0000      -0.097724        -2.6592 
 114   0.0000      -0.082353        -2.2409 
 115   0.0000      -0.063071        -1.7163 
 116   0.0000      -0.052952        -1.4409 
 117   0.0000      -0.040205        -1.0940 
 118   0.0000      -0.035956        -0.9784 
 119   0.0000      -0.028772        -0.7829 
 120   0.0000      -0.020364        -0.5541 
 121   0.0000      -0.017465        -0.4752 
 122   0.0000      -0.005960        -0.1622 
 123   0.0000       0.007201         0.1960 
 124   0.0000       0.018027         0.4905 
 125   0.0000       0.027495         0.7482 
 126   0.0000       0.036289         0.9875 
 127   0.0000       0.048128         1.3096 
 128   0.0000       0.052033         1.4159 
 129   0.0000       0.058152         1.5824 
 130   0.0000       0.061315         1.6685 
 131   0.0000       0.070247         1.9115 
 132   0.0000       0.075248         2.0476 
 133   0.0000       0.078983         2.1492 
 134   0.0000       0.081375         2.2143 
 135   0.0000       0.087166         2.3719 
 136   0.0000       0.091299         2.4844 
 137   0.0000       0.100414         2.7324 
 138   0.0000       0.106755         2.9050 
 139   0.0000       0.110811         3.0153 
 140   0.0000       0.116125         3.1599 
 141   0.0000       0.119819         3.2604 
 142   0.0000       0.132025         3.5926 
 143   0.0000       0.152041         4.1372 
 144   0.0000       0.160834         4.3765 
 145   0.0000       0.167531         4.5588 
 146   0.0000       0.170157         4.6302 
 147   0.0000       0.180614         4.9147 
 148   0.0000       0.183993         5.0067 
 149   0.0000       0.191227         5.2036 
 150   0.0000       0.196190         5.3386 
 151   0.0000       0.203716         5.5434 
 152   0.0000       0.214001         5.8233 
 153   0.0000       0.217725         5.9246 
 154   0.0000       0.221875         6.0375 
 155   0.0000       0.229432         6.2432 
 156   0.0000       0.231088         6.2882 
 157   0.0000       0.243648         6.6300 
 158   0.0000       0.246687         6.7127 
 159   0.0000       0.249775         6.7967 
 160   0.0000       0.263459         7.1691 
 161   0.0000       0.273221         7.4347 
 162   0.0000       0.281266         7.6536 
 163   0.0000       0.284521         7.7422 
 164   0.0000       0.288874         7.8607 
 165   0.0000       0.292658         7.9636 
 166   0.0000       0.297847         8.1048 
 167   0.0000       0.305356         8.3092 
 168   0.0000       0.310468         8.4483 
 169   0.0000       0.313213         8.5230 
 170   0.0000       0.315577         8.5873 
 171   0.0000       0.324319         8.8252 
 172   0.0000       0.329306         8.9609 
 173   0.0000       0.332751         9.0546 
 174   0.0000       0.340530         9.2663 
 175   0.0000       0.349127         9.5002 
 176   0.0000       0.350326         9.5329 
 177   0.0000       0.353689         9.6244 
 178   0.0000       0.359312         9.7774 
 179   0.0000       0.364592         9.9211 
 180   0.0000       0.369961        10.0671 
 181   0.0000       0.376743        10.2517 
 182   0.0000       0.378876        10.3097 
 183   0.0000       0.381215        10.3734 
 184   0.0000       0.389295        10.5933 
 185   0.0000       0.391529        10.6541 
 186   0.0000       0.402063        10.9407 
 187   0.0000       0.404679        11.0119 
 188   0.0000       0.410754        11.1772 
 189   0.0000       0.420858        11.4521 
 190   0.0000       0.427095        11.6218 
 191   0.0000       0.428652        11.6642 
 192   0.0000       0.431846        11.7511 
 193   0.0000       0.443676        12.0730 
 194   0.0000       0.447439        12.1754 
 195   0.0000       0.455540        12.3959 
 196   0.0000       0.457440        12.4476 
 197   0.0000       0.470198        12.7947 
 198   0.0000       0.474366        12.9082 
 199   0.0000       0.480051        13.0629 
 200   0.0000       0.490137        13.3373 
 201   0.0000       0.495194        13.4749 
 202   0.0000       0.500721        13.6253 
 203   0.0000       0.503621        13.7042 
 204   0.0000       0.511852        13.9282 
 205   0.0000       0.517833        14.0909 
 206   0.0000       0.527703        14.3595 
 207   0.0000       0.530828        14.4446 
 208   0.0000       0.538061        14.6414 
 209   0.0000       0.543592        14.7919 
 210   0.0000       0.556728        15.1494 
 211   0.0000       0.569249        15.4901 
 212   0.0000       0.571417        15.5491 
 213   0.0000       0.590742        16.0749 
 214   0.0000       0.616932        16.7876 
 215   0.0000       0.627224        17.0676 
 216   0.0000       0.637660        17.3516 
 217   0.0000       0.653319        17.7777 
 218   0.0000       0.684474        18.6255 
 219   0.0000       0.688951        18.7473 
 220   0.0000       0.697587        18.9823 
 221   0.0000       0.711455        19.3597 
 222   0.0000       0.719900        19.5895 
 223   0.0000       0.739825        20.1317 
 224   0.0000       0.763262        20.7694 
 225   0.0000       0.771460        20.9925 
 226   0.0000       0.783239        21.3130 
 227   0.0000       0.804952        21.9039 
 228   0.0000       0.813165        22.1273 
 229   0.0000       0.822819        22.3900 
 230   0.0000       0.839692        22.8492 
 231   0.0000       0.862008        23.4564 
 232   0.0000       0.868615        23.6362 
 233   0.0000       0.881594        23.9894 
 234   0.0000       0.903781        24.5931 
 235   0.0000       0.907939        24.7063 
 236   0.0000       0.924774        25.1644 
 237   0.0000       0.937822        25.5194 
 238   0.0000       0.944788        25.7090 
 239   0.0000       0.956177        26.0189 
 240   0.0000       0.964436        26.2436 
 241   0.0000       0.975489        26.5444 
 242   0.0000       0.985723        26.8229 
 243   0.0000       1.017338        27.6832 
 244   0.0000       1.037123        28.2216 
 245   0.0000       1.069522        29.1032 
 246   0.0000       1.074704        29.2442 
 247   0.0000       1.122863        30.5547 
 248   0.0000       1.140245        31.0276 
 249   0.0000       1.256719        34.1971 
 250   0.0000       1.283018        34.9127 
 251   0.0000       1.287310        35.0295 
 252   0.0000       1.323177        36.0055 
 253   0.0000       1.330212        36.1969 
 254   0.0000       1.350495        36.7488 
 255   0.0000       1.363034        37.0900 
 256   0.0000       1.369250        37.2592 
 257   0.0000       1.371362        37.3167 
 258   0.0000       1.382371        37.6162 
 259   0.0000       1.394131        37.9362 
 260   0.0000       1.403346        38.1870 
 261   0.0000       1.412281        38.4301 
 262   0.0000       1.415137        38.5078 
 263   0.0000       1.424901        38.7735 
 264   0.0000       1.436849        39.0987 
 265   0.0000       1.444886        39.3173 
 266   0.0000       1.450069        39.4584 
 267   0.0000       1.452451        39.5232 
 268   0.0000       1.459454        39.7138 
 269   0.0000       1.465374        39.8748 
 270   0.0000       1.471568        40.0434 
 271   0.0000       1.474898        40.1340 
 272   0.0000       1.481603        40.3165 
 273   0.0000       1.488241        40.4971 
 274   0.0000       1.489869        40.5414 
 275   0.0000       1.496566        40.7236 
 276   0.0000       1.502851        40.8946 
 277   0.0000       1.504070        40.9278 
 278   0.0000       1.506806        41.0023 
 279   0.0000       1.512443        41.1557 
 280   0.0000       1.515090        41.2277 
 281   0.0000       1.520241        41.3679 
 282   0.0000       1.523429        41.4546 
 283   0.0000       1.531433        41.6724 
 284   0.0000       1.534114        41.7454 
 285   0.0000       1.537480        41.8370 
 286   0.0000       1.537886        41.8480 
 287   0.0000       1.540411        41.9167 
 288   0.0000       1.544188        42.0195 
 289   0.0000       1.546116        42.0720 
 290   0.0000       1.548885        42.1473 
 291   0.0000       1.551414        42.2161 
 292   0.0000       1.555370        42.3238 
 293   0.0000       1.556259        42.3480 
 294   0.0000       1.558914        42.4202 
 295   0.0000       1.560218        42.4557 
 296   0.0000       1.562677        42.5226 
 297   0.0000       1.563763        42.5522 
 298   0.0000       1.566831        42.6356 
 299   0.0000       1.567580        42.6560 
 300   0.0000       1.568392        42.6781 
 301   0.0000       1.570730        42.7417 
 302   0.0000       1.571288        42.7569 
 303   0.0000       1.576686        42.9038 
 304   0.0000       1.578173        42.9443 
 305   0.0000       1.581338        43.0304 
 306   0.0000       1.582763        43.0692 
 307   0.0000       1.583916        43.1005 
 308   0.0000       1.585100        43.1328 
 309   0.0000       1.586161        43.1616 
 310   0.0000       1.588104        43.2145 
 311   0.0000       1.591362        43.3032 
 312   0.0000       1.591725        43.3130 
 313   0.0000       1.594197        43.3803 
 314   0.0000       1.597987        43.4834 
 315   0.0000       1.600095        43.5408 
 316   0.0000       1.601846        43.5884 
 317   0.0000       1.602907        43.6173 
 318   0.0000       1.607350        43.7382 
 319   0.0000       1.610387        43.8208 
 320   0.0000       1.611815        43.8597 
 321   0.0000       1.612323        43.8736 
 322   0.0000       1.613429        43.9036 
 323   0.0000       1.618874        44.0518 
 324   0.0000       1.619867        44.0788 
 325   0.0000       1.623091        44.1666 
 326   0.0000       1.625174        44.2232 
 327   0.0000       1.628059        44.3017 
 328   0.0000       1.629279        44.3349 
 329   0.0000       1.632271        44.4163 
 330   0.0000       1.633862        44.4596 
 331   0.0000       1.635936        44.5161 
 332   0.0000       1.638217        44.5782 
 333   0.0000       1.641442        44.6659 
 334   0.0000       1.646934        44.8153 
 335   0.0000       1.649553        44.8866 
 336   0.0000       1.651043        44.9272 
 337   0.0000       1.652558        44.9684 
 338   0.0000       1.661418        45.2095 
 339   0.0000       1.663337        45.2617 
 340   0.0000       1.665036        45.3079 
 341   0.0000       1.672712        45.5168 
 342   0.0000       1.677871        45.6572 
 343   0.0000       1.679688        45.7066 
 344   0.0000       1.684494        45.8374 
 345   0.0000       1.691216        46.0203 
 346   0.0000       1.697385        46.1882 
 347   0.0000       1.706689        46.4414 
 348   0.0000       1.712607        46.6024 
 349   0.0000       1.714833        46.6630 
 350   0.0000       1.718229        46.7554 
 351   0.0000       1.740860        47.3712 
 352   0.0000       1.749270        47.6001 
 353   0.0000       1.760260        47.8991 
 354   0.0000       1.781346        48.4729 
 355   0.0000       1.786099        48.6022 
 356   0.0000       1.803910        49.0869 
 357   0.0000       1.821798        49.5736 
 358   0.0000       1.840897        50.0934 
 359   0.0000       1.862687        50.6863 
 360   0.0000       1.891373        51.4669 
 361   0.0000       1.922420        52.3117 
 362   0.0000       1.924326        52.3636 
 363   0.0000       1.953229        53.1501 
 364   0.0000       1.967579        53.5405 
 365   0.0000       1.990315        54.1592 
 366   0.0000       2.022985        55.0482 
 367   0.0000       2.028289        55.1926 
 368   0.0000       2.054343        55.9015 
 369   0.0000       2.071993        56.3818 
 370   0.0000       2.190291        59.6009 
 371   0.0000       2.196505        59.7699 
 372   0.0000       2.271441        61.8090 
 373   0.0000       2.287030        62.2332 
 374   0.0000       2.376554        64.6693 
 375   0.0000       2.397217        65.2316 
 376   0.0000       2.455061        66.8056 
 377   0.0000       2.466434        67.1151 
 378   0.0000       2.562845        69.7386 
 379   0.0000       2.574945        70.0678 
 380   0.0000       2.591949        70.5305 
 381   0.0000       2.627494        71.4977 
 382   0.0000       2.982050        81.1457 
 383   0.0000       3.424908        93.1965 
 384   0.0000       3.479384        94.6789 
 385   0.0000       3.496860        95.1544 
 386   0.0000       3.508158        95.4618 
 387   0.0000       3.511966        95.5655 
 388   0.0000       3.516438        95.6872 
 389   0.0000       3.527892        95.9988 
 390   0.0000       3.529294        96.0370 
 391   0.0000       3.561725        96.9195 
 392   0.0000       3.587586        97.6232 
 393   0.0000       3.663499        99.6889 
 394   0.0000       3.732716       101.5724 
 395   0.0000      23.761092       646.5722 
 396   0.0000      23.902096       650.4091 
 397   0.0000      23.987171       652.7241 
 398   0.0000      24.236932       659.5205 
 399   0.0000      24.318430       661.7381 
 400   0.0000      24.526114       667.3895 
 401   0.0000      24.557083       668.2322 
 402   0.0000      24.668682       671.2690 
 403   0.0000      24.860019       676.4755 
 404   0.0000      25.205335       685.8720 
 405   0.0000      25.387916       690.8403 
 406   0.0000      25.731169       700.1807 
 407   0.0000      25.881320       704.2665 
 408   0.0000      26.057040       709.0481 
 409   0.0000      26.106320       710.3891 
 410   0.0000      26.364969       717.4273 
 411   0.0000      26.460288       720.0210 
 412   0.0000      26.652361       725.2476 
 413   0.0000      26.729998       727.3602 
 414   0.0000      26.964006       733.7279 
 415   0.0000      27.135081       738.3831 
 416   0.0000      27.317317       743.3420 
 417   0.0000      27.417319       746.0632 
 418   0.0000      27.729603       754.5609 
 419   0.0000      27.907661       759.4061 
 420   0.0000      28.072302       763.8862 
 421   0.0000      28.461351       774.4727 
 422   0.0000      28.632886       779.1404 
 423   0.0000      28.666700       780.0606 
 424   0.0000      28.784718       783.2720 
 425   0.0000      44.351678      1206.8705 
 426   0.0000      44.406109      1208.3516 
 427   0.0000      44.443339      1209.3647 
 428   0.0000      44.485668      1210.5166 
 429   0.0000      44.545775      1212.1521 
 430   0.0000      44.556636      1212.4477 
 431   0.0000      44.615386      1214.0464 
 432   0.0000      44.633253      1214.5326 
 433   0.0000      44.651963      1215.0417 
 434   0.0000      44.674469      1215.6541 
 435   0.0000     205.239852      5584.8603 
 436   0.0000     205.261271      5585.4431 
 437   0.0000     205.273624      5585.7793 
 438   0.0000     205.295421      5586.3724 
 439   0.0000     205.316645      5586.9499 
 440   0.0000     205.322593      5587.1118 
 441   0.0000     205.341880      5587.6366 
 442   0.0000     205.352151      5587.9161 
 443   0.0000     205.363680      5588.2298 
 444   0.0000     205.366857      5588.3163 

                    ********************************
                    * MULLIKEN POPULATION ANALYSIS *
                    ********************************

--------------------------------------------
MULLIKEN ATOMIC CHARGES AND SPIN POPULATIONS
--------------------------------------------
   0 Au:   -0.105190    0.017775
   1 Au:    0.095937    0.058937
   2 Au:    0.021366    0.032095
   3 Au:    0.278282    0.064521
   4 Au:    0.089563    0.031739
   5 Au:    0.310292    0.058328
   6 Au:   -0.196336    0.008179
   7 Au:    0.084098    0.053858
   8 Au:    0.111796    0.061468
   9 Au:    0.224726    0.055715
  10 Mn:   -0.914534    4.557385
Sum of atomic charges         :    0.0000000
Sum of atomic spin populations:    5.0000000

-----------------------------------------------------
MULLIKEN REDUCED ORBITAL CHARGES AND SPIN POPULATIONS
-----------------------------------------------------
CHARGE
  0 Aus       :     3.099258  s :     3.099258
      pz      :     2.038882  p :     6.294880
      px      :     2.198513
      py      :     2.057485
      dz2     :     1.924004  d :     9.706194
      dxz     :     1.904307
      dyz     :     1.971709
      dx2y2   :     1.958730
      dxy     :     1.947443
      f0      :     0.000718  f :     0.004857
      f+1     :     0.000838
      f-1     :     0.000301
      f+2     :     0.000526
      f-2     :     0.000608
      f+3     :     0.000793
      f-3     :     0.001073
  1 Aus       :     3.068766  s :     3.068766
      pz      :     1.983249  p :     6.127615
      px      :     2.088469
      py      :     2.055898
      dz2     :     1.896902  d :     9.703184
      dxz     :     1.958188
      dyz     :     1.944518
      dx2y2   :     1.960996
      dxy     :     1.942580
      f0      :     0.000567  f :     0.004499
      f+1     :     0.000671
      f-1     :     0.000511
      f+2     :     0.000403
      f-2     :     0.000584
      f+3     :     0.000736
      f-3     :     0.001026
  2 Aus       :     3.029902  s :     3.029902
[...]
      f0      :     0.000037  f :     0.000218
      f+1     :     0.000042
      f-1     :     0.000011
      f+2     :     0.000043
      f-2     :     0.000067
      f+3     :     0.000013
      f-3     :     0.000004
  8 Aus       :    -0.061959  s :    -0.061959
      pz      :    -0.002999  p :     0.003900
      px      :     0.005097
      py      :     0.001803
      dz2     :     0.006469  d :     0.009030
      dxz     :    -0.003607
      dyz     :     0.006976
      dx2y2   :    -0.010529
      dxy     :     0.009721
      f0      :     0.000018  f :     0.000236
      f+1     :     0.000006
      f-1     :     0.000077
      f+2     :     0.000033
      f-2     :     0.000082
      f+3     :    -0.000003
      f-3     :     0.000022
  9 Aus       :    -0.378733  s :    -0.378733
      pz      :     0.005975  p :    -0.014799
      px      :    -0.019948
      py      :    -0.000827
      dz2     :    -0.010081  d :    -0.051577
      dxz     :    -0.025508
      dyz     :    -0.005808
      dx2y2   :    -0.005087
      dxy     :    -0.005093
      f0      :    -0.000006  f :    -0.000025
      f+1     :     0.000004
      f-1     :    -0.000008
      f+2     :     0.000011
      f-2     :    -0.000014
      f+3     :    -0.000012
      f-3     :     0.000000
 10 Mns       :     0.060703  s :     0.060703
      pz      :     0.021982  p :     0.056561
      px      :     0.018238
      py      :     0.016340
      dz2     :     0.834529  d :     4.277226
      dxz     :     0.808515
      dyz     :     0.885887
      dx2y2   :     0.822241
      dxy     :     0.926055
      f0      :     0.000007  f :     0.000050
      f+1     :     0.000011
      f-1     :     0.000008
      f+2     :     0.000008
      f-2     :     0.000005
      f+3     :     0.000006
      f-3     :     0.000006


                     *******************************
                     * LOEWDIN POPULATION ANALYSIS *
                     *******************************

-------------------------------------------
LOEWDIN ATOMIC CHARGES AND SPIN POPULATIONS
-------------------------------------------
   0 Au:   -0.008887   -0.005268
   1 Au:    0.025994   -0.080332
   2 Au:   -0.009905   -0.170973
   3 Au:    0.075168   -0.117532
   4 Au:   -0.030112   -0.084932
   5 Au:    0.062180   -0.122390
   6 Au:   -0.080938   -0.068787
   7 Au:    0.041462   -0.125901
   8 Au:    0.079891   -0.134086
   9 Au:    0.048010   -0.363350
  10 Mn:   -0.202862    4.273551

----------------------------------------------------
LOEWDIN REDUCED ORBITAL CHARGES AND SPIN POPULATIONS
----------------------------------------------------
CHARGE
  0 Aus       :     2.692008  s :     2.692008
      pz      :     2.121502  p :     6.483118
      px      :     2.284556
      py      :     2.077060
      dz2     :     1.965733  d :     9.827598
      dxz     :     1.933920
      dyz     :     1.975618
      dx2y2   :     1.978305
      dxy     :     1.974021
      f0      :     0.000940  f :     0.006163
      f+1     :     0.001047
      f-1     :     0.000348
      f+2     :     0.000692
      f-2     :     0.000779
      f+3     :     0.000889
      f-3     :     0.001468
  1 Aus       :     2.651567  s :     2.651567
      pz      :     2.090394  p :     6.481881
      px      :     2.242766
      py      :     2.148720
      dz2     :     1.930189  d :     9.834790
      dxz     :     1.983463
      dyz     :     1.976256
      dx2y2   :     1.973131
      dxy     :     1.971750
      f0      :     0.000718  f :     0.005767
      f+1     :     0.000913
      f-1     :     0.000694
      f+2     :     0.000492
      f-2     :     0.000676
      f+3     :     0.000832
      f-3     :     0.001442
  2 Aus       :     2.611335  s :     2.611335
      pz      :     2.176190  p :     6.498686
      px      :     2.197560
      py      :     2.124936
      dz2     :     1.975403  d :     9.894001
      dxz     :     1.983252
      dyz     :     1.985455
      dx2y2   :     1.964336
      dxy     :     1.985554
      f0      :     0.000564  f :     0.005884
      f+1     :     0.001140
      f-1     :     0.000753
      f+2     :     0.001051
      f-2     :     0.000938
      f+3     :     0.000762
      f-3     :     0.000674
  3 Aus       :     2.792284  s :     2.792284
      pz      :     2.076361  p :     6.253009
      px      :     2.090478
      py      :     2.086170
      dz2     :     1.983180  d :     9.875378
      dxz     :     1.967018
      dyz     :     1.968813
      dx2y2   :     1.984790
      dxy     :     1.971577
      f0      :     0.000425  f :     0.004162
      f+1     :     0.000630
      f-1     :     0.000693
      f+2     :     0.000762
      f-2     :     0.000593
      f+3     :     0.000477
      f-3     :     0.000583
  4 Aus       :     2.669895  s :     2.669895
      pz      :     2.196300  p :     6.495700
      px      :     2.107092
      py      :     2.192308
      dz2     :     1.958796  d :     9.858546
      dxz     :     1.982658
      dyz     :     1.981064
      dx2y2   :     1.963524
      dxy     :     1.972505
      f0      :     0.000599  f :     0.005972
      f+1     :     0.000830
      f-1     :     0.001316
      f+2     :     0.000976
      f-2     :     0.000913
      f+3     :     0.000704
      f-3     :     0.000634
  5 Aus       :     2.884012  s :     2.884012
      pz      :     2.068205  p :     6.178898
      px      :     2.082540
      py      :     2.028152
      dz2     :     1.975871  d :     9.870998
      dxz     :     1.946452
      dyz     :     1.982900
      dx2y2   :     1.982763
      dxy     :     1.983012
      f0      :     0.000440  f :     0.003913
      f+1     :     0.000853
      f-1     :     0.000288
      f+2     :     0.000635
      f-2     :     0.000685
      f+3     :     0.000455
      f-3     :     0.000558
  6 Aus       :     2.649279  s :     2.649279
      pz      :     2.280911  p :     6.566539
      px      :     2.181111
      py      :     2.104517
      dz2     :     1.964790  d :     9.858158
      dxz     :     1.972688
      dyz     :     1.977324
      dx2y2   :     1.970451
      dxy     :     1.972904
      f0      :     0.001139  f :     0.006963
      f+1     :     0.002055
      f-1     :     0.000657
      f+2     :     0.001130
      f-2     :     0.000958
      f+3     :     0.000564
      f-3     :     0.000459
  7 Aus       :     2.778264  s :     2.778264
      pz      :     2.140013  p :     6.363501
      px      :     2.162846
      py      :     2.060642
      dz2     :     1.972111  d :     9.812307
      dxz     :     1.921254
      dyz     :     1.963834
      dx2y2   :     1.979090
      dxy     :     1.976020
      f0      :     0.000547  f :     0.004466
      f+1     :     0.000828
      f-1     :     0.000662
      f+2     :     0.000809
      f-2     :     0.000809
      f+3     :     0.000475
      f-3     :     0.000337
  8 Aus       :     2.650485  s :     2.650485
      pz      :     2.108182  p :     6.406563
      px      :     2.118117
      py      :     2.180264
      dz2     :     1.978100  d :     9.857908
      dxz     :     1.969478
      dyz     :     1.957992
      dx2y2   :     1.977402
      dxy     :     1.974935
      f0      :     0.000618  f :     0.005153
      f+1     :     0.000744
      f-1     :     0.000647
      f+2     :     0.001040
      f-2     :     0.000924
      f+3     :     0.000614
      f-3     :     0.000567
  9 Aus       :     2.682116  s :     2.682116
      pz      :     2.109763  p :     6.380308
      px      :     2.180943
      py      :     2.089602
      dz2     :     1.969642  d :     9.884983
      dxz     :     1.973162
      dyz     :     1.987058
      dx2y2   :     1.973467
      dxy     :     1.981655
      f0      :     0.000733  f :     0.004583
      f+1     :     0.000974
      f-1     :     0.000427
      f+2     :     0.001051
      f-2     :     0.000480
      f+3     :     0.000508
      f-3     :     0.000409
 10 Mns       :     6.336260  s :     6.336260
      pz      :     4.224494  p :    12.607267
      px      :     4.222271
      py      :     4.160501
      dz2     :     1.282992  d :     6.258351
      dxz     :     1.336088
      dyz     :     1.187046
      dx2y2   :     1.296990
      dxy     :     1.155235
      f0      :     0.000137  f :     0.000984
      f+1     :     0.000203
      f-1     :     0.000142
      f+2     :     0.000146
      f-2     :     0.000130
      f+3     :     0.000123
      f-3     :     0.000104

SPIN
  0 Aus       :    -0.016145  s :    -0.016145
      pz      :    -0.008541  p :    -0.030244
      px      :    -0.024164
      py      :     0.002461
      dz2     :     0.005498  d :     0.040666
      dxz     :     0.016854
      dyz     :     0.007566
      dx2y2   :     0.006541
      dxy     :     0.004208
      f0      :     0.000034  f :     0.000455
      f+1     :     0.000154
      f-1     :     0.000039
      f+2     :     0.000117
      f-2     :     0.000108
      f+3     :     0.000003
      f-3     :    -0.000001
  1 Aus       :    -0.072726  s :    -0.072726
      pz      :    -0.009982  p :    -0.022169
      px      :    -0.007433
      py      :    -0.004755
      dz2     :     0.007898  d :     0.014076
      dxz     :     0.007272
      dyz     :     0.003687
      dx2y2   :    -0.001149
      dxy     :    -0.003632
      f0      :     0.000172  f :     0.000487
      f+1     :     0.000129
      f-1     :     0.000133
      f+2     :     0.000031
      f-2     :     0.000010
      f+3     :    -0.000005
      f-3     :     0.000016
  2 Aus       :    -0.131252  s :    -0.131252
      pz      :    -0.040202  p :    -0.065532
      px      :    -0.010768
      py      :    -0.014562
      dz2     :    -0.000058  d :     0.025678
      dxz     :     0.004837
      dyz     :    -0.000066
      dx2y2   :     0.015501
      dxy     :     0.005464
      f0      :    -0.000003  f :     0.000132
      f+1     :    -0.000031
      f-1     :     0.000063
      f+2     :    -0.000028
      f-2     :     0.000001
      f+3     :     0.000039
      f-3     :     0.000091
  3 Aus       :    -0.047783  s :    -0.047783
      pz      :    -0.015042  p :    -0.043308
      px      :    -0.003522
      py      :    -0.024744
      dz2     :    -0.001294  d :    -0.026325
      dxz     :    -0.004171
      dyz     :    -0.015454
      dx2y2   :    -0.003573
      dxy     :    -0.001833
      f0      :    -0.000004  f :    -0.000117
      f+1     :    -0.000014
      f-1     :    -0.000040
      f+2     :    -0.000064
      f-2     :     0.000008
      f+3     :     0.000001
      f-3     :    -0.000004
  4 Aus       :    -0.071637  s :    -0.071637
      pz      :    -0.022691  p :    -0.018777
      px      :     0.003126
      py      :     0.000788
      dz2     :    -0.004554  d :     0.005317
      dxz     :     0.005510
      dyz     :    -0.005060
      dx2y2   :     0.012208
      dxy     :    -0.002785
      f0      :     0.000019  f :     0.000165
      f+1     :     0.000062
      f-1     :    -0.000044
      f+2     :     0.000001
      f-2     :     0.000006
      f+3     :     0.000090
      f-3     :     0.000031
  5 Aus       :    -0.081708  s :    -0.081708
      pz      :    -0.012129  p :    -0.019821
      px      :    -0.004963
      py      :    -0.002728
      dz2     :    -0.003347  d :    -0.020785
      dxz     :    -0.011535
      dyz     :    -0.005058
      dx2y2   :     0.001111
      dxy     :    -0.001956
      f0      :    -0.000002  f :    -0.000077
      f+1     :    -0.000011
      f-1     :    -0.000009
      f+2     :    -0.000002
      f-2     :    -0.000051
      f+3     :    -0.000001
      f-3     :    -0.000001
  6 Aus       :    -0.039579  s :    -0.039579
      pz      :    -0.028944  p :    -0.029018
      px      :     0.006798
      py      :    -0.006872
      dz2     :    -0.004891  d :    -0.000400
      dxz     :    -0.005840
      dyz     :     0.000087
      dx2y2   :     0.010562
      dxy     :    -0.000317
      f0      :     0.000023  f :     0.000210
      f+1     :     0.000017
      f-1     :    -0.000013
      f+2     :     0.000038
      f-2     :     0.000023
      f+3     :     0.000072
      f-3     :     0.000050
  7 Aus       :    -0.051509  s :    -0.051509
      pz      :    -0.057941  p :    -0.096079
      px      :    -0.027215
      py      :    -0.010923
      dz2     :     0.009562  d :     0.021362
      dxz     :     0.018439
      dyz     :    -0.005231
      dx2y2   :    -0.009624
      dxy     :     0.008217
      f0      :     0.000052  f :     0.000325
      f+1     :     0.000072
      f-1     :     0.000014
      f+2     :     0.000067
      f-2     :     0.000094
      f+3     :     0.000014
      f-3     :     0.000011
  8 Aus       :    -0.045264  s :    -0.045264
      pz      :    -0.012778  p :    -0.090128
      px      :    -0.031529
      py      :    -0.045821
      dz2     :     0.008124  d :     0.000912
      dxz     :    -0.003463
      dyz     :    -0.000385
      dx2y2   :    -0.013064
      dxy     :     0.009700
      f0      :     0.000028  f :     0.000394
      f+1     :     0.000017
      f-1     :     0.000136
      f+2     :     0.000043
      f-2     :     0.000149
      f+3     :    -0.000005
      f-3     :     0.000027
  9 Aus       :    -0.198585  s :    -0.198585
      pz      :    -0.031465  p :    -0.109586
      px      :    -0.058971
      py      :    -0.019150
      dz2     :    -0.010935  d :    -0.055079
      dxz     :    -0.026788
      dyz     :    -0.007008
      dx2y2   :    -0.005163
      dxy     :    -0.005185
      f0      :    -0.000023  f :    -0.000101
      f+1     :    -0.000026
      f-1     :    -0.000009
      f+2     :     0.000011
      f-2     :    -0.000025
      f+3     :    -0.000028
      f-3     :    -0.000001
 10 Mns       :     0.032761  s :     0.032761
      pz      :     0.011363  p :     0.033085
      px      :     0.010180
      py      :     0.011543
      dz2     :     0.815990  d :     4.207691
      dxz     :     0.793826
      dyz     :     0.869902
      dx2y2   :     0.810253
      dxy     :     0.917720
      f0      :     0.000001  f :     0.000014
      f+1     :     0.000003
      f-1     :     0.000002
      f+2     :     0.000004
      f-2     :    -0.000002
      f+3     :     0.000003
      f-3     :     0.000003


                      *****************************
                      * MAYER POPULATION ANALYSIS *
                      *****************************

  NA   - Mulliken gross atomic population
  ZA   - Total nuclear charge
  QA   - Mulliken gross atomic charge
  VA   - Mayer's total valence
  BVA  - Mayer's bonded valence
  FA   - Mayer's free valence

  ATOM       NA         ZA         QA         VA         BVA        FA
  0 Au    19.1051    19.0000    -0.1051     1.9790     1.9763     0.0027
  1 Au    18.8454    19.0000     0.1546     1.7839     1.7587     0.0252
  2 Au    18.9703    19.0000     0.0297     1.7556     1.6628     0.0928
  3 Au    18.6983    19.0000     0.3017     1.3668     1.3556     0.0112
  4 Au    18.9821    19.0000     0.0179     1.7206     1.6883     0.0323
  5 Au    18.6959    19.0000     0.3041     1.3477     1.3243     0.0234
  6 Au    19.2765    19.0000    -0.2765     1.9741     1.9430     0.0311
  7 Au    18.9270    19.0000     0.0730     1.5996     1.5830     0.0166
  8 Au    18.8537    19.0000     0.1463     1.6081     1.5897     0.0183
  9 Au    18.6923    19.0000     0.3077     1.4455     1.2876     0.1579
 10 Mn    25.9534    25.0000    -0.9534     8.0264     4.0740     3.9524

  Mayer bond orders larger than 0.100000
B(  0-Au,  1-Au) :   0.5468 B(  0-Au,  5-Au) :   0.4319 B(  0-Au,  6-Au) :   0.2096 
B(  0-Au, 10-Mn) :   0.6071 B(  1-Au,  2-Au) :   0.1265 B(  1-Au,  3-Au) :   0.2951 
B(  1-Au, 10-Mn) :   0.5362 B(  2-Au,  3-Au) :   0.3766 B(  2-Au,  4-Au) :   0.1329 
B(  2-Au,  8-Au) :   0.4222 B(  2-Au, 10-Mn) :   0.4125 B(  3-Au,  4-Au) :   0.3372 
B(  4-Au,  7-Au) :   0.3922 B(  4-Au, 10-Mn) :   0.5792 B(  5-Au,  6-Au) :   0.5593 
B(  6-Au,  8-Au) :   0.2064 B(  6-Au,  9-Au) :   0.3352 B(  6-Au, 10-Mn) :   0.4729 
B(  7-Au,  9-Au) :   0.3106 B(  7-Au, 10-Mn) :   0.6633 B(  8-Au,  9-Au) :   0.2104 
B(  8-Au, 10-Mn) :   0.5372 B(  9-Au, 10-Mn) :   0.1666 

-------
TIMINGS
-------

Total SCF time: 0 days 0 hours 1 min 56 sec 

Total time                  ....     116.003 sec
Sum of individual times     ....     114.016 sec  ( 98.3%)

Fock matrix formation       ....     106.924 sec  ( 92.2%)
  Split-RI-J                ....      18.840 sec  ( 17.6% of F)
  XC integration            ....      87.563 sec  ( 81.9% of F)
    Basis function eval.    ....       4.770 sec  (  5.4% of XC)
    Density eval.           ....      35.754 sec  ( 40.8% of XC)
    XC-Functional eval.     ....       3.203 sec  (  3.7% of XC)
    XC-Potential eval.      ....      26.350 sec  ( 30.1% of XC)
Diagonalization             ....       4.292 sec  (  3.7%)
Density matrix formation    ....       0.182 sec  (  0.2%)
Population analysis         ....       0.242 sec  (  0.2%)
Initial guess               ....       0.260 sec  (  0.2%)
Orbital Transformation      ....       0.000 sec  (  0.0%)
Orbital Orthonormalization  ....       0.231 sec  (  0.2%)
DIIS solution               ....       0.000 sec  (  0.0%)
Grid generation             ....       2.115 sec  (  1.8%)

Maximum memory used throughout the entire SCF-calculation: 63.6 MB

-------------------------   --------------------
FINAL SINGLE POINT ENERGY     -2509.413008699866
-------------------------   --------------------


                            ***************************************
                            *     ORCA property calculations      *
                            ***************************************

                                    ---------------------
                                    Active property flags
                                    ---------------------
   (+) Dipole Moment


------------------------------------------------------------------------------
                       ORCA ELECTRIC PROPERTIES CALCULATION
------------------------------------------------------------------------------

Dipole Moment Calculation                       ... on
Quadrupole Moment Calculation                   ... off
Polarizability Calculation                      ... off
GBWName                                         ... scan_job2.gbw
Electron density                                ... scan_job2.scfp
The origin for moment calculation is the CENTER OF MASS  = (13.203858, 14.053062 15.478296)

-------------
DIPOLE MOMENT
-------------
                                X             Y             Z
Electronic contribution:      7.88438     -14.60806      -0.02294
Nuclear contribution   :     -7.88899      14.32848       0.06446
                        -----------------------------------------
Total Dipole Moment    :     -0.00461      -0.27958       0.04152
                        -----------------------------------------
Magnitude (a.u.)       :      0.28268
Magnitude (Debye)      :      0.71853



--------------------
Rotational spectrum 
--------------------
 
Rotational constants in cm-1:     0.002085     0.001335     0.000996 
Rotational constants in MHz :    62.511506    40.013717    29.864702 

 Dipole components along the rotational axes: 
x,y,z [a.u.] :     0.117516     0.026663     0.255714 
x,y,z [Debye]:     0.298703     0.067773     0.649972 

 

Timings for individual modules:

Sum of individual times         ...      125.924 sec (=   2.099 min)
GTO integral calculation        ...        9.648 sec (=   0.161 min)   7.7 %
SCF iterations                  ...      116.276 sec (=   1.938 min)  92.3 %



                             ****ORCA TERMINATED NORMALLY****
TOTAL RUN TIME: 0 days 0 hours 4 minutes 8 seconds 679 msec
