
                                 *****************
                                 * O   R   C   A *
                                 *****************

                                            #,                                       
                                            ###                                      
                                            ####                                     
                                            #####                                    
                                            ######                                   
                                           ########,                                 
                                     ,,################,,,,,                         
                               ,,#################################,,                 
                          ,,##########################################,,             
                       ,#########################################, ''#####,          
                    ,#############################################,,   '####,        
                  ,##################################################,,,,####,       
                ,###########''''           ''''###############################       
              ,#####''   ,,,,##########,,,,          '''####'''          '####       
            ,##' ,,,,###########################,,,                        '##       
           ' ,,###''''                  '''############,,,                           
         ,,##''                                '''############,,,,        ,,,,,,###''
      ,#''                                            '''#######################'''  
     '                                                          ''''####''''         
             ,#######,   #######,   ,#######,      ##                                
            ,#'     '#,  ##    ##  ,#'     '#,    #''#        ######   ,####,        
            ##       ##  ##   ,#'  ##            #'  '#       #        #'  '#        
            ##       ##  #######   ##           ,######,      #####,   #    #        
            '#,     ,#'  ##    ##  '#,     ,#' ,#      #,         ##   #,  ,#        
             '#######'   ##     ##  '#######'  #'      '#     #####' # '####'        



                  #######################################################
                  #                        -***-                        #
                  #          Department of theory and spectroscopy      #
                  #    Directorship and core code : Frank Neese         #
                  #        Max Planck Institute fuer Kohlenforschung    #
                  #                Kaiser Wilhelm Platz 1               #
                  #                 D-45470 Muelheim/Ruhr               #
                  #                      Germany                        #
                  #                                                     #
                  #                  All rights reserved                #
                  #                        -***-                        #
                  #######################################################


                         Program Version 5.0.3 -  RELEASE  -


 With contributions from (in alphabetic order):
   Daniel Aravena         : Magnetic Suceptibility
   Michael Atanasov       : Ab Initio Ligand Field Theory (pilot matlab implementation)
   Alexander A. Auer      : GIAO ZORA, VPT2 properties, NMR spectrum
   Ute Becker             : Parallelization
   Giovanni Bistoni       : ED, misc. LED, open-shell LED, HFLD
   Martin Brehm           : Molecular dynamics
   Dmytro Bykov           : SCF Hessian
   Vijay G. Chilkuri      : MRCI spin determinant printing, contributions to CSF-ICE
   Dipayan Datta          : RHF DLPNO-CCSD density
   Achintya Kumar Dutta   : EOM-CC, STEOM-CC
   Dmitry Ganyushin       : Spin-Orbit,Spin-Spin,Magnetic field MRCI
   Miquel Garcia          : C-PCM and meta-GGA Hessian, CC/C-PCM, Gaussian charge scheme
   Yang Guo               : DLPNO-NEVPT2, F12-NEVPT2, CIM, IAO-localization
   Andreas Hansen         : Spin unrestricted coupled pair/coupled cluster methods
   Benjamin Helmich-Paris : MC-RPA, TRAH-SCF, COSX integrals
   Lee Huntington         : MR-EOM, pCC
   Robert Izsak           : Overlap fitted RIJCOSX, COSX-SCS-MP3, EOM
   Marcus Kettner         : VPT2
   Christian Kollmar      : KDIIS, OOCD, Brueckner-CCSD(T), CCSD density, CASPT2, CASPT2-K
   Simone Kossmann        : Meta GGA functionals, TD-DFT gradient, OOMP2, MP2 Hessian
   Martin Krupicka        : Initial AUTO-CI
   Lucas Lang             : DCDCAS
   Marvin Lechner         : AUTO-CI (C++ implementation), FIC-MRCC
   Dagmar Lenk            : GEPOL surface, SMD
   Dimitrios Liakos       : Extrapolation schemes; Compound Job, initial MDCI parallelization
   Dimitrios Manganas     : Further ROCIS development; embedding schemes
   Dimitrios Pantazis     : SARC Basis sets
   Anastasios Papadopoulos: AUTO-CI, single reference methods and gradients
   Taras Petrenko         : DFT Hessian,TD-DFT gradient, ASA, ECA, R-Raman, ABS, FL, XAS/XES, NRVS
   Peter Pinski           : DLPNO-MP2, DLPNO-MP2 Gradient
   Christoph Reimann      : Effective Core Potentials
   Marius Retegan         : Local ZFS, SOC
   Christoph Riplinger    : Optimizer, TS searches, QM/MM, DLPNO-CCSD(T), (RO)-DLPNO pert. Triples
   Tobias Risthaus        : Range-separated hybrids, TD-DFT gradient, RPA, STAB
   Michael Roemelt        : Original ROCIS implementation
   Masaaki Saitow         : Open-shell DLPNO-CCSD energy and density
   Barbara Sandhoefer     : DKH picture change effects
   Avijit Sen             : IP-ROCIS
   Kantharuban Sivalingam : CASSCF convergence, NEVPT2, FIC-MRCI
   Bernardo de Souza      : ESD, SOC TD-DFT
   Georgi Stoychev        : AutoAux, RI-MP2 NMR, DLPNO-MP2 response
   Willem Van den Heuvel  : Paramagnetic NMR
   Boris Wezisla          : Elementary symmetry handling
   Frank Wennmohs         : Technical directorship


 We gratefully acknowledge several colleagues who have allowed us to
 interface, adapt or use parts of their codes:
   Stefan Grimme, W. Hujo, H. Kruse, P. Pracht,  : VdW corrections, initial TS optimization,
                  C. Bannwarth, S. Ehlert          DFT functionals, gCP, sTDA/sTD-DF
   Ed Valeev, F. Pavosevic, A. Kumar             : LibInt (2-el integral package), F12 methods
   Garnet Chan, S. Sharma, J. Yang, R. Olivares  : DMRG
   Ulf Ekstrom                                   : XCFun DFT Library
   Mihaly Kallay                                 : mrcc  (arbitrary order and MRCC methods)
   Jiri Pittner, Ondrej Demel                    : Mk-CCSD
   Frank Weinhold                                : gennbo (NPA and NBO analysis)
   Christopher J. Cramer and Donald G. Truhlar   : smd solvation model
   Lars Goerigk                                  : TD-DFT with DH, B97 family of functionals
   V. Asgeirsson, H. Jonsson                     : NEB implementation
   FAccTs GmbH                                   : IRC, NEB, NEB-TS, DLPNO-Multilevel, CI-OPT
                                                   MM, QMMM, 2- and 3-layer-ONIOM, Crystal-QMMM,
                                                   LR-CPCM, SF, NACMEs, symmetry and pop. for TD-DFT,
                                                   nearIR, NL-DFT gradient (VV10), updates on ESD,
                                                   ML-optimized integration grids
   S Lehtola, MJT Oliveira, MAL Marques          : LibXC Library
   Liviu Ungur et al                             : ANISO software


 Your calculation uses the libint2 library for the computation of 2-el integrals
 For citations please refer to: http://libint.valeyev.net

 Your ORCA version has been built with support for libXC version: 5.1.0
 For citations please refer to: https://tddft.org/programs/libxc/

 This ORCA versions uses:
   CBLAS   interface :  Fast vector & matrix operations
   LAPACKE interface :  Fast linear algebra routines
   SCALAPACK package :  Parallel linear algebra routines
   Shared memory     :  Shared parallel matrices
   BLAS/LAPACK       :  OpenBLAS 0.3.15  USE64BITINT DYNAMIC_ARCH NO_AFFINITY Sandybridge SINGLE_THREADED
        Core in use  :  Sandybridge
   Copyright (c) 2011-2014, The OpenBLAS Project




***************************************
The coordinates will be read from file: pbe.xyz
***************************************


================================================================================

cite the ECPs for Au [Def2-ECP] as follows:
Ce-Yb(ecp-28): M. Dolg, H. Stoll, H.Preuss, J. Chem. Phys., 1989, 90, 1730-1734.
Y-Cd(ecp-28), Hf-Hg(ecp-46): D. Andrae,U. Haeussermann, M. Dolg, H. Stoll, H. Preuss, Theor. Chim. Acta, 1990, 77, 123-141.
In-Sb(ecp-28), Tl-Bi(ecp-46): B. Metz, H. Stoll, M. Dolg, J. Chem. Phys., 2000, 113, 2563-2569.
Te-Xe(ecp-28), Po-Rn(ecp-46): K. A. Peterson, D. Figgen, E. Goll, H. Stoll, M. Dolg, J. Chem. Phys., 2003, 119, 11113-11123.
Rb(ecp-28), Cs(ecp-46): T. Leininger, A. Nicklass, W. Kuechle, H. Stoll, M. Dolg, A. Bergner, Chem. Phys. Lett., 1996, 255, 274-280.
Sr(ecp-28), Ba(ecp-46): M. Kaupp, P. V. Schleyer, H. Stoll and H. Preuss, J. Chem. Phys., 1991, 94, 1360-1366.
La(ecp-46): M. Dolg, H. Stoll, A. Savin, H. Preuss, Theor. Chim. Acta, 1989, 75, 173-194.
Lu(ecp-28): X. Cao, M. Dolg, J. Chem. Phys., 2001, 115, 7348-7355.

ECP parameters for Au [Def2-ECP] have been obtained from:
TURBOMOLE (7.0.2)

----- Orbital basis set information -----
Your calculation utilizes the basis: def2-TZVP
   F. Weigend and R. Ahlrichs, Phys. Chem. Chem. Phys. 7, 3297 (2005).

----- AuxJ basis set information -----
Your calculation utilizes the auxiliary basis: def2/J
   F. Weigend, Phys. Chem. Chem. Phys. 8, 1057 (2006).

----- AuxC basis set information -----
Your calculation utilizes the auxiliary basis: def2-TZVP/C
  H-La, Hf-Rn : A. Hellweg, C. Hattig, S. Hofener and W. Klopper, Theor. Chem. Acc. 117, 587 (2007).
        Ce-Lu : J. Chmela and M. E. Harding, Mol. Phys. (2018).

================================================================================
                                        WARNINGS
                       Please study these warnings very carefully!
================================================================================


INFO   : the flag for use of the SHARK integral package has been found!

================================================================================
                                       INPUT FILE
================================================================================
NAME = casscf.inp
|  1> !CASSCF def2-TZVP def2-TZVP/C
|  2> !MOREAD RIJCOSX
|  3> %maxcore 6000
|  4> %moinp "pbe.qro"
|  5> %pal nprocs 16 end 
|  6> 
|  7> %casscf
|  8>  mult 6,4
|  9>  bweight 1,1
| 10>  nroots 1,24
| 11>  nel 5
| 12>  norb 5
| 13> end
| 14> 
| 15> 
| 16> *xyzfile 0 6 pbe.xyz
| 17> 
| 18> 
| 19>                          ****END OF INPUT****
================================================================================

                       ****************************
                       * Single Point Calculation *
                       ****************************

---------------------------------
CARTESIAN COORDINATES (ANGSTROEM)
---------------------------------
  Au     5.375438    3.938820    6.302104
  Au     8.228185    6.936406    7.533212
  Au     4.631038    5.177032    4.028374
  Au     6.804650    6.238355    5.444410
  Au     3.957912    6.635825    6.254948
  Au     6.330075    3.484324    8.709481
  Au     4.285340    8.167737    8.344516
  Au     7.868609    5.491503    9.967090
  Au     6.678195    7.847077    9.915840
  Au     5.005860    9.828676   10.331861
  Mn     5.836267    6.003457    8.055276

----------------------------
CARTESIAN COORDINATES (A.U.)
----------------------------
  NO LB      ZA    FRAG     MASS         X           Y           Z
   0 Au   19.0000*   0   196.966   10.158107    7.443290   11.909252
   1 Au   19.0000*   0   196.966   15.549017   13.107908   14.235708
   2 Au   19.0000*   0   196.966    8.751393    9.783173    7.612524
   3 Au   19.0000*   0   196.966   12.858924   11.788782   10.288444
   4 Au   19.0000*   0   196.966    7.479371   12.539892   11.820139
   5 Au   19.0000*   0   196.966   11.962107    6.584417   16.458533
   6 Au   19.0000*   0   196.966    8.098120   15.434785   15.768850
   7 Au   19.0000*   0   196.966   14.869516   10.377437   18.835070
   8 Au   19.0000*   0   196.966   12.619960   14.828827   18.738223
   9 Au   19.0000*   0   196.966    9.459704   18.573506   19.524388
  10 Mn   25.0000    0    54.940   11.028947   11.344890   15.222265
* core charge reduced due to ECP

--------------------------------
INTERNAL COORDINATES (ANGSTROEM)
--------------------------------
 Au     0   0   0     0.000000000000     0.00000000     0.00000000
 Au     1   0   0     4.317327292642     0.00000000     0.00000000
 Au     1   2   0     2.693910074774    95.97733957     0.00000000
 Au     2   1   3     2.622369942511    39.58783942   347.89106587
 Au     3   1   2     2.745688100434    68.13003788   295.63734767
 Au     1   2   3     2.629326338313    67.60600105   186.90794261
 Au     5   3   1     2.611562058688   158.39832608    74.02785244
 Au     6   1   2     2.824436091839   118.85587719    10.41045457
 Au     8   6   1     2.639780284260   112.32435198    50.15791277
 Au     9   8   6     2.626121525656   163.22138969    67.12810409
 Mn     2   1   3     2.619964875824    37.47003637   105.55308924

---------------------------
INTERNAL COORDINATES (A.U.)
---------------------------
 Au     0   0   0     0.000000000000     0.00000000     0.00000000
 Au     1   0   0     8.158566213597     0.00000000     0.00000000
 Au     1   2   0     5.090752270735    95.97733957     0.00000000
 Au     2   1   3     4.955561013173    39.58783942   347.89106587
 Au     3   1   2     5.188598558986    68.13003788   295.63734767
 Au     1   2   3     4.968706696117    67.60600105   186.90794261
 Au     5   3   1     4.935137072660   158.39832608    74.02785244
 Au     6   1   2     5.337410696339   118.85587719    10.41045457
 Au     8   6   1     4.988461790976   112.32435198    50.15791277
 Au     9   8   6     4.962650477885   163.22138969    67.12810409
 Mn     2   1   3     4.951016095800    37.47003637   105.55308924

---------------------
BASIS SET INFORMATION
---------------------
There are 2 groups of distinct atoms

 Group   1 Type Au  : 8s7p6d1f contracted to 6s4p3d1f pattern {311111/4111/411/1}
 Group   2 Type Mn  : 17s11p7d1f contracted to 6s4p4d1f pattern {842111/6311/4111/1}

Atom   0Au   basis set group =>   1
Atom   1Au   basis set group =>   1
Atom   2Au   basis set group =>   1
Atom   3Au   basis set group =>   1
Atom   4Au   basis set group =>   1
Atom   5Au   basis set group =>   1
Atom   6Au   basis set group =>   1
Atom   7Au   basis set group =>   1
Atom   8Au   basis set group =>   1
Atom   9Au   basis set group =>   1
Atom  10Mn   basis set group =>   2
---------------------------------
AUXILIARY/J BASIS SET INFORMATION
---------------------------------
There are 2 groups of distinct atoms

 Group   1 Type Au  : 11s5p5d3f3g contracted to 8s5p5d2f3g pattern {41111111/11111/11111/21/111}
 Group   2 Type Mn  : 19s5p5d3f3g contracted to 8s5p5d2f3g pattern {121111111/11111/11111/21/111}

Atom   0Au   basis set group =>   1
Atom   1Au   basis set group =>   1
Atom   2Au   basis set group =>   1
Atom   3Au   basis set group =>   1
Atom   4Au   basis set group =>   1
Atom   5Au   basis set group =>   1
Atom   6Au   basis set group =>   1
Atom   7Au   basis set group =>   1
Atom   8Au   basis set group =>   1
Atom   9Au   basis set group =>   1
Atom  10Mn   basis set group =>   2
---------------------------------
AUXILIARY/C BASIS SET INFORMATION
---------------------------------
There are 2 groups of distinct atoms

 Group   1 Type Au  : 8s8p7d5f3g2h contracted to 8s8p7d5f3g2h pattern {11111111/11111111/1111111/11111/111/11}
 Group   2 Type Mn  : 11s9p8d6f5g2h contracted to 9s8p8d6f5g2h pattern {311111111/21111111/11111111/111111/11111/11}

Atom   0Au   basis set group =>   1
Atom   1Au   basis set group =>   1
Atom   2Au   basis set group =>   1
Atom   3Au   basis set group =>   1
Atom   4Au   basis set group =>   1
Atom   5Au   basis set group =>   1
Atom   6Au   basis set group =>   1
Atom   7Au   basis set group =>   1
Atom   8Au   basis set group =>   1
Atom   9Au   basis set group =>   1
Atom  10Mn   basis set group =>   2
-------------------------
ECP PARAMETER INFORMATION
-------------------------

 Group 1, Type Au ECP Def2-ECP (replacing 60 core electrons, lmax=3)

Atom   0Au   ECP group =>   1
Atom   1Au   ECP group =>   1
Atom   2Au   ECP group =>   1
Atom   3Au   ECP group =>   1
Atom   4Au   ECP group =>   1
Atom   5Au   ECP group =>   1
Atom   6Au   ECP group =>   1
Atom   7Au   ECP group =>   1
Atom   8Au   ECP group =>   1
Atom   9Au   ECP group =>   1



           ************************************************************
           *        Program running with 16 parallel MPI-processes    *
           *              working on a common directory               *
           ************************************************************
------------------------------------------------------------------------------
                           ORCA GTO INTEGRAL CALCULATION
                           -- RI-GTO INTEGRALS CHOSEN --
------------------------------------------------------------------------------
------------------------------------------------------------------------------
                   ___                                                        
                  /   \      - P O W E R E D   B Y -                         
                 /     \                                                     
                 |  |  |   _    _      __       _____    __    __             
                 |  |  |  | |  | |    /  \     |  _  \  |  |  /  |          
                  \  \/   | |  | |   /    \    | | | |  |  | /  /          
                 / \  \   | |__| |  /  /\  \   | |_| |  |  |/  /          
                |  |  |   |  __  | /  /__\  \  |    /   |      \           
                |  |  |   | |  | | |   __   |  |    \   |  |\   \          
                \     /   | |  | | |  |  |  |  | |\  \  |  | \   \       
                 \___/    |_|  |_| |__|  |__|  |_| \__\ |__|  \__/        
                                                                              
                      - O R C A' S   B I G   F R I E N D -                    
                                      &                                       
                       - I N T E G R A L  F E E D E R -                       
                                                                              
 v1 FN, 2020, v2 2021                                                         
------------------------------------------------------------------------------


Reading SHARK input file casscf.SHARKINP.tmp ... ok
----------------------
SHARK INTEGRAL PACKAGE
----------------------

Number of atoms                             ...     11
Number of basis functions                   ...    445
Number of shells                            ...    155
Maximum angular momentum                    ...      3
Integral batch strategy                     ... SHARK/LIBINT Hybrid
RI-J (if used) integral strategy            ... SPLIT-RIJ (Revised 2003 algorithm where possible)
Printlevel                                  ...      1
Contraction scheme used                     ... SEGMENTED contraction
Coulomb Range Separation                    ... NOT USED
Exchange Range Separation                   ... NOT USED
Finite Nucleus Model                        ... NOT USED
Auxiliary Coulomb fitting basis             ... AVAILABLE
   # of basis functions in Aux-J            ...    979
   # of shells in Aux-J                     ...    253
   Maximum angular momentum in Aux-J        ...      4
Auxiliary J/K fitting basis                 ... NOT available
Auxiliary Correlation fitting basis         ... AVAILABLE
   # of basis functions in Aux-C            ...   1692
   # of shells in Aux-C                     ...    368
   Maximum angular momentum in Aux-C        ...      5
Auxiliary 'external' fitting basis          ... NOT available
Integral threshold                          ...     1.000000e-10
Primitive cut-off                           ...     1.000000e-11
Primitive pair pre-selection threshold      ...     1.000000e-11

Calculating pre-screening integrals         ... done (  0.1 sec) Dimension = 155
Organizing shell pair data                  ... done (  0.2 sec)
Shell pair information
Total number of shell pairs                 ...     12090
Shell pairs after pre-screening             ...      9607
Total number of primitive shell pairs       ...     33105
Primitive shell pairs kept                  ...     19321
          la=0 lb=0:   1524 shell pairs
          la=1 lb=0:   2178 shell pairs
          la=1 lb=1:    828 shell pairs
          la=2 lb=0:   1910 shell pairs
          la=2 lb=1:   1344 shell pairs
          la=2 lb=2:    558 shell pairs
          la=3 lb=0:    504 shell pairs
          la=3 lb=1:    381 shell pairs
          la=3 lb=2:    328 shell pairs
          la=3 lb=3:     52 shell pairs

Calculating one electron integrals          ... done (  0.0 sec)
Calculating ECP integrals                   ... done (  4.6 sec)
Calculating RI/J V-Matrix + Cholesky decomp.... done (  0.1 sec)
Calculating RI/C V-Matrix + Cholesky decomp.... done (  0.2 sec)
Calculating Nuclear repulsion               ... done (  0.0 sec) ENN=   3040.556917001040 Eh

SHARK setup successfully completed in   5.5 seconds

Maximum memory used throughout the entire GTOINT-calculation: 29.6 MB


           ************************************************************
           *        Program running with 16 parallel MPI-processes    *
           *              working on a common directory               *
           ************************************************************
-------------------------------------------------------------------------------
                                 ORCA SCF
-------------------------------------------------------------------------------

------------
SCF SETTINGS
------------
Hamiltonian:
 Ab initio Hamiltonian  Method          .... Hartree-Fock(GTOs)
 RI-approximation to the Coulomb term is turned on
   Number of AuxJ basis functions       .... 979
   RIJ-COSX (HFX calculated with COS-X)).... on


General Settings:
 Integral files         IntName         .... casscf
 Hartree-Fock type      HFTyp           .... CASSCF
 Total Charge           Charge          ....    0
 Multiplicity           Mult            ....    6
 Number of Electrons    NEL             ....  215
 Basis Dimension        Dim             ....  445
 Nuclear Repulsion      ENuc            ....   3040.5569170010 Eh


Diagonalization of the overlap matrix:
Smallest eigenvalue                        ... 5.065e-04
Time for diagonalization                   ...    0.050 sec
Threshold for overlap eigenvalues          ... 1.000e-08
Number of eigenvalues below threshold      ... 0
Time for construction of square roots      ...    0.027 sec
Total time needed                          ...    0.078 sec

---------------------
INITIAL GUESS: MOREAD
---------------------
Guess MOs are being read from file: pbe.qro
Input Geometry matches current geometry (good)
Input basis set matches current basis set (good)
MOs were renormalized
Gram-Schmidt orthogonalization of all MOs with pivot on actives
                      ------------------
                      INITIAL GUESS DONE (   1.1 sec)
                      ------------------
--------------------
COSX GRID GENERATION
--------------------

GRIDX 1
-------
General Integration Accuracy     IntAcc      ... 3.816
Radial Grid Type                 RadialGrid  ... OptM3 with GC (2021)
Angular Grid (max. ang.)         AngularGrid ... 1 (Lebedev-50)
Angular grid pruning method      GridPruning ... 4 (adaptive)
Weight generation scheme         WeightScheme... Becke
Basis function cutoff            BFCut       ... 1.0000e-10
Integration weight cutoff        WCut        ... 1.0000e-14
Angular grids for H and He will be reduced by one unit
Partially contracted basis set               ... on
Rotationally invariant grid construction     ... off

Total number of grid points                  ...    13125
Total number of batches                      ...      210
Average number of points per batch           ...       62
Average number of grid points per atom       ...     1193
UseSFitting                                  ... on

GRIDX 2
-------
General Integration Accuracy     IntAcc      ... 4.020
Radial Grid Type                 RadialGrid  ... OptM3 with GC (2021)
Angular Grid (max. ang.)         AngularGrid ... 2 (Lebedev-110)
Angular grid pruning method      GridPruning ... 4 (adaptive)
Weight generation scheme         WeightScheme... Becke
Basis function cutoff            BFCut       ... 1.0000e-10
Integration weight cutoff        WCut        ... 1.0000e-14
Angular grids for H and He will be reduced by one unit
Partially contracted basis set               ... on
Rotationally invariant grid construction     ... off

Total number of grid points                  ...    39613
Total number of batches                      ...      625
Average number of points per batch           ...       63
Average number of grid points per atom       ...     3601
UseSFitting                                  ... on

GRIDX 3
-------
General Integration Accuracy     IntAcc      ... 4.338
Radial Grid Type                 RadialGrid  ... OptM3 with GC (2021)
Angular Grid (max. ang.)         AngularGrid ... 3 (Lebedev-194)
Angular grid pruning method      GridPruning ... 4 (adaptive)
Weight generation scheme         WeightScheme... Becke
Basis function cutoff            BFCut       ... 1.0000e-10
Integration weight cutoff        WCut        ... 1.0000e-14
Angular grids for H and He will be reduced by one unit
Partially contracted basis set               ... on
Rotationally invariant grid construction     ... off

Total number of grid points                  ...    73056
Total number of batches                      ...     1148
Average number of points per batch           ...       63
Average number of grid points per atom       ...     6641
UseSFitting                                  ... on

Time for X-Grid setup             =    0.814 sec



 ... the calculation is a CASSCF calculation -I'm leaving here GOOD LUCK!!!



           ************************************************************
           *        Program running with 16 parallel MPI-processes    *
           *              working on a common directory               *
           ************************************************************
-------------------------------------------------------------------------------
                              ORCA-CASSCF
-------------------------------------------------------------------------------

Setting up the integral package       ... done
Setting up the integral package (RI)  ... done
Building the CAS space                ... done (1 configurations for Mult=6)
Building the CAS space                ... done (21 configurations for Mult=4)

SYSTEM-SPECIFIC SETTINGS:
Number of active electrons          ...    5
Number of active orbitals           ...    5
Total number of electrons           ...  215
Total number of orbitals            ...  445
Total number aux. functions         ... 1692

Determined orbital ranges:
   Internal       0 -  104 ( 105 orbitals)
   Active       105 -  109 (   5 orbitals)
   External     110 -  444 ( 335 orbitals)
Number of rotation parameters      ...  37375

CI-STEP:
CI strategy                         ... General CI
Number of multiplicity blocks       ...    2
BLOCK  1 WEIGHT=   0.5000
  Multiplicity                      ...    6
  #(Configurations)                 ...    1
  #(CSFs)                           ...    1
  #(Roots)                          ...    1
    ROOT=0 WEIGHT=    0.500000

BLOCK  2 WEIGHT=   0.5000
  Multiplicity                      ...    4
  #(Configurations)                 ...   21
  #(CSFs)                           ...   24
  #(Roots)                          ...   24
    ROOT=0 WEIGHT=    0.020833
    ROOT=1 WEIGHT=    0.020833
    ROOT=2 WEIGHT=    0.020833
    ROOT=3 WEIGHT=    0.020833
    ROOT=4 WEIGHT=    0.020833
    ROOT=5 WEIGHT=    0.020833
    ROOT=6 WEIGHT=    0.020833
    ROOT=7 WEIGHT=    0.020833
    ROOT=8 WEIGHT=    0.020833
    ROOT=9 WEIGHT=    0.020833
    ROOT=10 WEIGHT=    0.020833
    ROOT=11 WEIGHT=    0.020833
    ROOT=12 WEIGHT=    0.020833
    ROOT=13 WEIGHT=    0.020833
    ROOT=14 WEIGHT=    0.020833
    ROOT=15 WEIGHT=    0.020833
    ROOT=16 WEIGHT=    0.020833
    ROOT=17 WEIGHT=    0.020833
    ROOT=18 WEIGHT=    0.020833
    ROOT=19 WEIGHT=    0.020833
    ROOT=20 WEIGHT=    0.020833
    ROOT=21 WEIGHT=    0.020833
    ROOT=22 WEIGHT=    0.020833
    ROOT=23 WEIGHT=    0.020833

  PrintLevel                        ...    1
  N(GuessMat)                       ...       512
  MaxDim(CI)                        ...        10
  MaxIter(CI)                       ...        64
  Energy Tolerance CI               ...  1.00e-08
  Residual Tolerance CI             ...  1.00e-08
  Shift(CI)                         ...  1.00e-04

INTEGRAL-TRANSFORMATION-STEP:
  Algorithm                         ... RI-MO

ORBITAL-IMPROVEMENT-STEP:
  Algorithm                         ... SuperCI(PT)
  Default Parametrization           ... CAYLEY
  Act-Act rotations                 ... depends on algorithm used

  Note: SuperCI(PT) will ignore FreezeIE, FreezeAct and FreezeGrad. In general Default settings are encouraged.
        In conjunction with ShiftUp, ShiftDn or GradScaling the performance of SuperCI(PT) is less optimal.  

  MaxRot                            ... 2.00e-01 
  Max. no of vectors (DIIS)         ... 15
  DThresh (cut-off) metric          ... 1.00e-06
  Switch step at gradient           ...  3.00e-02 
  Switch step at iteration          ...        50   
  Switch step to                    ... SuperCI(PT)    

SCF-SETTINGS:
  Incremental                       ... off
  RIJCOSX approximation             ... on
  UseFinalGrid                      ... on
  RI-JK approximation               ... off
  AO integral handling              ... DIRECT
  Integral Neglect Thresh           ...  1.00e-10
  Primitive cutoff TCut             ...  1.00e-11
  Energy convergence tolerance      ...  1.00e-07
  Orbital gradient convergence      ...  1.00e-03
  Max. number of iterations         ...        75  


FINAL ORBITALS:
  Active   Orbitals                 ... natural 
  Internal Orbitals                 ... canonical 
  External Orbitals                 ... canonical 

------------------
CAS-SCF ITERATIONS
------------------


MACRO-ITERATION   1: 
   --- Inactive Energy E0 = -2488.78917740 Eh
CI-ITERATION   0: 
 -2497.656671577   0.000000000000 (    0.00)
   CI-PROBLEM SOLVED
   DENSITIES MADE
CI-ITERATION   0: 
 -2497.552707949   0.000000000000 (    0.00)
 -2497.552367765   0.000000000000
 -2497.549220615   0.000000000000
 -2497.548149551   0.000000000000
 -2497.547755955   0.000000000000
 -2497.547268058   0.000000000000
 -2497.547172132   0.000000000000
 -2497.546863589   0.000000000000
 -2497.546434758   0.000000000000
 -2497.534233108   0.000000000000
 -2497.529575252   0.000000000000
 -2497.528833922   0.000000000000
 -2497.525193128   0.000000000000
 -2497.522107358   0.000000000000
 -2497.520227263   0.000000000000
 -2497.520009829   0.000000000000
 -2497.519225564   0.000000000000
 -2497.479266119   0.000000000000
 -2497.477292547   0.000000000000
 -2497.474159981   0.000000000000
 -2497.473277850   0.000000000000
 -2497.471836808   0.000000000000
 -2497.470802553   0.000000000000
 -2497.469281723   0.000000000000
   CI-PROBLEM SOLVED
   DENSITIES MADE

                 <<<<<<<<<<<<<<<<<<INITIAL CI STATE CHECK>>>>>>>>>>>>>>>>>>

BLOCK  1 MULT= 6 NROOTS= 1 
ROOT   0:  E=   -2497.6566715773 Eh
      1.00000 [     0]: 11111

BLOCK  2 MULT= 4 NROOTS=24 
ROOT   0:  E=   -2497.5527079487 Eh
      0.26807 [     9]: 11120
      0.22641 [     7]: 11210
      0.13031 [    11]: 11102
      0.12958 [     0]: 21110
      0.10086 [    13]: 11012
      0.05071 [    10]: 11111
      0.04476 [    20]: 01112
      0.01946 [     4]: 12110
      0.00658 [     8]: 11201
      0.00596 [    16]: 10112
      0.00457 [    14]: 10211
      0.00368 [     2]: 21011
      0.00314 [    18]: 01211
      0.00268 [    17]: 02111
ROOT   1:  E=   -2497.5523677648 Eh  0.009 eV     74.7 cm**-1
      0.58060 [    10]: 11111
      0.10767 [     8]: 11201
      0.08426 [    12]: 11021
      0.05151 [     1]: 21101
      0.03379 [    19]: 01121
      0.02345 [    11]: 11102
      0.02230 [     2]: 21011
      0.02044 [     9]: 11120
      0.01669 [     5]: 12101
      0.01438 [    18]: 01211
      0.00927 [     0]: 21110
      0.00810 [    15]: 10121
      0.00578 [     3]: 20111
      0.00570 [     6]: 12011
      0.00413 [    20]: 01112
      0.00369 [    14]: 10211
      0.00326 [     4]: 12110
      0.00314 [    17]: 02111
ROOT   2:  E=   -2497.5492206154 Eh  0.095 eV    765.4 cm**-1
      0.17091 [     7]: 11210
      0.14829 [    10]: 11111
      0.13907 [     0]: 21110
      0.08729 [     1]: 21101
      0.07539 [     8]: 11201
      0.07378 [    13]: 11012
      0.06931 [     4]: 12110
      0.03839 [    20]: 01112
      0.03675 [    12]: 11021
      0.03418 [    19]: 01121
      0.03349 [    16]: 10112
      0.02938 [     3]: 20111
      0.01597 [     2]: 21011
      0.01530 [    17]: 02111
      0.01205 [     9]: 11120
      0.00640 [    11]: 11102
      0.00533 [     6]: 12011
      0.00448 [    15]: 10121
ROOT   3:  E=   -2497.5481495509 Eh  0.124 eV   1000.5 cm**-1
      0.42515 [    10]: 11111
      0.11867 [     2]: 21011
      0.11564 [    18]: 01211
      0.08246 [     7]: 11210
      0.06410 [     4]: 12110
      0.04610 [    16]: 10112
      0.04074 [    13]: 11012
      0.02957 [    11]: 11102
      0.01958 [     9]: 11120
      0.01713 [     1]: 21101
      0.01644 [    19]: 01121
      0.00879 [    12]: 11021
      0.00602 [     0]: 21110
      0.00460 [     8]: 11201
ROOT   4:  E=   -2497.5477559554 Eh  0.135 eV   1086.8 cm**-1
      0.37205 [    10]: 11111
      0.13003 [     5]: 12101
      0.08140 [    15]: 10121
      0.05996 [    11]: 11102
      0.05702 [     9]: 11120
      0.05054 [     8]: 11201
      0.04840 [     3]: 20111
      0.03673 [    12]: 11021
      0.03610 [    17]: 02111
      0.03463 [     2]: 21011
      0.02607 [    13]: 11012
      0.02561 [     7]: 11210
      0.02421 [    18]: 01211
      0.01023 [     0]: 21110
      0.00413 [    20]: 01112
ROOT   5:  E=   -2497.5472680581 Eh  0.148 eV   1193.9 cm**-1
      0.36820 [     5]: 12101
      0.14437 [    10]: 11111
      0.12844 [    15]: 10121
      0.11952 [    17]: 02111
      0.07369 [     6]: 12011
      0.07006 [     3]: 20111
      0.04279 [    14]: 10211
      0.01216 [     1]: 21101
      0.00871 [    11]: 11102
      0.00704 [     7]: 11210
      0.00644 [    12]: 11021
      0.00544 [    19]: 01121
      0.00481 [     9]: 11120
      0.00416 [     8]: 11201
ROOT   6:  E=   -2497.5471721317 Eh  0.151 eV   1215.0 cm**-1
      0.19328 [    10]: 11111
      0.12876 [     0]: 21110
      0.08504 [     5]: 12101
      0.08302 [    20]: 01112
      0.08193 [     2]: 21011
      0.06666 [     6]: 12011
      0.06536 [    14]: 10211
      0.06342 [    18]: 01211
      0.05707 [     8]: 11201
      0.05213 [    15]: 10121
      0.04845 [    12]: 11021
      0.02436 [    11]: 11102
      0.01034 [     3]: 20111
      0.00927 [     9]: 11120
      0.00819 [     4]: 12110
      0.00802 [    13]: 11012
      0.00788 [    16]: 10112
      0.00328 [     7]: 11210
      0.00264 [    17]: 02111
ROOT   7:  E=   -2497.5468635894 Eh  0.159 eV   1282.7 cm**-1
      0.23436 [    10]: 11111
      0.10802 [    17]: 02111
      0.09808 [     4]: 12110
      0.09725 [     3]: 20111
      0.08974 [    18]: 01211
      0.07464 [    16]: 10112
      0.06710 [     1]: 21101
      0.06581 [     2]: 21011
      0.05800 [    19]: 01121
      0.02369 [    14]: 10211
      0.02060 [     6]: 12011
      0.01236 [     8]: 11201
      0.00952 [     9]: 11120
      0.00893 [     5]: 12101
      0.00889 [     7]: 11210
      0.00784 [    12]: 11021
      0.00594 [    11]: 11102
      0.00475 [    13]: 11012
ROOT   8:  E=   -2497.5464347580 Eh  0.171 eV   1376.8 cm**-1
      0.39665 [    10]: 11111
      0.10845 [     6]: 12011
      0.09612 [    14]: 10211
      0.08421 [     1]: 21101
      0.08031 [     2]: 21011
      0.06381 [    18]: 01211
      0.05096 [    19]: 01121
      0.03615 [     0]: 21110
      0.01723 [    20]: 01112
      0.01582 [    11]: 11102
      0.01197 [     8]: 11201
      0.01070 [     5]: 12101
      0.00684 [    17]: 02111
      0.00507 [     3]: 20111
      0.00446 [    12]: 11021
      0.00333 [     9]: 11120
ROOT   9:  E=   -2497.5342331076 Eh  0.503 eV   4054.8 cm**-1
      0.28478 [    11]: 11102
      0.16543 [    13]: 11012
      0.10487 [     9]: 11120
      0.08358 [     7]: 11210
      0.07468 [    20]: 01112
      0.04789 [    14]: 10211
      0.04716 [     3]: 20111
      0.03315 [    10]: 11111
      0.02748 [     0]: 21110
      0.02478 [    12]: 11021
      0.02305 [     1]: 21101
      0.02022 [    17]: 02111
      0.01982 [     6]: 12011
      0.01328 [    19]: 01121
      0.01183 [     8]: 11201
      0.00897 [     2]: 21011
      0.00594 [     4]: 12110
ROOT  10:  E=   -2497.5295752521 Eh  0.629 eV   5077.0 cm**-1
      0.20136 [    18]: 01211
      0.18232 [     2]: 21011
      0.10916 [    13]: 11012
      0.09610 [    20]: 01112
      0.08129 [    17]: 02111
      0.06822 [    16]: 10112
      0.05712 [     0]: 21110
      0.03741 [    12]: 11021
      0.03685 [     7]: 11210
      0.01961 [     5]: 12101
      0.01828 [     3]: 20111
      0.01692 [     6]: 12011
      0.01690 [    10]: 11111
      0.01260 [    19]: 01121
      0.01079 [    11]: 11102
      0.01032 [     1]: 21101
      0.00837 [     4]: 12110
      0.00826 [    15]: 10121
      0.00616 [    14]: 10211
ROOT  11:  E=   -2497.5288339219 Eh  0.650 eV   5239.7 cm**-1
      0.32910 [    15]: 10121
      0.16829 [     5]: 12101
      0.12002 [     3]: 20111
      0.07405 [    12]: 11021
      0.05987 [    14]: 10211
      0.05537 [     2]: 21011
      0.05108 [     0]: 21110
      0.04630 [    18]: 01211
      0.02315 [    13]: 11012
      0.02120 [    10]: 11111
      0.01098 [    17]: 02111
      0.00720 [     9]: 11120
      0.00695 [    16]: 10112
      0.00690 [    11]: 11102
      0.00509 [     7]: 11210
      0.00371 [     1]: 21101
      0.00369 [     6]: 12011
      0.00343 [     4]: 12110
      0.00277 [    20]: 01112
ROOT  12:  E=   -2497.5251931280 Eh  0.749 eV   6038.8 cm**-1
      0.30358 [    10]: 11111
      0.21746 [     8]: 11201
      0.07477 [    12]: 11021
      0.05867 [     9]: 11120
      0.04497 [    15]: 10121
      0.04099 [    11]: 11102
      0.04075 [    20]: 01112
      0.03704 [     1]: 21101
      0.03557 [    19]: 01121
      0.03370 [     4]: 12110
      0.03172 [     7]: 11210
      0.02451 [    16]: 10112
      0.01912 [     2]: 21011
      0.01147 [    18]: 01211
      0.01045 [     6]: 12011
      0.00669 [     0]: 21110
      0.00489 [     3]: 20111
      0.00289 [     5]: 12101
ROOT  13:  E=   -2497.5221073579 Eh  0.833 eV   6716.1 cm**-1
      0.19488 [     4]: 12110
      0.17999 [     1]: 21101
      0.13615 [    10]: 11111
      0.11849 [    16]: 10112
      0.10930 [    19]: 01121
      0.04963 [     7]: 11210
      0.04875 [     6]: 12011
      0.03179 [    14]: 10211
      0.02995 [     8]: 11201
      0.02665 [    12]: 11021
      0.02443 [    13]: 11012
      0.01507 [     2]: 21011
      0.01274 [     5]: 12101
      0.00516 [    18]: 01211
      0.00417 [    20]: 01112
      0.00356 [    11]: 11102
      0.00343 [     0]: 21110
      0.00281 [     9]: 11120
      0.00275 [    15]: 10121
ROOT  14:  E=   -2497.5202272628 Eh  0.884 eV   7128.7 cm**-1
      0.19364 [     3]: 20111
      0.18751 [    17]: 02111
      0.17866 [    10]: 11111
      0.08198 [    15]: 10121
      0.05682 [    13]: 11012
      0.04101 [     9]: 11120
      0.04070 [    18]: 01211
      0.04038 [     8]: 11201
      0.03743 [    20]: 01112
      0.03599 [     2]: 21011
      0.02945 [    11]: 11102
      0.02063 [     0]: 21110
      0.01566 [     7]: 11210
      0.01051 [     4]: 12110
      0.00870 [     5]: 12101
      0.00698 [     1]: 21101
      0.00401 [    12]: 11021
      0.00389 [     6]: 12011
      0.00254 [    16]: 10112
ROOT  15:  E=   -2497.5200098292 Eh  0.890 eV   7176.4 cm**-1
      0.36039 [    10]: 11111
      0.15785 [    14]: 10211
      0.14904 [     6]: 12011
      0.10199 [     4]: 12110
      0.05902 [    16]: 10112
      0.02999 [    13]: 11012
      0.02455 [    20]: 01112
      0.02341 [    19]: 01121
      0.02262 [    15]: 10121
      0.02106 [     0]: 21110
      0.01382 [     7]: 11210
      0.00861 [     1]: 21101
      0.00647 [    11]: 11102
      0.00614 [     2]: 21011
      0.00521 [     8]: 11201
      0.00331 [    12]: 11021
ROOT  16:  E=   -2497.5192255637 Eh  0.911 eV   7348.5 cm**-1
      0.39782 [    10]: 11111
      0.12133 [    20]: 01112
      0.08039 [     9]: 11120
      0.07801 [     0]: 21110
      0.04751 [     6]: 12011
      0.04647 [    18]: 01211
      0.04415 [    19]: 01121
      0.04017 [     1]: 21101
      0.03092 [     2]: 21011
      0.02781 [    13]: 11012
      0.01870 [    14]: 10211
      0.01764 [    11]: 11102
      0.01528 [    15]: 10121
      0.01002 [    17]: 02111
      0.00699 [     3]: 20111
      0.00602 [    12]: 11021
      0.00422 [     4]: 12110
      0.00300 [     7]: 11210
      0.00256 [    16]: 10112
ROOT  17:  E=   -2497.4792661189 Eh  1.998 eV  16118.6 cm**-1
      0.41329 [    12]: 11021
      0.28486 [     8]: 11201
      0.07546 [    15]: 10121
      0.05433 [    13]: 11012
      0.04266 [     5]: 12101
      0.03632 [     7]: 11210
      0.03375 [    19]: 01121
      0.02240 [     1]: 21101
      0.01501 [    18]: 01211
      0.00663 [     2]: 21011
      0.00586 [    20]: 01112
      0.00266 [     0]: 21110
ROOT  18:  E=   -2497.4772925469 Eh  2.052 eV  16551.8 cm**-1
      0.23400 [     9]: 11120
      0.22719 [    11]: 11102
      0.19823 [    13]: 11012
      0.15411 [     7]: 11210
      0.04045 [    12]: 11021
      0.03318 [     8]: 11201
      0.02611 [    16]: 10112
      0.01810 [     0]: 21110
      0.01721 [    20]: 01112
      0.01523 [     4]: 12110
      0.00744 [    15]: 10121
      0.00721 [     5]: 12101
      0.00674 [     2]: 21011
      0.00659 [    18]: 01211
      0.00287 [    17]: 02111
ROOT  19:  E=   -2497.4741599810 Eh  2.137 eV  17239.3 cm**-1
      0.22358 [    19]: 01121
      0.15334 [     1]: 21101
      0.12412 [    14]: 10211
      0.12051 [     6]: 12011
      0.10978 [    18]: 01211
      0.09654 [     2]: 21011
      0.05430 [    16]: 10112
      0.03787 [     4]: 12110
      0.01556 [    20]: 01112
      0.01527 [    11]: 11102
      0.01396 [     9]: 11120
      0.00900 [    15]: 10121
      0.00801 [     0]: 21110
      0.00600 [     5]: 12101
      0.00402 [     8]: 11201
      0.00260 [    13]: 11012
      0.00253 [    12]: 11021
ROOT  20:  E=   -2497.4732778495 Eh  2.161 eV  17432.9 cm**-1
      0.20829 [    20]: 01112
      0.13599 [     0]: 21110
      0.12517 [     6]: 12011
      0.12354 [    14]: 10211
      0.10630 [    15]: 10121
      0.09469 [     5]: 12101
      0.02380 [     9]: 11120
      0.02337 [    17]: 02111
      0.02267 [    13]: 11012
      0.02144 [    11]: 11102
      0.01801 [     3]: 20111
      0.01791 [     7]: 11210
      0.01699 [    12]: 11021
      0.01628 [     8]: 11201
      0.01205 [    18]: 01211
      0.01182 [     2]: 21011
      0.00663 [     4]: 12110
      0.00545 [    16]: 10112
      0.00487 [    19]: 01121
      0.00304 [     1]: 21101
ROOT  21:  E=   -2497.4718368081 Eh  2.201 eV  17749.2 cm**-1
      0.27071 [    19]: 01121
      0.17891 [     1]: 21101
      0.10838 [    14]: 10211
      0.09450 [     6]: 12011
      0.06020 [    20]: 01112
      0.05554 [    18]: 01211
      0.04516 [     2]: 21011
      0.04236 [     0]: 21110
      0.03830 [    12]: 11021
      0.02178 [     8]: 11201
      0.02075 [    16]: 10112
      0.01137 [     4]: 12110
      0.01042 [    13]: 11012
      0.00856 [     7]: 11210
      0.00748 [    17]: 02111
      0.00595 [     3]: 20111
      0.00570 [    11]: 11102
      0.00508 [    15]: 10121
      0.00451 [     9]: 11120
      0.00340 [     5]: 12101
ROOT  22:  E=   -2497.4708025530 Eh  2.229 eV  17976.2 cm**-1
      0.41478 [    16]: 10112
      0.28982 [     4]: 12110
      0.09346 [    20]: 01112
      0.06360 [     0]: 21110
      0.05152 [    14]: 10211
      0.05050 [     6]: 12011
      0.00653 [    19]: 01121
      0.00584 [    15]: 10121
      0.00541 [     7]: 11210
      0.00335 [    18]: 01211
      0.00329 [     2]: 21011
      0.00320 [    13]: 11012
      0.00310 [     5]: 12101
ROOT  23:  E=   -2497.4692817232 Eh  2.270 eV  18309.9 cm**-1
      0.35892 [    17]: 02111
      0.31523 [     3]: 20111
      0.06981 [    18]: 01211
      0.05183 [     2]: 21011
      0.02667 [     6]: 12011
      0.02624 [    14]: 10211
      0.02370 [    11]: 11102
      0.02149 [    16]: 10112
      0.02066 [     9]: 11120
      0.01914 [    19]: 01121
      0.01503 [    13]: 11012
      0.01276 [     7]: 11210
      0.01015 [     4]: 12110
      0.01012 [     1]: 21101
      0.00597 [     5]: 12101
      0.00426 [    15]: 10121
      0.00278 [    20]: 01112

                 <<<<<<<<<<<<<<<<<<INITIAL CI STATE CHECK>>>>>>>>>>>>>>>>>>

   E(CAS)= -2497.587778775 Eh DE=    0.000000e+00
   --- Energy gap subspaces: Ext-Act = 0.093   Act-Int = 0.140
   N(occ)=  1.00000 1.00000 1.00000 1.00000 1.00000
   ||g|| =     2.236362e+00 Max(G)=   -4.733908e-01 Rot=382,1
   --- Orbital Update [SuperCI(PT)]
   --- Canonicalize Internal Space
   --- Canonicalize External Space
   --- SX_PT (Skipped TA=0 IT=0): ||X|| =      0.437567502 Max(X)(109,104) =     -0.062548124 
   --- SFit(Active Orbitals)

MACRO-ITERATION   2: 
   --- Inactive Energy E0 = -2487.76673693 Eh
CI-ITERATION   0: 
 -2497.969430670   0.000000000000 (    0.00)
   CI-PROBLEM SOLVED
   DENSITIES MADE
CI-ITERATION   0: 
 -2497.846126160   0.000000000000 (    0.00)
 -2497.845677166   0.000000000000
 -2497.845422959   0.000000000000
 -2497.844935663   0.000000000000
 -2497.844377020   0.000000000000
 -2497.843935634   0.000000000000
 -2497.843347861   0.000000000000
 -2497.843022988   0.000000000000
 -2497.842826569   0.000000000000
 -2497.825658060   0.000000000000
 -2497.823369263   0.000000000000
 -2497.822213542   0.000000000000
 -2497.814822470   0.000000000000
 -2497.813822277   0.000000000000
 -2497.812013386   0.000000000000
 -2497.811328129   0.000000000000
 -2497.810384853   0.000000000000
 -2497.760626401   0.000000000000
 -2497.758915044   0.000000000000
 -2497.757285913   0.000000000000
 -2497.756470728   0.000000000000
 -2497.755579250   0.000000000000
 -2497.754968283   0.000000000000
 -2497.754267652   0.000000000000
   CI-PROBLEM SOLVED
   DENSITIES MADE
   E(CAS)= -2497.889536111 Eh DE=   -3.017573e-01
   --- Energy gap subspaces: Ext-Act = 0.180   Act-Int = 0.049
   N(occ)=  1.00000 1.00000 1.00000 1.00000 1.00000
   ||g|| =     7.440176e-01 Max(G)=   -5.075176e-02 Rot=371,49
   --- Orbital Update [SuperCI(PT)]
   --- Canonicalize Internal Space
   --- Canonicalize External Space
   --- SX_PT (Skipped TA=0 IT=0): ||X|| =      0.172376411 Max(X)(110,105) =     -0.027775819 
   --- SFit(Active Orbitals)

MACRO-ITERATION   3: 
   --- Inactive Energy E0 = -2487.74500962 Eh
CI-ITERATION   0: 
 -2498.010591424   0.000000000000 (    0.00)
   CI-PROBLEM SOLVED
   DENSITIES MADE
CI-ITERATION   0: 
 -2497.876965689   0.000000000000 (    0.00)
 -2497.876119490   0.000000000000
 -2497.876056239   0.000000000000
 -2497.875405733   0.000000000000
 -2497.875244008   0.000000000000
 -2497.874917315   0.000000000000
 -2497.874668613   0.000000000000
 -2497.874442119   0.000000000000
 -2497.874387788   0.000000000000
 -2497.854489698   0.000000000000
 -2497.853128543   0.000000000000
 -2497.852501655   0.000000000000
 -2497.843019558   0.000000000000
 -2497.842438608   0.000000000000
 -2497.841203613   0.000000000000
 -2497.840677403   0.000000000000
 -2497.840259515   0.000000000000
 -2497.784352214   0.000000000000
 -2497.783792937   0.000000000000
 -2497.781949062   0.000000000000
 -2497.781573783   0.000000000000
 -2497.781068092   0.000000000000
 -2497.780570065   0.000000000000
 -2497.780089441   0.000000000000
   CI-PROBLEM SOLVED
   DENSITIES MADE
   E(CAS)= -2497.924448236 Eh DE=   -3.491213e-02
   --- Energy gap subspaces: Ext-Act = 0.076   Act-Int = 0.161
   N(occ)=  1.00000 1.00000 1.00000 1.00000 1.00000
   ||g|| =     4.903609e-01 Max(G)=    9.505940e-02 Rot=382,15
   --- Orbital Update [SuperCI(PT)]
   --- Canonicalize Internal Space
   --- Canonicalize External Space
   --- SX_PT (Skipped TA=0 IT=0): ||X|| =      0.112542870 Max(X)(109,104) =     -0.026731158 
   --- SFit(Active Orbitals)

MACRO-ITERATION   4: 
   --- Inactive Energy E0 = -2487.41936075 Eh
CI-ITERATION   0: 
 -2498.024744423   0.000000000000 (    0.00)
   CI-PROBLEM SOLVED
   DENSITIES MADE
CI-ITERATION   0: 
 -2497.889636688   0.000000000000 (    0.00)
 -2497.888942537   0.000000000000
 -2497.888812655   0.000000000000
 -2497.888457405   0.000000000000
 -2497.888122205   0.000000000000
 -2497.887800357   0.000000000000
 -2497.887579259   0.000000000000
 -2497.887363154   0.000000000000
 -2497.887305675   0.000000000000
 -2497.866769990   0.000000000000
 -2497.865541063   0.000000000000
 -2497.865040831   0.000000000000
 -2497.855160023   0.000000000000
 -2497.854925814   0.000000000000
 -2497.853770260   0.000000000000
 -2497.853217465   0.000000000000
 -2497.852631512   0.000000000000
 -2497.795349699   0.000000000000
 -2497.794959154   0.000000000000
 -2497.793650190   0.000000000000
 -2497.793383751   0.000000000000
 -2497.792982518   0.000000000000
 -2497.792683799   0.000000000000
 -2497.792330304   0.000000000000
   CI-PROBLEM SOLVED
   DENSITIES MADE
   E(CAS)= -2497.937714218 Eh DE=   -1.326598e-02
   --- Energy gap subspaces: Ext-Act = 0.131   Act-Int = 0.102
   N(occ)=  1.00000 1.00000 1.00000 1.00000 1.00000
   ||g|| =     8.542307e-02 Max(G)=   -6.818286e-03 Rot=383,106
   --- Orbital Update [SuperCI(PT)]
   --- Canonicalize Internal Space
   --- Canonicalize External Space
   --- SX_PT (Skipped TA=0 IT=0): ||X|| =      0.021656787 Max(X)(113,104) =     -0.004085609 
   --- SFit(Active Orbitals)

MACRO-ITERATION   5: 
   --- Inactive Energy E0 = -2487.44022281 Eh
CI-ITERATION   0: 
 -2498.025618186   0.000000000000 (    0.00)
   CI-PROBLEM SOLVED
   DENSITIES MADE
CI-ITERATION   0: 
 -2497.889800712   0.000000000000 (    0.00)
 -2497.889110681   0.000000000000
 -2497.889023547   0.000000000000
 -2497.888620451   0.000000000000
 -2497.888347354   0.000000000000
 -2497.888048540   0.000000000000
 -2497.887832337   0.000000000000
 -2497.887631257   0.000000000000
 -2497.887579925   0.000000000000
 -2497.866870272   0.000000000000
 -2497.865740415   0.000000000000
 -2497.865271216   0.000000000000
 -2497.855166248   0.000000000000
 -2497.854948289   0.000000000000
 -2497.853893507   0.000000000000
 -2497.853362658   0.000000000000
 -2497.852770178   0.000000000000
 -2497.794998800   0.000000000000
 -2497.794707461   0.000000000000
 -2497.793459162   0.000000000000
 -2497.793217400   0.000000000000
 -2497.792896160   0.000000000000
 -2497.792630952   0.000000000000
 -2497.792264470   0.000000000000
   CI-PROBLEM SOLVED
   DENSITIES MADE
   E(CAS)= -2497.938188092 Eh DE=   -4.738748e-04
   --- Energy gap subspaces: Ext-Act = 0.122   Act-Int = 0.112
   N(occ)=  1.00000 1.00000 1.00000 1.00000 1.00000
   ||g|| =     5.899025e-02 Max(G)=    2.942301e-03 Rot=288,84
   --- Orbital Update [SuperCI(PT)]
   --- Canonicalize Internal Space
   --- Canonicalize External Space
   --- SX_PT (Skipped TA=0 IT=0): ||X|| =      0.014935011 Max(X)(110,104) =      0.002964605 
   --- SFit(Active Orbitals)

MACRO-ITERATION   6: 
   --- Inactive Energy E0 = -2487.40092482 Eh
CI-ITERATION   0: 
 -2498.025918786   0.000000000000 (    0.00)
   CI-PROBLEM SOLVED
   DENSITIES MADE
CI-ITERATION   0: 
 -2497.889953338   0.000000000000 (    0.00)
 -2497.889266491   0.000000000000
 -2497.889202854   0.000000000000
 -2497.888753203   0.000000000000
 -2497.888508524   0.000000000000
 -2497.888219580   0.000000000000
 -2497.888004080   0.000000000000
 -2497.887815040   0.000000000000
 -2497.887765689   0.000000000000
 -2497.866978156   0.000000000000
 -2497.865851655   0.000000000000
 -2497.865434588   0.000000000000
 -2497.855267056   0.000000000000
 -2497.855051733   0.000000000000
 -2497.854046497   0.000000000000
 -2497.853536008   0.000000000000
 -2497.852962885   0.000000000000
 -2497.794988083   0.000000000000
 -2497.794743525   0.000000000000
 -2497.793556815   0.000000000000
 -2497.793322236   0.000000000000
 -2497.793034475   0.000000000000
 -2497.792796897   0.000000000000
 -2497.792408681   0.000000000000
   CI-PROBLEM SOLVED
   DENSITIES MADE
   E(CAS)= -2497.938406645 Eh DE=   -2.185522e-04
   --- Energy gap subspaces: Ext-Act = 0.127   Act-Int = 0.107
   N(occ)=  1.00000 1.00000 1.00000 1.00000 1.00000
   ||g|| =     1.917028e-02 Max(G)=    2.215258e-03 Rot=382,15
   --- Orbital Update [SuperCI(PT)]
   --- Canonicalize Internal Space
   --- Canonicalize External Space
   --- SX_PT (Skipped TA=0 IT=0): ||X|| =      0.005929114 Max(X)(110,104) =     -0.001526287 
   --- SFit(Active Orbitals)

MACRO-ITERATION   7: 
   --- Inactive Energy E0 = -2487.40705249 Eh
CI-ITERATION   0: 
 -2498.025936161   0.000000000000 (    0.00)
   CI-PROBLEM SOLVED
   DENSITIES MADE
CI-ITERATION   0: 
 -2497.889980430   0.000000000000 (    0.00)
 -2497.889300316   0.000000000000
 -2497.889232192   0.000000000000
 -2497.888787937   0.000000000000
 -2497.888551243   0.000000000000
 -2497.888262975   0.000000000000
 -2497.888045130   0.000000000000
 -2497.887859405   0.000000000000
 -2497.887812648   0.000000000000
 -2497.867006795   0.000000000000
 -2497.865895828   0.000000000000
 -2497.865495322   0.000000000000
 -2497.855298356   0.000000000000
 -2497.855087687   0.000000000000
 -2497.854098335   0.000000000000
 -2497.853597302   0.000000000000
 -2497.853044538   0.000000000000
 -2497.795022604   0.000000000000
 -2497.794788405   0.000000000000
 -2497.793633206   0.000000000000
 -2497.793399886   0.000000000000
 -2497.793124097   0.000000000000
 -2497.792891482   0.000000000000
 -2497.792496508   0.000000000000
   CI-PROBLEM SOLVED
   DENSITIES MADE
   E(CAS)= -2497.938441260 Eh DE=   -3.461530e-05
   --- Energy gap subspaces: Ext-Act = 0.126   Act-Int = 0.108
   N(occ)=  1.00000 1.00000 1.00000 1.00000 1.00000
   ||g|| =     1.200807e-02 Max(G)=   -1.048069e-03 Rot=382,15
   --- Orbital Update [SuperCI(PT)]
   --- Canonicalize Internal Space
   --- Canonicalize External Space
   --- SX_PT (Skipped TA=0 IT=0): ||X|| =      0.003090438 Max(X)(110,104) =     -0.000905530 
   --- SFit(Active Orbitals)

MACRO-ITERATION   8: 
   --- Inactive Energy E0 = -2487.40365246 Eh
CI-ITERATION   0: 
 -2498.025944547   0.000000000000 (    0.00)
   CI-PROBLEM SOLVED
   DENSITIES MADE
CI-ITERATION   0: 
 -2497.889993776   0.000000000000 (    0.00)
 -2497.889313687   0.000000000000
 -2497.889243304   0.000000000000
 -2497.888799688   0.000000000000
 -2497.888563592   0.000000000000
 -2497.888273015   0.000000000000
 -2497.888054481   0.000000000000
 -2497.887869430   0.000000000000
 -2497.887823866   0.000000000000
 -2497.867014066   0.000000000000
 -2497.865895008   0.000000000000
 -2497.865501212   0.000000000000
 -2497.855308041   0.000000000000
 -2497.855098870   0.000000000000
 -2497.854111284   0.000000000000
 -2497.853611158   0.000000000000
 -2497.853067194   0.000000000000
 -2497.795029295   0.000000000000
 -2497.794798864   0.000000000000
 -2497.793653900   0.000000000000
 -2497.793419324   0.000000000000
 -2497.793143803   0.000000000000
 -2497.792912950   0.000000000000
 -2497.792513964   0.000000000000
   CI-PROBLEM SOLVED
   DENSITIES MADE
   E(CAS)= -2497.938451727 Eh DE=   -1.046695e-05
   --- Energy gap subspaces: Ext-Act = 0.127   Act-Int = 0.107
   N(occ)=  1.00000 1.00000 1.00000 1.00000 1.00000
   ||g|| =     4.787118e-03 Max(G)=   -7.571410e-04 Rot=382,15
   --- Orbital Update [SuperCI(PT)]
   --- Canonicalize Internal Space
   --- Canonicalize External Space
   --- SX_PT (Skipped TA=0 IT=0): ||X|| =      0.001545009 Max(X)(110,104) =     -0.000792110 
   --- SFit(Active Orbitals)

MACRO-ITERATION   9: 
   --- Inactive Energy E0 = -2487.40701497 Eh
CI-ITERATION   0: 
 -2498.025947765   0.000000000000 (    0.00)
   CI-PROBLEM SOLVED
   DENSITIES MADE
CI-ITERATION   0: 
 -2497.889995007   0.000000000000 (    0.00)
 -2497.889315909   0.000000000000
 -2497.889238594   0.000000000000
 -2497.888803414   0.000000000000
 -2497.888566085   0.000000000000
 -2497.888273197   0.000000000000
 -2497.888053992   0.000000000000
 -2497.887868824   0.000000000000
 -2497.887824323   0.000000000000
 -2497.867009298   0.000000000000
 -2497.865889548   0.000000000000
 -2497.865499939   0.000000000000
 -2497.855305698   0.000000000000
 -2497.855099406   0.000000000000
 -2497.854112774   0.000000000000
 -2497.853615962   0.000000000000
 -2497.853079479   0.000000000000
 -2497.795036211   0.000000000000
 -2497.794804204   0.000000000000
 -2497.793661363   0.000000000000
 -2497.793427179   0.000000000000
 -2497.793147518   0.000000000000
 -2497.792913989   0.000000000000
 -2497.792519208   0.000000000000
   CI-PROBLEM SOLVED
   DENSITIES MADE
   E(CAS)= -2497.938454322 Eh DE=   -2.595326e-06
   --- Energy gap subspaces: Ext-Act = 0.127   Act-Int = 0.108
   N(occ)=  1.00000 1.00000 1.00000 1.00000 1.00000
   ||g|| =     2.917159e-03 Max(G)=    3.636254e-04 Rot=382,15
   --- Orbital Update [SuperCI(PT)]
   --- Canonicalize Internal Space
   --- Canonicalize External Space
   --- SX_PT (Skipped TA=0 IT=0): ||X|| =      0.000822130 Max(X)(110,104) =      0.000403584 
   --- SFit(Active Orbitals)

MACRO-ITERATION  10: 
   --- Inactive Energy E0 = -2487.40620935 Eh
CI-ITERATION   0: 
 -2498.025940767   0.000000000000 (    0.00)
   CI-PROBLEM SOLVED
   DENSITIES MADE
CI-ITERATION   0: 
 -2497.890001831   0.000000000000 (    0.00)
 -2497.889322351   0.000000000000
 -2497.889244027   0.000000000000
 -2497.888809473   0.000000000000
 -2497.888571291   0.000000000000
 -2497.888278055   0.000000000000
 -2497.888058599   0.000000000000
 -2497.887873070   0.000000000000
 -2497.887828756   0.000000000000
 -2497.867013789   0.000000000000
 -2497.865892558   0.000000000000
 -2497.865503813   0.000000000000
 -2497.855313511   0.000000000000
 -2497.855107961   0.000000000000
 -2497.854120794   0.000000000000
 -2497.853623941   0.000000000000
 -2497.853090707   0.000000000000
 -2497.795052827   0.000000000000
 -2497.794818910   0.000000000000
 -2497.793676601   0.000000000000
 -2497.793442449   0.000000000000
 -2497.793160382   0.000000000000
 -2497.792926024   0.000000000000
 -2497.792531699   0.000000000000
   CI-PROBLEM SOLVED
   DENSITIES MADE
   E(CAS)= -2497.938455038 Eh DE=   -7.155213e-07
   --- Energy gap subspaces: Ext-Act = 0.127   Act-Int = 0.107
   N(occ)=  1.00000 1.00000 1.00000 1.00000 1.00000
   ||g|| =     1.064890e-03 Max(G)=   -2.811339e-04 Rot=110,104
   --- Orbital Update [SuperCI(PT)]
   --- Canonicalize Internal Space
   --- Canonicalize External Space
   --- SX_PT (Skipped TA=0 IT=0): ||X|| =      0.000455252 Max(X)(110,104) =     -0.000314561 
   --- SFit(Active Orbitals)

MACRO-ITERATION  11: 
   --- Inactive Energy E0 = -2487.40618584 Eh
CI-ITERATION   0: 
 -2498.025939206   0.000000000000 (    0.00)
   CI-PROBLEM SOLVED
   DENSITIES MADE
CI-ITERATION   0: 
 -2497.890004378   0.000000000000 (    0.00)
 -2497.889324680   0.000000000000
 -2497.889245159   0.000000000000
 -2497.888811219   0.000000000000
 -2497.888572489   0.000000000000
 -2497.888278855   0.000000000000
 -2497.888059595   0.000000000000
 -2497.887873764   0.000000000000
 -2497.887829364   0.000000000000
 -2497.867013019   0.000000000000
 -2497.865890988   0.000000000000
 -2497.865502578   0.000000000000
 -2497.855315434   0.000000000000
 -2497.855110487   0.000000000000
 -2497.854122790   0.000000000000
 -2497.853626440   0.000000000000
 -2497.853095212   0.000000000000
 -2497.795060472   0.000000000000
 -2497.794824545   0.000000000000
 -2497.793681230   0.000000000000
 -2497.793447468   0.000000000000
 -2497.793162791   0.000000000000
 -2497.792927259   0.000000000000
 -2497.792534674   0.000000000000
   CI-PROBLEM SOLVED
   DENSITIES MADE
   E(CAS)= -2497.938455330 Eh DE=   -2.917732e-07
   --- Energy gap subspaces: Ext-Act = 0.127   Act-Int = 0.107
   N(occ)=  1.00000 1.00000 1.00000 1.00000 1.00000
   ||g|| =     6.328090e-04 Max(G)=   -1.115722e-04 Rot=110,104
                     ---- THE CAS-SCF GRADIENT HAS CONVERGED ----
                            --- FINALIZING ORBITALS ---
                    ---- DOING ONE FINAL ITERATION FOR PRINTING ----
   --- Forming Natural Orbitals
   --- Canonicalize Internal Space
   --- Canonicalize External Space

MACRO-ITERATION  12: 
   --- Inactive Energy E0 = -2487.40618584 Eh
   --- All densities will be recomputed
CI-ITERATION   0: 
 -2498.025939206   0.000000000000 (    0.00)
   CI-PROBLEM SOLVED
   DENSITIES MADE
CI-ITERATION   0: 
 -2497.890004379   0.000000000000 (    0.00)
 -2497.889324681   0.000000000000
 -2497.889245160   0.000000000000
 -2497.888811219   0.000000000000
 -2497.888572489   0.000000000000
 -2497.888278855   0.000000000000
 -2497.888059595   0.000000000000
 -2497.887873765   0.000000000000
 -2497.887829364   0.000000000000
 -2497.867013019   0.000000000000
 -2497.865890988   0.000000000000
 -2497.865502578   0.000000000000
 -2497.855315434   0.000000000000
 -2497.855110487   0.000000000000
 -2497.854122790   0.000000000000
 -2497.853626440   0.000000000000
 -2497.853095213   0.000000000000
 -2497.795060473   0.000000000000
 -2497.794824546   0.000000000000
 -2497.793681231   0.000000000000
 -2497.793447469   0.000000000000
 -2497.793162792   0.000000000000
 -2497.792927260   0.000000000000
 -2497.792534675   0.000000000000
   CI-PROBLEM SOLVED
   DENSITIES MADE
   E(CAS)= -2497.938455330 Eh DE=   -5.325091e-10
   --- Energy gap subspaces: Ext-Act = 0.113   Act-Int = 0.088
   N(occ)=  1.00000 1.00000 1.00000 1.00000 1.00000
   ||g|| =     6.328090e-04 Max(G)=   -1.146374e-04 Rot=110,104
--------------
CASSCF RESULTS
--------------

Final CASSCF energy       : -2497.938455330 Eh  -67972.3610 eV

----------------
ORBITAL ENERGIES
----------------

  NO   OCC          E(Eh)            E(eV) 
   0   2.0000    -240.546441     -6545.6014 
   1   2.0000     -29.124622      -792.5213 
   2   2.0000     -24.829521      -675.6456 
   3   2.0000     -24.829291      -675.6393 
   4   2.0000     -24.828755      -675.6248 
   5   2.0000      -4.717986      -128.3829 
   6   2.0000      -4.714242      -128.2810 
   7   2.0000      -4.712259      -128.2271 
   8   2.0000      -4.711803      -128.2147 
   9   2.0000      -4.706593      -128.0729 
  10   2.0000      -4.705580      -128.0454 
  11   2.0000      -4.704757      -128.0229 
  12   2.0000      -4.704710      -128.0217 
  13   2.0000      -4.703587      -127.9911 
  14   2.0000      -4.690750      -127.6418 
  15   2.0000      -3.829613      -104.2091 
  16   2.0000      -2.759928       -75.1015 
  17   2.0000      -2.757304       -75.0301 
  18   2.0000      -2.755534       -74.9819 
  19   2.0000      -2.750800       -74.8531 
  20   2.0000      -2.750321       -74.8400 
  21   2.0000      -2.749748       -74.8244 
  22   2.0000      -2.748884       -74.8009 
  23   2.0000      -2.748518       -74.7910 
  24   2.0000      -2.748000       -74.7769 
  25   2.0000      -2.747355       -74.7593 
  26   2.0000      -2.746511       -74.7364 
  27   2.0000      -2.744617       -74.6848 
  28   2.0000      -2.744324       -74.6769 
  29   2.0000      -2.743363       -74.6507 
  30   2.0000      -2.742535       -74.6282 
  31   2.0000      -2.742194       -74.6189 
  32   2.0000      -2.741628       -74.6035 
  33   2.0000      -2.740685       -74.5778 
  34   2.0000      -2.740340       -74.5684 
  35   2.0000      -2.739705       -74.5512 
  36   2.0000      -2.739344       -74.5413 
  37   2.0000      -2.737569       -74.4930 
  38   2.0000      -2.736804       -74.4722 
  39   2.0000      -2.735959       -74.4492 
  40   2.0000      -2.735316       -74.4317 
  41   2.0000      -2.735075       -74.4252 
  42   2.0000      -2.733738       -74.3888 
  43   2.0000      -2.727885       -74.2295 
  44   2.0000      -2.725088       -74.1534 
  45   2.0000      -2.722249       -74.0761 
  46   2.0000      -2.497834       -67.9695 
  47   2.0000      -2.496586       -67.9356 
  48   2.0000      -2.495976       -67.9190 
  49   2.0000      -0.559413       -15.2224 
  50   2.0000      -0.556057       -15.1311 
  51   2.0000      -0.549358       -14.9488 
  52   2.0000      -0.546232       -14.8637 
  53   2.0000      -0.542976       -14.7751 
  54   2.0000      -0.534069       -14.5328 
  55   2.0000      -0.531739       -14.4694 
  56   2.0000      -0.526187       -14.3183 
  57   2.0000      -0.525044       -14.2872 
  58   2.0000      -0.522970       -14.2307 
  59   2.0000      -0.515261       -14.0210 
  60   2.0000      -0.512703       -13.9514 
  61   2.0000      -0.511567       -13.9205 
  62   2.0000      -0.504669       -13.7327 
  63   2.0000      -0.501077       -13.6350 
  64   2.0000      -0.498494       -13.5647 
  65   2.0000      -0.496721       -13.5165 
  66   2.0000      -0.493055       -13.4167 
  67   2.0000      -0.492132       -13.3916 
  68   2.0000      -0.490232       -13.3399 
  69   2.0000      -0.482470       -13.1287 
  70   2.0000      -0.476954       -12.9786 
  71   2.0000      -0.473692       -12.8898 
  72   2.0000      -0.471989       -12.8435 
  73   2.0000      -0.468838       -12.7577 
  74   2.0000      -0.468158       -12.7392 
  75   2.0000      -0.465651       -12.6710 
  76   2.0000      -0.460024       -12.5179 
  77   2.0000      -0.458044       -12.4640 
  78   2.0000      -0.455556       -12.3963 
  79   2.0000      -0.453463       -12.3393 
  80   2.0000      -0.451831       -12.2950 
  81   2.0000      -0.449885       -12.2420 
  82   2.0000      -0.448931       -12.2160 
  83   2.0000      -0.447333       -12.1725 
  84   2.0000      -0.446579       -12.1520 
  85   2.0000      -0.445021       -12.1096 
  86   2.0000      -0.443497       -12.0682 
  87   2.0000      -0.438015       -11.9190 
  88   2.0000      -0.435441       -11.8490 
  89   2.0000      -0.433366       -11.7925 
  90   2.0000      -0.429016       -11.6741 
  91   2.0000      -0.427724       -11.6390 
  92   2.0000      -0.425381       -11.5752 
  93   2.0000      -0.423422       -11.5219 
  94   2.0000      -0.420016       -11.4292 
  95   2.0000      -0.415244       -11.2994 
  96   2.0000      -0.411282       -11.1916 
  97   2.0000      -0.402894       -10.9633 
  98   2.0000      -0.397251       -10.8097 
  99   2.0000      -0.384041       -10.4503 
 100   2.0000      -0.360919        -9.8211 
 101   2.0000      -0.332505        -9.0479 
 102   2.0000      -0.286104        -7.7853 
 103   2.0000      -0.253515        -6.8985 
 104   2.0000      -0.239561        -6.5188 
 105   1.0000      -0.144602        -3.9348 
 106   1.0000      -0.148003        -4.0274 
 107   1.0000      -0.151242        -4.1155 
 108   1.0000      -0.142576        -3.8797 
 109   1.0000      -0.151963        -4.1351 
 110   0.0000      -0.029209        -0.7948 
 111   0.0000      -0.005691        -0.1549 
 112   0.0000       0.003261         0.0887 
 113   0.0000       0.011678         0.3178 
 114   0.0000       0.021731         0.5913 
 115   0.0000       0.033201         0.9034 
 116   0.0000       0.050278         1.3681 
 117   0.0000       0.059099         1.6082 
 118   0.0000       0.062431         1.6988 
 119   0.0000       0.065531         1.7832 
 120   0.0000       0.076858         2.0914 
 121   0.0000       0.081152         2.2083 
 122   0.0000       0.094834         2.5806 
 123   0.0000       0.100423         2.7326 
 124   0.0000       0.114493         3.1155 
 125   0.0000       0.116248         3.1633 
 126   0.0000       0.124318         3.3829 
 127   0.0000       0.131379         3.5750 
 128   0.0000       0.135950         3.6994 
 129   0.0000       0.138604         3.7716 
 130   0.0000       0.143019         3.8917 
 131   0.0000       0.148178         4.0321 
 132   0.0000       0.152943         4.1618 
 133   0.0000       0.159099         4.3293 
 134   0.0000       0.161940         4.4066 
 135   0.0000       0.165132         4.4935 
 136   0.0000       0.179617         4.8876 
 137   0.0000       0.184783         5.0282 
 138   0.0000       0.189264         5.1501 
 139   0.0000       0.196439         5.3454 
 140   0.0000       0.198522         5.4021 
 141   0.0000       0.201303         5.4777 
 142   0.0000       0.213947         5.8218 
 143   0.0000       0.232231         6.3193 
 144   0.0000       0.256569         6.9816 
 145   0.0000       0.266543         7.2530 
 146   0.0000       0.274444         7.4680 
 147   0.0000       0.292771         7.9667 
 148   0.0000       0.297516         8.0958 
 149   0.0000       0.304937         8.2978 
 150   0.0000       0.316115         8.6019 
 151   0.0000       0.323567         8.8047 
 152   0.0000       0.331288         9.0148 
 153   0.0000       0.347630         9.4595 
 154   0.0000       0.350189         9.5291 
 155   0.0000       0.368531        10.0282 
 156   0.0000       0.372403        10.1336 
 157   0.0000       0.388707        10.5773 
 158   0.0000       0.393810        10.7161 
 159   0.0000       0.396066        10.7775 
 160   0.0000       0.406398        11.0587 
 161   0.0000       0.417736        11.3672 
 162   0.0000       0.426291        11.6000 
 163   0.0000       0.431675        11.7465 
 164   0.0000       0.437542        11.9061 
 165   0.0000       0.443914        12.0795 
 166   0.0000       0.445746        12.1294 
 167   0.0000       0.450447        12.2573 
 168   0.0000       0.456054        12.4099 
 169   0.0000       0.460475        12.5302 
 170   0.0000       0.465886        12.6774 
 171   0.0000       0.470670        12.8076 
 172   0.0000       0.472810        12.8658 
 173   0.0000       0.480539        13.0761 
 174   0.0000       0.488701        13.2982 
 175   0.0000       0.491129        13.3643 
 176   0.0000       0.493350        13.4247 
 177   0.0000       0.500949        13.6315 
 178   0.0000       0.504365        13.7245 
 179   0.0000       0.506568        13.7844 
 180   0.0000       0.513117        13.9626 
 181   0.0000       0.519860        14.1461 
 182   0.0000       0.526964        14.3394 
 183   0.0000       0.536369        14.5953 
 184   0.0000       0.541704        14.7405 
 185   0.0000       0.550584        14.9822 
 186   0.0000       0.554418        15.0865 
 187   0.0000       0.557489        15.1700 
 188   0.0000       0.564464        15.3599 
 189   0.0000       0.570646        15.5281 
 190   0.0000       0.575222        15.6526 
 191   0.0000       0.582747        15.8574 
 192   0.0000       0.591401        16.0928 
 193   0.0000       0.591802        16.1038 
 194   0.0000       0.599959        16.3257 
 195   0.0000       0.601384        16.3645 
 196   0.0000       0.611241        16.6327 
 197   0.0000       0.625640        17.0245 
 198   0.0000       0.632355        17.2073 
 199   0.0000       0.637691        17.3525 
 200   0.0000       0.641822        17.4649 
 201   0.0000       0.645215        17.5572 
 202   0.0000       0.655363        17.8333 
 203   0.0000       0.665435        18.1074 
 204   0.0000       0.674196        18.3458 
 205   0.0000       0.675877        18.3916 
 206   0.0000       0.683158        18.5897 
 207   0.0000       0.693110        18.8605 
 208   0.0000       0.695471        18.9247 
 209   0.0000       0.711478        19.3603 
 210   0.0000       0.713792        19.4233 
 211   0.0000       0.723371        19.6839 
 212   0.0000       0.755493        20.5580 
 213   0.0000       0.760872        20.7044 
 214   0.0000       0.843066        22.9410 
 215   0.0000       0.858170        23.3520 
 216   0.0000       0.873173        23.7603 
 217   0.0000       0.894172        24.3317 
 218   0.0000       0.907847        24.7038 
 219   0.0000       0.919311        25.0157 
 220   0.0000       0.931054        25.3353 
 221   0.0000       0.944001        25.6876 
 222   0.0000       0.960329        26.1319 
 223   0.0000       0.980563        26.6825 
 224   0.0000       0.988801        26.9066 
 225   0.0000       1.008707        27.4483 
 226   0.0000       1.017510        27.6879 
 227   0.0000       1.026417        27.9302 
 228   0.0000       1.049557        28.5599 
 229   0.0000       1.063070        28.9276 
 230   0.0000       1.091626        29.7047 
 231   0.0000       1.102734        30.0069 
 232   0.0000       1.119031        30.4504 
 233   0.0000       1.148587        31.2546 
 234   0.0000       1.152819        31.3698 
 235   0.0000       1.163373        31.6570 
 236   0.0000       1.180553        32.1245 
 237   0.0000       1.199325        32.6353 
 238   0.0000       1.207457        32.8566 
 239   0.0000       1.220813        33.2200 
 240   0.0000       1.237193        33.6657 
 241   0.0000       1.242524        33.8108 
 242   0.0000       1.247438        33.9445 
 243   0.0000       1.290259        35.1097 
 244   0.0000       1.294646        35.2291 
 245   0.0000       1.312500        35.7149 
 246   0.0000       1.331633        36.2356 
 247   0.0000       1.342153        36.5218 
 248   0.0000       1.410847        38.3911 
 249   0.0000       1.569808        42.7166 
 250   0.0000       1.596397        43.4402 
 251   0.0000       1.602197        43.5980 
 252   0.0000       1.623382        44.1745 
 253   0.0000       1.630123        44.3579 
 254   0.0000       1.650452        44.9111 
 255   0.0000       1.657994        45.1163 
 256   0.0000       1.669453        45.4281 
 257   0.0000       1.679439        45.6999 
 258   0.0000       1.686299        45.8865 
 259   0.0000       1.695132        46.1269 
 260   0.0000       1.705113        46.3985 
 261   0.0000       1.706167        46.4272 
 262   0.0000       1.718281        46.7568 
 263   0.0000       1.727134        46.9977 
 264   0.0000       1.736898        47.2634 
 265   0.0000       1.744094        47.4592 
 266   0.0000       1.751576        47.6628 
 267   0.0000       1.757887        47.8345 
 268   0.0000       1.763046        47.9749 
 269   0.0000       1.766027        48.0560 
 270   0.0000       1.770332        48.1732 
 271   0.0000       1.781707        48.4827 
 272   0.0000       1.787820        48.6491 
 273   0.0000       1.790607        48.7249 
 274   0.0000       1.793736        48.8100 
 275   0.0000       1.804392        49.1000 
 276   0.0000       1.807248        49.1777 
 277   0.0000       1.813830        49.3568 
 278   0.0000       1.819489        49.5108 
 279   0.0000       1.825319        49.6694 
 280   0.0000       1.827042        49.7163 
 281   0.0000       1.828581        49.7582 
 282   0.0000       1.838179        50.0194 
 283   0.0000       1.843316        50.1592 
 284   0.0000       1.845545        50.2198 
 285   0.0000       1.849162        50.3183 
 286   0.0000       1.850955        50.3670 
 287   0.0000       1.853578        50.4384 
 288   0.0000       1.853969        50.4491 
 289   0.0000       1.858138        50.5625 
 290   0.0000       1.860863        50.6367 
 291   0.0000       1.861184        50.6454 
 292   0.0000       1.863154        50.6990 
 293   0.0000       1.864022        50.7226 
 294   0.0000       1.869851        50.8812 
 295   0.0000       1.870825        50.9077 
 296   0.0000       1.871521        50.9267 
 297   0.0000       1.875217        51.0273 
 298   0.0000       1.875400        51.0322 
 299   0.0000       1.877938        51.1013 
 300   0.0000       1.879116        51.1333 
 301   0.0000       1.880525        51.1717 
 302   0.0000       1.881551        51.1996 
 303   0.0000       1.883993        51.2660 
 304   0.0000       1.885612        51.3101 
 305   0.0000       1.889296        51.4104 
 306   0.0000       1.891326        51.4656 
 307   0.0000       1.893562        51.5264 
 308   0.0000       1.895564        51.5809 
 309   0.0000       1.897080        51.6222 
 310   0.0000       1.899089        51.6768 
 311   0.0000       1.901051        51.7302 
 312   0.0000       1.904470        51.8233 
 313   0.0000       1.905372        51.8478 
 314   0.0000       1.907596        51.9083 
 315   0.0000       1.910743        51.9940 
 316   0.0000       1.915414        52.1211 
 317   0.0000       1.916810        52.1590 
 318   0.0000       1.917844        52.1872 
 319   0.0000       1.920066        52.2476 
 320   0.0000       1.921373        52.2832 
 321   0.0000       1.924003        52.3548 
 322   0.0000       1.929046        52.4920 
 323   0.0000       1.930369        52.5280 
 324   0.0000       1.931535        52.5597 
 325   0.0000       1.934861        52.6503 
 326   0.0000       1.935585        52.6700 
 327   0.0000       1.938511        52.7496 
 328   0.0000       1.940915        52.8150 
 329   0.0000       1.943031        52.8726 
 330   0.0000       1.943665        52.8898 
 331   0.0000       1.945233        52.9325 
 332   0.0000       1.948471        53.0206 
 333   0.0000       1.954253        53.1779 
 334   0.0000       1.958084        53.2822 
 335   0.0000       1.960960        53.3604 
 336   0.0000       1.964092        53.4457 
 337   0.0000       1.965555        53.4855 
 338   0.0000       1.967179        53.5297 
 339   0.0000       1.971759        53.6543 
 340   0.0000       1.977513        53.8109 
 341   0.0000       1.981841        53.9286 
 342   0.0000       1.984656        54.0052 
 343   0.0000       1.988384        54.1067 
 344   0.0000       1.993247        54.2390 
 345   0.0000       1.999711        54.4149 
 346   0.0000       2.000287        54.4306 
 347   0.0000       2.004499        54.5452 
 348   0.0000       2.017199        54.8908 
 349   0.0000       2.035403        55.3861 
 350   0.0000       2.044456        55.6325 
 351   0.0000       2.051098        55.8132 
 352   0.0000       2.076483        56.5040 
 353   0.0000       2.077854        56.5413 
 354   0.0000       2.097155        57.0665 
 355   0.0000       2.103127        57.2290 
 356   0.0000       2.126615        57.8681 
 357   0.0000       2.151957        58.5577 
 358   0.0000       2.163102        58.8610 
 359   0.0000       2.196155        59.7604 
 360   0.0000       2.203975        59.9732 
 361   0.0000       2.229836        60.6769 
 362   0.0000       2.253158        61.3116 
 363   0.0000       2.266475        61.6739 
 364   0.0000       2.293983        62.4224 
 365   0.0000       2.336857        63.5891 
 366   0.0000       2.341305        63.7102 
 367   0.0000       2.383076        64.8468 
 368   0.0000       2.408764        65.5458 
 369   0.0000       2.414391        65.6989 
 370   0.0000       2.494148        67.8692 
[...]
      dz2     :     0.784957  d :     3.906194
      dxz     :     0.776298
      dyz     :     0.784580
      dx2y2   :     0.778484
      dxy     :     0.781874
      f0      :     0.000001  f :     0.000004
      f+1     :     0.000001
      f-1     :     0.000001
      f+2     :     0.000000
      f-2     :     0.000001
      f+3     :     0.000000
      f-3     :     0.000000


                     *******************************
                     * LOEWDIN POPULATION ANALYSIS *
                     *******************************

-----------------------------------------
LOEWDIN ATOMIC CHARGES AND SPIN DENSITIES
-----------------------------------------
   0 Au:   -0.082655    0.013219
   1 Au:    0.021568    0.016521
   2 Au:    0.148783    0.004238
   3 Au:   -0.086154    0.011974
   4 Au:   -0.062404    0.015556
   5 Au:    0.085249    0.016447
   6 Au:   -0.083071    0.015494
   7 Au:    0.060060    0.011081
   8 Au:   -0.153062    0.013798
   9 Au:    0.126556    0.003678
  10 Mn:    0.025132    3.877995

--------------------------------------------------
LOEWDIN REDUCED ORBITAL CHARGES AND SPIN DENSITIES
--------------------------------------------------
CHARGE
  0 Aus       :     2.501107  s :     2.501107
      pz      :     2.345129  p :     6.594679
      px      :     2.102644
      py      :     2.146906
      dz2     :     2.002970  d :     9.981677
      dxz     :     1.992721
      dyz     :     1.984090
      dx2y2   :     1.995366
      dxy     :     2.006530
      f0      :     0.000968  f :     0.005192
      f+1     :     0.001086
      f-1     :     0.001157
      f+2     :     0.000532
      f-2     :     0.000643
      f+3     :     0.000572
      f-3     :     0.000234
  1 Aus       :     2.599997  s :     2.599997
      pz      :     2.309534  p :     6.424010
      px      :     2.061652
      py      :     2.052824
      dz2     :     1.990819  d :     9.950736
      dxz     :     1.989633
      dyz     :     2.000717
      dx2y2   :     1.984037
      dxy     :     1.985531
      f0      :     0.000595  f :     0.003690
      f+1     :     0.000738
      f-1     :     0.000623
      f+2     :     0.000563
      f-2     :     0.000625
      f+3     :     0.000232
      f-3     :     0.000314
  2 Aus       :     2.724273  s :     2.724273
      pz      :     2.078680  p :     6.168677
      px      :     2.050353
      py      :     2.039645
      dz2     :     1.990936  d :     9.955096
      dxz     :     1.992838
      dyz     :     1.986434
      dx2y2   :     1.993784
      dxy     :     1.991104
      f0      :     0.000535  f :     0.003170
      f+1     :     0.000482
      f-1     :     0.000727
      f+2     :     0.000492
      f-2     :     0.000561
      f+3     :     0.000174
      f-3     :     0.000200
  3 Aus       :     2.538369  s :     2.538369
      pz      :     2.171131  p :     6.559771
      px      :     2.270051
      py      :     2.118590
      dz2     :     1.989986  d :     9.983322
      dxz     :     1.994634
      dyz     :     1.994880
      dx2y2   :     2.001105
      dxy     :     2.002718
      f0      :     0.000720  f :     0.004692
      f+1     :     0.000893
      f-1     :     0.000428
      f+2     :     0.000751
      f-2     :     0.000883
      f+3     :     0.000538
      f-3     :     0.000479
  4 Aus       :     2.585648  s :     2.585648
      pz      :     2.264107  p :     6.523453
      px      :     2.096421
      py      :     2.162926
      dz2     :     1.990908  d :     9.948705
      dxz     :     1.983355
      dyz     :     1.983840
      dx2y2   :     1.994494
      dxy     :     1.996108
      f0      :     0.000611  f :     0.004597
      f+1     :     0.000610
      f-1     :     0.001259
      f+2     :     0.000733
      f-2     :     0.000668
      f+3     :     0.000464
      f-3     :     0.000252
  5 Aus       :     2.718694  s :     2.718694
      pz      :     2.115653  p :     6.254260
      px      :     2.055950
      py      :     2.082657
      dz2     :     1.983654  d :     9.938552
      dxz     :     1.992782
      dyz     :     1.991992
      dx2y2   :     1.982040
      dxy     :     1.988084
      f0      :     0.000653  f :     0.003245
      f+1     :     0.000609
      f-1     :     0.000567
      f+2     :     0.000338
      f-2     :     0.000469
      f+3     :     0.000337
      f-3     :     0.000272
  6 Aus       :     2.594215  s :     2.594215
      pz      :     2.271035  p :     6.549396
      px      :     2.093681
      py      :     2.184680
      dz2     :     1.981424  d :     9.934638
      dxz     :     2.000229
      dyz     :     1.987674
      dx2y2   :     1.987941
      dxy     :     1.977370
      f0      :     0.000596  f :     0.004822
      f+1     :     0.000529
      f-1     :     0.001305
      f+2     :     0.000903
      f-2     :     0.000767
      f+3     :     0.000404
      f-3     :     0.000318
  7 Aus       :     2.653687  s :     2.653687
      pz      :     2.102659  p :     6.320581
      px      :     2.064232
      py      :     2.153690
      dz2     :     1.995967  d :     9.961924
      dxz     :     1.989317
      dyz     :     2.001651
      dx2y2   :     1.985655
      dxy     :     1.989335
      f0      :     0.000503  f :     0.003747
      f+1     :     0.000297
      f-1     :     0.000687
      f+2     :     0.000371
      f-2     :     0.000599
      f+3     :     0.000714
      f-3     :     0.000576
  8 Aus       :     2.545957  s :     2.545957
      pz      :     2.103845  p :     6.635448
      px      :     2.222855
      py      :     2.308748
      dz2     :     1.997022  d :     9.966137
      dxz     :     2.001095
      dyz     :     1.985909
      dx2y2   :     1.994766
      dxy     :     1.987345
      f0      :     0.000490  f :     0.005521
      f+1     :     0.000633
      f-1     :     0.000843
      f+2     :     0.000543
      f-2     :     0.000688
      f+3     :     0.001410
      f-3     :     0.000914
  9 Aus       :     2.792616  s :     2.792616
      pz      :     2.038184  p :     6.124717
      px      :     2.028867
      py      :     2.057666
      dz2     :     1.991581  d :     9.952956
      dxz     :     1.992126
      dyz     :     1.992448
      dx2y2   :     1.992339
      dxy     :     1.984463
      f0      :     0.000369  f :     0.003155
      f+1     :     0.000306
      f-1     :     0.000564
      f+2     :     0.000317
      f-2     :     0.000540
      f+3     :     0.000566
      f-3     :     0.000492
 10 Mns       :     6.336627  s :     6.336627
      pz      :     4.197179  p :    12.687468
      px      :     4.237940
      py      :     4.252349
      dz2     :     1.161287  d :     5.949945
      dxz     :     1.249615
      dyz     :     1.161687
      dx2y2   :     1.222192
      dxy     :     1.155164
      f0      :     0.000096  f :     0.000829
      f+1     :     0.000121
      f-1     :     0.000108
      f+2     :     0.000139
      f-2     :     0.000104
      f+3     :     0.000129
      f-3     :     0.000132

SPIN
  0 Aus       :     0.001027  s :     0.001027
      pz      :     0.001945  p :     0.003342
      px      :     0.000755
      py      :     0.000643
      dz2     :     0.001386  d :     0.008692
      dxz     :     0.000920
      dyz     :     0.003662
      dx2y2   :     0.001418
      dxy     :     0.001306
      f0      :     0.000020  f :     0.000158
      f+1     :     0.000001
      f-1     :     0.000032
      f+2     :     0.000057
      f-2     :     0.000023
      f+3     :     0.000012
      f-3     :     0.000012
  1 Aus       :     0.001901  s :     0.001901
      pz      :     0.001450  p :     0.002672
      px      :     0.000709
      py      :     0.000513
      dz2     :     0.001848  d :     0.011678
      dxz     :     0.002520
      dyz     :     0.000488
      dx2y2   :     0.003511
      dxy     :     0.003310
      f0      :     0.000022  f :     0.000271
      f+1     :     0.000053
      f-1     :     0.000011
      f+2     :     0.000026
      f-2     :     0.000022
      f+3     :     0.000062
      f-3     :     0.000073
  2 Aus       :     0.002539  s :     0.002539
      pz      :     0.000169  p :     0.001131
      px      :     0.000606
      py      :     0.000355
      dz2     :     0.000151  d :     0.000565
      dxz     :     0.000128
      dyz     :     0.000140
      dx2y2   :     0.000059
      dxy     :     0.000088
      f0      :     0.000001  f :     0.000004
      f+1     :     0.000001
      f-1     :     0.000001
      f+2     :     0.000000
      f-2     :     0.000001
      f+3     :     0.000000
      f-3     :     0.000000
  3 Aus       :     0.001876  s :     0.001876
      pz      :     0.000757  p :     0.002409
      px      :     0.001165
      py      :     0.000487
      dz2     :     0.002364  d :     0.007568
      dxz     :     0.003093
      dyz     :     0.001734
      dx2y2   :     0.000149
      dxy     :     0.000228
      f0      :     0.000032  f :     0.000120
      f+1     :     0.000059
      f-1     :     0.000018
      f+2     :     0.000006
      f-2     :     0.000006
      f+3     :     0.000000
      f-3     :     0.000000
  4 Aus       :     0.001525  s :     0.001525
      pz      :     0.001375  p :     0.002911
      px      :     0.000972
      py      :     0.000564
      dz2     :     0.001890  d :     0.010908
      dxz     :     0.002668
      dyz     :     0.002727
      dx2y2   :     0.002096
      dxy     :     0.001527
      f0      :     0.000022  f :     0.000212
      f+1     :     0.000037
      f-1     :     0.000020
      f+2     :     0.000056
      f-2     :     0.000047
      f+3     :     0.000017
      f-3     :     0.000014
  5 Aus       :     0.002279  s :     0.002279
      pz      :     0.000732  p :     0.002809
      px      :     0.000839
      py      :     0.001238
      dz2     :     0.001913  d :     0.011119
      dxz     :     0.000406
      dyz     :     0.002542
      dx2y2   :     0.003144
      dxy     :     0.003114
      f0      :     0.000028  f :     0.000239
      f+1     :     0.000008
      f-1     :     0.000038
      f+2     :     0.000041
      f-2     :     0.000012
      f+3     :     0.000049
      f-3     :     0.000064
  6 Aus       :     0.000788  s :     0.000788
      pz      :     0.000756  p :     0.003065
      px      :     0.000616
      py      :     0.001693
      dz2     :     0.001616  d :     0.011428
      dxz     :     0.000898
      dyz     :     0.002348
      dx2y2   :     0.002829
      dxy     :     0.003737
      f0      :     0.000016  f :     0.000213
      f+1     :     0.000017
      f-1     :     0.000037
      f+2     :     0.000003
      f-2     :     0.000027
      f+3     :     0.000067
      f-3     :     0.000047
  7 Aus       :     0.002486  s :     0.002486
      pz      :     0.000897  p :     0.002248
      px      :     0.000855
      py      :     0.000496
      dz2     :     0.001457  d :     0.006250
      dxz     :     0.001978
      dyz     :     0.000624
      dx2y2   :     0.001184
      dxy     :     0.001008
      f0      :     0.000006  f :     0.000098
      f+1     :     0.000031
      f-1     :     0.000004
      f+2     :     0.000030
      f-2     :     0.000010
      f+3     :     0.000011
      f-3     :     0.000005
  8 Aus       :     0.000521  s :     0.000521
      pz      :     0.000950  p :     0.003761
      px      :     0.000729
      py      :     0.002082
      dz2     :     0.002065  d :     0.009367
      dxz     :     0.001492
      dyz     :     0.002437
      dx2y2   :     0.001026
      dxy     :     0.002347
      f0      :     0.000013  f :     0.000149
      f+1     :     0.000012
      f-1     :     0.000039
      f+2     :     0.000027
      f-2     :     0.000035
      f+3     :     0.000016
      f-3     :     0.000007
  9 Aus       :     0.002609  s :     0.002609
      pz      :     0.000206  p :     0.000659
      px      :     0.000292
      py      :     0.000161
      dz2     :     0.000052  d :     0.000406
      dxz     :     0.000058
      dyz     :     0.000142
      dx2y2   :     0.000080
      dxy     :     0.000074
      f0      :     0.000001  f :     0.000004
      f+1     :     0.000000
      f-1     :     0.000000
      f+2     :     0.000001
      f-2     :     0.000001
      f+3     :     0.000001
      f-3     :     0.000000
 10 Mns       :     0.001428  s :     0.001428
      pz      :     0.001572  p :     0.005826
      px      :     0.002840
      py      :     0.001414
      dz2     :     0.778027  d :     3.870735
      dxz     :     0.770097
      dyz     :     0.777279
      dx2y2   :     0.770965
      dxy     :     0.774367
      f0      :     0.000001  f :     0.000005
      f+1     :     0.000001
      f-1     :     0.000001
      f+2     :     0.000001
      f-2     :     0.000001
      f+3     :     0.000000
      f-3     :     0.000001


                      *****************************
                      * MAYER POPULATION ANALYSIS *
                      *****************************

  NA   - Mulliken gross atomic population
  ZA   - Total nuclear charge
  QA   - Mulliken gross atomic charge
  VA   - Mayer's total valence
  BVA  - Mayer's bonded valence
  FA   - Mayer's free valence

  ATOM       NA         ZA         QA         VA         BVA        FA
  0 Au    19.0591    19.0000    -0.0591     1.8307     1.8267     0.0039
  1 Au    18.8171    19.0000     0.1829     1.2888     1.2836     0.0053
  2 Au    18.6371    19.0000     0.3629     1.0935     1.0920     0.0016
  3 Au    19.1120    19.0000    -0.1120     1.7354     1.7315     0.0038
  4 Au    18.8600    19.0000     0.1400     1.5232     1.5184     0.0048
  5 Au    18.8171    19.0000     0.1829     1.1799     1.1747     0.0053
  6 Au    19.2766    19.0000    -0.2766     1.9502     1.9454     0.0048
  7 Au    18.7206    19.0000     0.2794     1.1775     1.1741     0.0034
  8 Au    19.3890    19.0000    -0.3890     2.0418     2.0375     0.0043
  9 Au    18.5822    19.0000     0.4178     1.0652     1.0639     0.0013
 10 Mn    25.7292    25.0000    -0.7292     8.4273     3.5996     4.8277

  Mayer bond orders larger than 0.100000
B(  0-Au,  2-Au) :   0.4120 B(  0-Au,  3-Au) :   0.2584 B(  0-Au,  4-Au) :   0.1387 
B(  0-Au,  5-Au) :   0.5337 B(  0-Au, 10-Mn) :   0.3996 B(  1-Au,  3-Au) :   0.6243 
B(  1-Au, 10-Mn) :   0.4400 B(  2-Au,  3-Au) :   0.2839 B(  2-Au,  4-Au) :   0.2431 
B(  3-Au,  4-Au) :   0.1140 B(  3-Au, 10-Mn) :   0.3671 B(  4-Au,  6-Au) :   0.4864 
B(  4-Au, 10-Mn) :   0.4565 B(  5-Au, 10-Mn) :   0.5187 B(  6-Au,  8-Au) :   0.3852 
B(  6-Au,  9-Au) :   0.4002 B(  6-Au, 10-Mn) :   0.6057 B(  7-Au,  8-Au) :   0.5658 
B(  7-Au, 10-Mn) :   0.3606 B(  8-Au,  9-Au) :   0.5553 B(  8-Au, 10-Mn) :   0.3772 



-------------------------------------------------------------
 Forming the transition density       ... done in 0.023327 sec
-------------------------------------------------------------



==========================================
CASSCF UV, CD spectra and dipole moments
==========================================
-------------------
ABSORPTION SPECTRUM
-------------------

Center of mass           = ( 11.1765, 12.0272, 14.5382)
Nuclear contribution to the dipole moment =    -2.906963,  -13.441149,   13.476430 au

Calculating the Dipole integrals                  ... done
Transforming integrals                            ... done
Calculating the Linear Momentum integrals         ... done
Transforming integrals                            ... done
Calculating the Angular Momentum integrals        ... done
Transforming integrals                            ... done

------------------------------------------------------------------------------
                                 DIPOLE MOMENTS
------------------------------------------------------------------------------
  Root  Block           TX        TY        TZ           |T|
                      (Debye)   (Debye)   (Debye)      (Debye)
------------------------------------------------------------------------------
    0    0            0.47039  -1.03546   0.09691      1.14142

--------------
CASSCF TIMINGS
--------------

Total time                       ...      139.0 sec
Sum of individual times          ...      135.1 sec ( 97.2%)

Calculation of AO operators
   F(Core) operator              ...       65.7 sec ( 47.3%)
   G(Act) operator               ...       60.2 sec ( 43.3%)
   J(AO) operators               ...        0.0 sec (  0.0%)
Calculation of MO transformed quantities
   J(MO) operators               ...        6.8 sec (  4.9%)
   (pq|rs) integrals             ...        0.0 sec (  0.0%)
   AO->MO one electron integrals ...        0.5 sec (  0.4%)
Configuration interaction steps
   CI-setup phase                ...        0.0 sec (  0.0%)
   CI-solution phase             ...        0.2 sec (  0.2%)
   Generation of densities       ...        0.0 sec (  0.0%)
Orbital improvement steps
   Orbital gradient              ...        0.1 sec (  0.1%)
   O(1) converger                ...        1.5 sec (  1.1%)
Properties                       ...        0.0 sec (  0.0%)
   SOC integral calculation      ...        0.0 sec (  0.0%)
   SSC RMEs (incl. integrals)    ...        0.0 sec (  0.0%)
   SOC RMEs                      ...        0.0 sec (  0.0%)

Maximum memory used throughout the entire CASSCF-calculation: 217.6 MB

-------------------------   --------------------
FINAL SINGLE POINT ENERGY     -2497.938455330121
-------------------------   --------------------


                            ***************************************
                            *     ORCA property calculations      *
                            ***************************************

                                    ---------------------
                                    Active property flags
                                    ---------------------
   (+) Dipole Moment


------------------------------------------------------------------------------
                       ORCA ELECTRIC PROPERTIES CALCULATION
------------------------------------------------------------------------------

Dipole Moment Calculation                       ... on
Quadrupole Moment Calculation                   ... off
Polarizability Calculation                      ... off
GBWName                                         ... casscf.gbw
Electron density                                ... casscf.scfp
The origin for moment calculation is the CENTER OF MASS  = (11.176506, 12.027171 14.538194)

-------------
DIPOLE MOMENT
-------------
                                X             Y             Z
Electronic contribution:      3.09203      13.03378     -13.43830
Nuclear contribution   :     -2.90696     -13.44115      13.47643
                        -----------------------------------------
Total Dipole Moment    :      0.18506      -0.40737       0.03813
                        -----------------------------------------
Magnitude (a.u.)       :      0.44906
Magnitude (Debye)      :      1.14142



--------------------
Rotational spectrum 
--------------------
 
Rotational constants in cm-1:     0.002112     0.001296     0.001018 
Rotational constants in MHz :    63.302758    38.851175    30.531471 

 Dipole components along the rotational axes: 
x,y,z [a.u.] :    -0.188968    -0.400059     0.076796 
x,y,z [Debye]:    -0.480319    -1.016870     0.195200 

 

Timings for individual modules:

Sum of individual times         ...      151.476 sec (=   2.525 min)
GTO integral calculation        ...        5.653 sec (=   0.094 min)   3.7 %
SCF iterations                  ...        2.581 sec (=   0.043 min)   1.7 %
CASSCF iterations               ...      143.243 sec (=   2.387 min)  94.6 %
                             ****ORCA TERMINATED NORMALLY****
TOTAL RUN TIME: 0 days 0 hours 2 minutes 32 seconds 305 msec
