
                                 *****************
                                 * O   R   C   A *
                                 *****************

                                            #,                                       
                                            ###                                      
                                            ####                                     
                                            #####                                    
                                            ######                                   
                                           ########,                                 
                                     ,,################,,,,,                         
                               ,,#################################,,                 
                          ,,##########################################,,             
                       ,#########################################, ''#####,          
                    ,#############################################,,   '####,        
                  ,##################################################,,,,####,       
                ,###########''''           ''''###############################       
              ,#####''   ,,,,##########,,,,          '''####'''          '####       
            ,##' ,,,,###########################,,,                        '##       
           ' ,,###''''                  '''############,,,                           
         ,,##''                                '''############,,,,        ,,,,,,###''
      ,#''                                            '''#######################'''  
     '                                                          ''''####''''         
             ,#######,   #######,   ,#######,      ##                                
            ,#'     '#,  ##    ##  ,#'     '#,    #''#        ######   ,####,        
            ##       ##  ##   ,#'  ##            #'  '#       #        #'  '#        
            ##       ##  #######   ##           ,######,      #####,   #    #        
            '#,     ,#'  ##    ##  '#,     ,#' ,#      #,         ##   #,  ,#        
             '#######'   ##     ##  '#######'  #'      '#     #####' # '####'        



                  #######################################################
                  #                        -***-                        #
                  #          Department of theory and spectroscopy      #
                  #    Directorship and core code : Frank Neese         #
                  #        Max Planck Institute fuer Kohlenforschung    #
                  #                Kaiser Wilhelm Platz 1               #
                  #                 D-45470 Muelheim/Ruhr               #
                  #                      Germany                        #
                  #                                                     #
                  #                  All rights reserved                #
                  #                        -***-                        #
                  #######################################################


                         Program Version 5.0.3 -  RELEASE  -


 With contributions from (in alphabetic order):
   Daniel Aravena         : Magnetic Suceptibility
   Michael Atanasov       : Ab Initio Ligand Field Theory (pilot matlab implementation)
   Alexander A. Auer      : GIAO ZORA, VPT2 properties, NMR spectrum
   Ute Becker             : Parallelization
   Giovanni Bistoni       : ED, misc. LED, open-shell LED, HFLD
   Martin Brehm           : Molecular dynamics
   Dmytro Bykov           : SCF Hessian
   Vijay G. Chilkuri      : MRCI spin determinant printing, contributions to CSF-ICE
   Dipayan Datta          : RHF DLPNO-CCSD density
   Achintya Kumar Dutta   : EOM-CC, STEOM-CC
   Dmitry Ganyushin       : Spin-Orbit,Spin-Spin,Magnetic field MRCI
   Miquel Garcia          : C-PCM and meta-GGA Hessian, CC/C-PCM, Gaussian charge scheme
   Yang Guo               : DLPNO-NEVPT2, F12-NEVPT2, CIM, IAO-localization
   Andreas Hansen         : Spin unrestricted coupled pair/coupled cluster methods
   Benjamin Helmich-Paris : MC-RPA, TRAH-SCF, COSX integrals
   Lee Huntington         : MR-EOM, pCC
   Robert Izsak           : Overlap fitted RIJCOSX, COSX-SCS-MP3, EOM
   Marcus Kettner         : VPT2
   Christian Kollmar      : KDIIS, OOCD, Brueckner-CCSD(T), CCSD density, CASPT2, CASPT2-K
   Simone Kossmann        : Meta GGA functionals, TD-DFT gradient, OOMP2, MP2 Hessian
   Martin Krupicka        : Initial AUTO-CI
   Lucas Lang             : DCDCAS
   Marvin Lechner         : AUTO-CI (C++ implementation), FIC-MRCC
   Dagmar Lenk            : GEPOL surface, SMD
   Dimitrios Liakos       : Extrapolation schemes; Compound Job, initial MDCI parallelization
   Dimitrios Manganas     : Further ROCIS development; embedding schemes
   Dimitrios Pantazis     : SARC Basis sets
   Anastasios Papadopoulos: AUTO-CI, single reference methods and gradients
   Taras Petrenko         : DFT Hessian,TD-DFT gradient, ASA, ECA, R-Raman, ABS, FL, XAS/XES, NRVS
   Peter Pinski           : DLPNO-MP2, DLPNO-MP2 Gradient
   Christoph Reimann      : Effective Core Potentials
   Marius Retegan         : Local ZFS, SOC
   Christoph Riplinger    : Optimizer, TS searches, QM/MM, DLPNO-CCSD(T), (RO)-DLPNO pert. Triples
   Tobias Risthaus        : Range-separated hybrids, TD-DFT gradient, RPA, STAB
   Michael Roemelt        : Original ROCIS implementation
   Masaaki Saitow         : Open-shell DLPNO-CCSD energy and density
   Barbara Sandhoefer     : DKH picture change effects
   Avijit Sen             : IP-ROCIS
   Kantharuban Sivalingam : CASSCF convergence, NEVPT2, FIC-MRCI
   Bernardo de Souza      : ESD, SOC TD-DFT
   Georgi Stoychev        : AutoAux, RI-MP2 NMR, DLPNO-MP2 response
   Willem Van den Heuvel  : Paramagnetic NMR
   Boris Wezisla          : Elementary symmetry handling
   Frank Wennmohs         : Technical directorship


 We gratefully acknowledge several colleagues who have allowed us to
 interface, adapt or use parts of their codes:
   Stefan Grimme, W. Hujo, H. Kruse, P. Pracht,  : VdW corrections, initial TS optimization,
                  C. Bannwarth, S. Ehlert          DFT functionals, gCP, sTDA/sTD-DF
   Ed Valeev, F. Pavosevic, A. Kumar             : LibInt (2-el integral package), F12 methods
   Garnet Chan, S. Sharma, J. Yang, R. Olivares  : DMRG
   Ulf Ekstrom                                   : XCFun DFT Library
   Mihaly Kallay                                 : mrcc  (arbitrary order and MRCC methods)
   Jiri Pittner, Ondrej Demel                    : Mk-CCSD
   Frank Weinhold                                : gennbo (NPA and NBO analysis)
   Christopher J. Cramer and Donald G. Truhlar   : smd solvation model
   Lars Goerigk                                  : TD-DFT with DH, B97 family of functionals
   V. Asgeirsson, H. Jonsson                     : NEB implementation
   FAccTs GmbH                                   : IRC, NEB, NEB-TS, DLPNO-Multilevel, CI-OPT
                                                   MM, QMMM, 2- and 3-layer-ONIOM, Crystal-QMMM,
                                                   LR-CPCM, SF, NACMEs, symmetry and pop. for TD-DFT,
                                                   nearIR, NL-DFT gradient (VV10), updates on ESD,
                                                   ML-optimized integration grids
   S Lehtola, MJT Oliveira, MAL Marques          : LibXC Library
   Liviu Ungur et al                             : ANISO software


 Your calculation uses the libint2 library for the computation of 2-el integrals
 For citations please refer to: http://libint.valeyev.net

 Your ORCA version has been built with support for libXC version: 5.1.0
 For citations please refer to: https://tddft.org/programs/libxc/

 This ORCA versions uses:
   CBLAS   interface :  Fast vector & matrix operations
   LAPACKE interface :  Fast linear algebra routines
   SCALAPACK package :  Parallel linear algebra routines
   Shared memory     :  Shared parallel matrices
   BLAS/LAPACK       :  OpenBLAS 0.3.15  USE64BITINT DYNAMIC_ARCH NO_AFFINITY Haswell SINGLE_THREADED
        Core in use  :  Haswell
   Copyright (c) 2011-2014, The OpenBLAS Project




***************************************
The coordinates will be read from file: pbe.xyz
***************************************


================================================================================

cite the ECPs for Au [Def2-ECP] as follows:
Ce-Yb(ecp-28): M. Dolg, H. Stoll, H.Preuss, J. Chem. Phys., 1989, 90, 1730-1734.
Y-Cd(ecp-28), Hf-Hg(ecp-46): D. Andrae,U. Haeussermann, M. Dolg, H. Stoll, H. Preuss, Theor. Chim. Acta, 1990, 77, 123-141.
In-Sb(ecp-28), Tl-Bi(ecp-46): B. Metz, H. Stoll, M. Dolg, J. Chem. Phys., 2000, 113, 2563-2569.
Te-Xe(ecp-28), Po-Rn(ecp-46): K. A. Peterson, D. Figgen, E. Goll, H. Stoll, M. Dolg, J. Chem. Phys., 2003, 119, 11113-11123.
Rb(ecp-28), Cs(ecp-46): T. Leininger, A. Nicklass, W. Kuechle, H. Stoll, M. Dolg, A. Bergner, Chem. Phys. Lett., 1996, 255, 274-280.
Sr(ecp-28), Ba(ecp-46): M. Kaupp, P. V. Schleyer, H. Stoll and H. Preuss, J. Chem. Phys., 1991, 94, 1360-1366.
La(ecp-46): M. Dolg, H. Stoll, A. Savin, H. Preuss, Theor. Chim. Acta, 1989, 75, 173-194.
Lu(ecp-28): X. Cao, M. Dolg, J. Chem. Phys., 2001, 115, 7348-7355.

ECP parameters for Au [Def2-ECP] have been obtained from:
TURBOMOLE (7.0.2)

----- Orbital basis set information -----
Your calculation utilizes the basis: def2-TZVP
   F. Weigend and R. Ahlrichs, Phys. Chem. Chem. Phys. 7, 3297 (2005).

----- AuxJ basis set information -----
Your calculation utilizes the auxiliary basis: def2/J
   F. Weigend, Phys. Chem. Chem. Phys. 8, 1057 (2006).

================================================================================
                                        WARNINGS
                       Please study these warnings very carefully!
================================================================================


WARNING: your system is open-shell and RHF/RKS was chosen
  ===> : WILL SWITCH to UHF/UKS


INFO   : the flag for use of the SHARK integral package has been found!



***************************************
The coordinates will be read from file: pbe.xyz
***************************************


================================================================================

cite the ECPs for Au [Def2-ECP] as follows:
Ce-Yb(ecp-28): M. Dolg, H. Stoll, H.Preuss, J. Chem. Phys., 1989, 90, 1730-1734.
Y-Cd(ecp-28), Hf-Hg(ecp-46): D. Andrae,U. Haeussermann, M. Dolg, H. Stoll, H. Preuss, Theor. Chim. Acta, 1990, 77, 123-141.
In-Sb(ecp-28), Tl-Bi(ecp-46): B. Metz, H. Stoll, M. Dolg, J. Chem. Phys., 2000, 113, 2563-2569.
Te-Xe(ecp-28), Po-Rn(ecp-46): K. A. Peterson, D. Figgen, E. Goll, H. Stoll, M. Dolg, J. Chem. Phys., 2003, 119, 11113-11123.
Rb(ecp-28), Cs(ecp-46): T. Leininger, A. Nicklass, W. Kuechle, H. Stoll, M. Dolg, A. Bergner, Chem. Phys. Lett., 1996, 255, 274-280.
Sr(ecp-28), Ba(ecp-46): M. Kaupp, P. V. Schleyer, H. Stoll and H. Preuss, J. Chem. Phys., 1991, 94, 1360-1366.
La(ecp-46): M. Dolg, H. Stoll, A. Savin, H. Preuss, Theor. Chim. Acta, 1989, 75, 173-194.
Lu(ecp-28): X. Cao, M. Dolg, J. Chem. Phys., 2001, 115, 7348-7355.

ECP parameters for Au [Def2-ECP] have been obtained from:
TURBOMOLE (7.0.2)

----- Orbital basis set information -----
Your calculation utilizes the basis: def2-TZVP
   F. Weigend and R. Ahlrichs, Phys. Chem. Chem. Phys. 7, 3297 (2005).

----- AuxJ basis set information -----
Your calculation utilizes the auxiliary basis: def2/J
   F. Weigend, Phys. Chem. Chem. Phys. 8, 1057 (2006).

================================================================================
                                        WARNINGS
                       Please study these warnings very carefully!
================================================================================


INFO   : the flag for use of the SHARK integral package has been found!

================================================================================
                                       INPUT FILE
================================================================================
NAME = pbeSP.inp
|  1> !PBE def2-TZVP VERYSLOWCONV
|  2> 
|  3> %scf
|  4>   AutoTRAHIter 200
|  5>   maxiter 400
|  6> end
|  7> 
|  8> 
|  9> %pal nprocs 6 end 
| 10> 
| 11> *xyzfile 0 5 pbe.xyz
| 12> 
| 13> $new_job
| 14> 
| 15> !PBE def2-TZVP VERYSLOWCONV
| 16> 
| 17> %scf
| 18>   AutoTRAHIter 200
| 19>   maxiter 400
| 20> end
| 21>  
| 22> 
| 23> %pal nprocs 6 end 
| 24> 
| 25> *xyzfile 0 3 pbe.xyz
| 26> 
| 27> 
| 28> 
| 29> 
| 30> 
| 31>                          ****END OF INPUT****
================================================================================


                 $$$$$$$$$$$$$$$$$$$$$$$$$$$$$$$$$$$$$$$$$$$$$$ 
                 $ THERE ARE  2 JOBS TO BE PROCESSED THIS RUN $
                 $$$$$$$$$$$$$$$$$$$$$$$$$$$$$$$$$$$$$$$$$$$$$$ 




                 $$$$$$$$$$$$$$$$  JOB NUMBER  1 $$$$$$$$$$$$$$


                       ****************************
                       * Single Point Calculation *
                       ****************************

---------------------------------
CARTESIAN COORDINATES (ANGSTROEM)
---------------------------------
  Au     7.954869    8.933313   10.802903
  Au     9.548569    6.908858    9.560746
  Au     6.799053   11.211120    6.715001
  Au     8.781465   10.528479    8.657953
  Au     6.870052    6.397393   10.036346
  Au     5.950448    9.991148    9.161575
  Au     5.392492    8.811109    6.708986
  Au     6.024995    6.133859    7.485314
  Au     8.874258    9.466716    6.090414
  Au     6.645180    9.768005    4.327399
  Au     9.525045    6.792965    6.862911
  Au     7.281990    7.234965    5.218692
  Cr     7.626051    8.156590    8.128798

----------------------------
CARTESIAN COORDINATES (A.U.)
----------------------------
  NO LB      ZA    FRAG     MASS         X           Y           Z
   0 Au   19.0000*   0   196.966   15.032524   16.881515   20.414528
   1 Au   19.0000*   0   196.966   18.044180   13.055849   18.067191
   2 Au   19.0000*   0   196.966   12.848348   21.185947   12.689512
   3 Au   19.0000*   0   196.966   16.594563   19.895943   16.361161
   4 Au   19.0000*   0   196.966   12.982516   12.089320   18.965946
   5 Au   19.0000*   0   196.966   11.244716   18.880534   17.312867
   6 Au   19.0000*   0   196.966   10.190333   16.650584   12.678147
   7 Au   19.0000*   0   196.966   11.385590   11.591314   14.145194
   8 Au   19.0000*   0   196.966   16.769916   17.889501   11.509214
   9 Au   19.0000*   0   196.966   12.557571   18.458855    8.177599
  10 Au   19.0000*   0   196.966   17.999727   12.836844   12.969023
  11 Au   19.0000*   0   196.966   13.760966   13.672102    9.861898
  12 Cr   24.0000    0    52.000   14.411147   15.413722   15.361202
* core charge reduced due to ECP

--------------------------------
INTERNAL COORDINATES (ANGSTROEM)
--------------------------------
 Au     0   0   0     0.000000000000     0.00000000     0.00000000
 Au     1   0   0     2.860288848617     0.00000000     0.00000000
 Au     1   2   0     4.820296584323    95.72573529     0.00000000
 Au     1   2   3     2.797967818819    84.60562191   330.02194751
 Au     2   1   3     2.768076207521    61.11903464   266.76361660
 Au     1   2   3     2.798334825965   114.32685774    27.15779560
 Au     6   1   2     2.778308115463   120.07044262     9.16931765
 Au     5   2   1     2.700247189388    99.12224220   116.18910026
 Au     4   1   2     2.779966015421   120.00959456    41.76838844
 Au     3   1   2     2.794082862736   119.59232031    29.20401900
 Au     2   1   3     2.700425086839   117.34722799   351.85245926
 Au    10   3   1     2.759750311687   100.68306444   359.95662139
 Cr    11   2   1     2.658594240114    60.56194247   343.58281769

---------------------------
INTERNAL COORDINATES (A.U.)
---------------------------
 Au     0   0   0     0.000000000000     0.00000000     0.00000000
 Au     1   0   0     5.405162587795     0.00000000     0.00000000
 Au     1   2   0     9.109040428647    95.72573529     0.00000000
 Au     1   2   3     5.287392909094    84.60562191   330.02194751
 Au     2   1   3     5.230905950038    61.11903464   266.76361660
 Au     1   2   3     5.288086452088   114.32685774    27.15779560
 Au     6   1   2     5.250241453875   120.07044262     9.16931765
 Au     5   2   1     5.102727681834    99.12224220   116.18910026
 Au     4   1   2     5.253374430755   120.00959456    41.76838844
 Au     3   1   2     5.280051406053   119.59232031    29.20401900
 Au     2   1   3     5.103063859295   117.34722799   351.85245926
 Au    10   3   1     5.215172287092   100.68306444   359.95662139
 Cr    11   2   1     5.024015015037    60.56194247   343.58281769

---------------------
BASIS SET INFORMATION
---------------------
There are 2 groups of distinct atoms

 Group   1 Type Au  : 8s7p6d1f contracted to 6s4p3d1f pattern {311111/4111/411/1}
 Group   2 Type Cr  : 17s11p7d1f contracted to 6s4p4d1f pattern {842111/6311/4111/1}

Atom   0Au   basis set group =>   1
Atom   1Au   basis set group =>   1
Atom   2Au   basis set group =>   1
Atom   3Au   basis set group =>   1
Atom   4Au   basis set group =>   1
Atom   5Au   basis set group =>   1
Atom   6Au   basis set group =>   1
Atom   7Au   basis set group =>   1
Atom   8Au   basis set group =>   1
Atom   9Au   basis set group =>   1
Atom  10Au   basis set group =>   1
Atom  11Au   basis set group =>   1
Atom  12Cr   basis set group =>   2
---------------------------------
AUXILIARY/J BASIS SET INFORMATION
---------------------------------
There are 2 groups of distinct atoms

 Group   1 Type Au  : 11s5p5d3f3g contracted to 8s5p5d2f3g pattern {41111111/11111/11111/21/111}
 Group   2 Type Cr  : 19s5p5d3f3g contracted to 8s5p5d2f3g pattern {121111111/11111/11111/21/111}

Atom   0Au   basis set group =>   1
Atom   1Au   basis set group =>   1
Atom   2Au   basis set group =>   1
Atom   3Au   basis set group =>   1
Atom   4Au   basis set group =>   1
Atom   5Au   basis set group =>   1
Atom   6Au   basis set group =>   1
Atom   7Au   basis set group =>   1
Atom   8Au   basis set group =>   1
Atom   9Au   basis set group =>   1
Atom  10Au   basis set group =>   1
Atom  11Au   basis set group =>   1
Atom  12Cr   basis set group =>   2
-------------------------
ECP PARAMETER INFORMATION
-------------------------

 Group 1, Type Au ECP Def2-ECP (replacing 60 core electrons, lmax=3)

Atom   0Au   ECP group =>   1
Atom   1Au   ECP group =>   1
Atom   2Au   ECP group =>   1
Atom   3Au   ECP group =>   1
Atom   4Au   ECP group =>   1
Atom   5Au   ECP group =>   1
Atom   6Au   ECP group =>   1
Atom   7Au   ECP group =>   1
Atom   8Au   ECP group =>   1
Atom   9Au   ECP group =>   1
Atom  10Au   ECP group =>   1
Atom  11Au   ECP group =>   1



           ************************************************************
           *        Program running with 6 parallel MPI-processes     *
           *              working on a common directory               *
           ************************************************************
------------------------------------------------------------------------------
                           ORCA GTO INTEGRAL CALCULATION
                           -- RI-GTO INTEGRALS CHOSEN --
------------------------------------------------------------------------------
------------------------------------------------------------------------------
                   ___                                                        
                  /   \      - P O W E R E D   B Y -                         
                 /     \                                                     
                 |  |  |   _    _      __       _____    __    __             
                 |  |  |  | |  | |    /  \     |  _  \  |  |  /  |          
                  \  \/   | |  | |   /    \    | | | |  |  | /  /          
                 / \  \   | |__| |  /  /\  \   | |_| |  |  |/  /          
                |  |  |   |  __  | /  /__\  \  |    /   |      \           
                |  |  |   | |  | | |   __   |  |    \   |  |\   \          
                \     /   | |  | | |  |  |  |  | |\  \  |  | \   \       
                 \___/    |_|  |_| |__|  |__|  |_| \__\ |__|  \__/        
                                                                              
                      - O R C A' S   B I G   F R I E N D -                    
                                      &                                       
                       - I N T E G R A L  F E E D E R -                       
                                                                              
 v1 FN, 2020, v2 2021                                                         
------------------------------------------------------------------------------


Reading SHARK input file pbeSP.SHARKINP.tmp ... ok
----------------------
SHARK INTEGRAL PACKAGE
----------------------

Number of atoms                             ...     13
Number of basis functions                   ...    525
Number of shells                            ...    183
Maximum angular momentum                    ...      3
Integral batch strategy                     ... SHARK/LIBINT Hybrid
RI-J (if used) integral strategy            ... SPLIT-RIJ (Revised 2003 algorithm where possible)
Printlevel                                  ...      1
Contraction scheme used                     ... SEGMENTED contraction
Coulomb Range Separation                    ... NOT USED
Exchange Range Separation                   ... NOT USED
Finite Nucleus Model                        ... NOT USED
Auxiliary Coulomb fitting basis             ... AVAILABLE
   # of basis functions in Aux-J            ...   1157
   # of shells in Aux-J                     ...    299
   Maximum angular momentum in Aux-J        ...      4
Auxiliary J/K fitting basis                 ... NOT available
Auxiliary Correlation fitting basis         ... NOT available
Auxiliary 'external' fitting basis          ... NOT available
Integral threshold                          ...     1.000000e-10
Primitive cut-off                           ...     1.000000e-11
Primitive pair pre-selection threshold      ...     1.000000e-11

Calculating pre-screening integrals         ... done (  0.2 sec) Dimension = 183
Organizing shell pair data                  ... done (  0.8 sec)
Shell pair information
Total number of shell pairs                 ...     16836
Shell pairs after pre-screening             ...     13703
Total number of primitive shell pairs       ...     45389
Primitive shell pairs kept                  ...     27023
          la=0 lb=0:   2135 shell pairs
          la=1 lb=0:   3106 shell pairs
          la=1 lb=1:   1182 shell pairs
          la=2 lb=0:   2718 shell pairs
          la=2 lb=1:   1910 shell pairs
          la=2 lb=2:    786 shell pairs
          la=3 lb=0:    741 shell pairs
          la=3 lb=1:    560 shell pairs
          la=3 lb=2:    486 shell pairs
          la=3 lb=3:     79 shell pairs

Calculating one electron integrals          ... done (  0.2 sec)
Calculating ECP integrals                   ... done ( 14.8 sec)
Calculating RI/J V-Matrix + Cholesky decomp.... done (  3.1 sec)
Calculating Nuclear repulsion               ... done (  0.0 sec) ENN=   4320.048068112842 Eh

SHARK setup successfully completed in  20.5 seconds

Maximum memory used throughout the entire GTOINT-calculation: 30.7 MB


           ************************************************************
           *        Program running with 6 parallel MPI-processes     *
           *              working on a common directory               *
           ************************************************************
-------------------------------------------------------------------------------
                                 ORCA SCF
-------------------------------------------------------------------------------

------------
SCF SETTINGS
------------
Hamiltonian:
 Density Functional     Method          .... DFT(GTOs)
 Exchange Functional    Exchange        .... PBE
   PBE kappa parameter   XKappa         ....  0.804000
   PBE mue parameter    XMuePBE         ....  0.219520
 Correlation Functional Correlation     .... PBE
   PBE beta parameter  CBetaPBE         ....  0.066725
 LDA part of GGA corr.  LDAOpt          .... PW91-LDA
 Gradients option       PostSCFGGA      .... off
   Density functional embedding theory  .... OFF
   NL short-range parameter             ....  6.400000
 RI-approximation to the Coulomb term is turned on
   Number of AuxJ basis functions       .... 1157


General Settings:
 Integral files         IntName         .... pbeSP
 Hartree-Fock type      HFTyp           .... UHF
 Total Charge           Charge          ....    0
 Multiplicity           Mult            ....    5
 Number of Electrons    NEL             ....  252
 Basis Dimension        Dim             ....  525
 Nuclear Repulsion      ENuc            ....   4320.0480681128 Eh

Convergence Acceleration:
 DIIS                   CNVDIIS         .... on
   Start iteration      DIISMaxIt       ....     0
   Startup error        DIISStart       ....  0.200000
   # of expansion vecs  DIISMaxEq       ....     5
   Bias factor          DIISBfac        ....   1.050
   Max. coefficient     DIISMaxC        ....  10.000
 Trust-Rad. Augm. Hess. CNVTRAH         .... auto
   Auto Start mean grad. ratio tolernc. ....  1.125000
   Auto Start start iteration           ....   200
   Auto Start num. interpolation iter.  ....    10
   Max. Number of Micro iterations      ....    16
   Max. Number of Macro iterations      .... Maxiter - #DIIS iter
   Number of Davidson start vectors     ....     2
   Converg. threshold I  (grad. norm)   ....   5.000e-05
   Converg. threshold II (energy diff.) ....   1.000e-06
   Grad. Scal. Fac. for Micro threshold ....   0.100
   Minimum threshold for Micro iter.    ....   0.010
   NR start threshold (gradient norm)   ....   0.001
   Initial trust radius                 ....   0.400
   Minimum AH scaling param. (alpha)    ....   1.000
   Maximum AH scaling param. (alpha)    .... 1000.000
   Orbital update algorithm             .... Taylor
   White noise on init. David. guess    .... on
   Maximum white noise                  ....   0.010
   Quad. conv. algorithm                .... NR
 SOSCF                  CNVSOSCF        .... off
 Level Shifting         CNVShift        .... on
   Level shift para.    LevelShift      ....    0.2500
   Turn off err/grad.   ShiftErr        ....    0.0000
 Zerner damping         CNVZerner       .... off
 Static damping         CNVDamp         .... on
   Fraction old density DampFac         ....    0.9200
   Max. Damping (<1)    DampMax         ....    0.9800
   Min. Damping (>=0)   DampMin         ....    0.0000
   Turn off err/grad.   DampErr         ....    0.0030
 Fernandez-Rico         CNVRico         .... off

SCF Procedure:
 Maximum # iterations   MaxIter         ....   400
 SCF integral mode      SCFMode         .... Direct
   Integral package                     .... SHARK and LIBINT hybrid scheme
 Reset frequency        DirectResetFreq ....    20
 Integral Threshold     Thresh          ....  1.000e-10 Eh
 Primitive CutOff       TCut            ....  1.000e-11 Eh

Convergence Tolerance:
 Convergence Check Mode ConvCheckMode   .... Total+1el-Energy
 Convergence forced     ConvForced      .... 0
 Energy Change          TolE            ....  1.000e-06 Eh
 1-El. energy change                    ....  1.000e-03 Eh
 DIIS Error             TolErr          ....  1.000e-06


Diagonalization of the overlap matrix:
Smallest eigenvalue                        ... 1.784e-04
Time for diagonalization                   ...    0.116 sec
Threshold for overlap eigenvalues          ... 1.000e-08
Number of eigenvalues below threshold      ... 0
Time for construction of square roots      ...    0.424 sec
Total time needed                          ...    0.816 sec

Time for model grid setup =    2.748 sec

------------------------------
INITIAL GUESS: MODEL POTENTIAL
------------------------------
Loading Hartree-Fock densities                     ... done
  calling /media/Programs/ORCA501/orca pbeSP_atom79.inp > pbeSP_atom79.out in order to generate an atomic fitting density for atom 0 (Au with ECP) on-the-fly... 
    atom 0 (Au), assumed electronic state with S=2: 1s2 2s2 2p6 3s2 3p6 4s2 3d10 4p6 5s2 4d10 5p6 6s1 4f14 5d10           ... done
Calculating cut-offs                               ... done
Initializing the effective Hamiltonian             ... done
Setting up the integral package (SHARK)            ... done
Starting the Coulomb interaction                   ... done (   2.0 sec)
Reading the grid                                   ... done
Mapping shells                                     ... done
Starting the XC term evaluation                    ... done (   0.9 sec)
  promolecular density results
     # of electrons  =    972.012788627
     EX              =  -4437.090495385
     EC              =    -59.143696133
     EX+EC           =  -4496.234191518
Transforming the Hamiltonian                       ... done (   0.3 sec)
Diagonalizing the Hamiltonian                      ... done (   0.7 sec)
Back transforming the eigenvectors                 ... done (   0.1 sec)
Now organizing SCF variables                       ... done
                      ------------------
                      INITIAL GUESS DONE (   8.3 sec)
                      ------------------
-------------------
DFT GRID GENERATION
-------------------

General Integration Accuracy     IntAcc      ... 4.388
Radial Grid Type                 RadialGrid  ... OptM3 with GC (2021)
Angular Grid (max. ang.)         AngularGrid ... 4 (Lebedev-302)
Angular grid pruning method      GridPruning ... 4 (adaptive)
Weight generation scheme         WeightScheme... Becke
Basis function cutoff            BFCut       ... 1.0000e-10
Integration weight cutoff        WCut        ... 1.0000e-14
Angular grids for H and He will be reduced by one unit
Partially contracted basis set               ... off
Rotationally invariant grid construction     ... off

Total number of grid points                  ...   144550
Total number of batches                      ...     2264
Average number of points per batch           ...       63
Average number of grid points per atom       ...    11119
Time for grid setup =    5.470 sec

--------------
SCF ITERATIONS
--------------
ITER       Energy         Delta-E        Max-DP      RMS-DP      [F,P]     Damp
               ***  Starting incremental Fock matrix formation  ***
  0  -2672.5580874690   0.000000000000 0.07760741  0.00063133  0.3061573 0.9200
  1  -2673.0505499127  -0.492462443672 0.06995045  0.00061115  0.2636861 0.9200
                               ***Turning on DIIS***
  2  -2673.3128620280  -0.262312115271 0.08798242  0.00048912  0.2414422 0.9200
  3  -2673.4127020598  -0.099840031839 0.04573193  0.00033007  0.2211144 0.9200
  4  -2673.4475255204  -0.034823460592 0.01983273  0.00024788  0.2026377 0.9200
  5  -2673.4969683632  -0.049442842796 0.02888804  0.00024297  0.1857074 0.9200
  6  -2673.5457262439  -0.048757880734 0.01749713  0.00019653  0.1704404 0.9200
  7  -2673.5787477647  -0.033021520767 0.02553140  0.00018721  0.1569344 0.9200
  8  -2673.6200858655  -0.041338100787 0.02513708  0.00022624  0.1444205 0.9200
  9  -2673.6620141884  -0.041928322894 0.03384090  0.00018456  0.1326667 0.9200
 10  -2673.6956834546  -0.033669266266 0.03401961  0.00014853  0.1219890 0.9200
 11  -2673.7309351507  -0.035251696058 0.02640351  0.00014449  0.1120357 0.9200
 12  -2673.7590462623  -0.028111111598 0.03020586  0.00013250  0.1029131 0.9200
 13  -2673.7861925071  -0.027146244850 0.02116704  0.00013783  0.0946412 0.9200
 14  -2673.8151277749  -0.028935267731 0.02098015  0.00013520  0.0869843 0.9200
 15  -2673.8400730535  -0.024945278626 0.02793440  0.00010949  0.0800191 0.9200
 16  -2673.8632567458  -0.023183692314 0.02517551  0.00010322  0.0735996 0.9200
 17  -2673.8844944798  -0.021237733974 0.02761816  0.00009890  0.0675954 0.9200
 18  -2673.9035643835  -0.019069903724 0.02609083  0.00009569  0.0621269 0.9200
 19  -2673.9223244472  -0.018760063677 0.01909977  0.00009605  0.0571104 0.9200
               *** Restarting incremental Fock matrix formation ***
                                   *** Resetting DIIS ***
 20  -2673.9395503664  -0.017225919191 0.01750098  0.00008026  0.0525188 0.9200
 21  -2673.9552643858  -0.015714019418 0.01746918  0.00007011  0.0481985 0.9200
 22  -2673.9700681612  -0.014803775448 0.01872486  0.00006742  0.0442422 0.9200
 23  -2673.9837187163  -0.013650555092 0.02001394  0.00006558  0.0406575 0.9200
 24  -2673.9962953720  -0.012576655698 0.01955594  0.00006305  0.0374003 0.9200
 25  -2674.0078699880  -0.011574615981 0.01796452  0.00005866  0.0344132 0.9200
 26  -2674.0185392257  -0.010669237646 0.01628914  0.00005392  0.0316476 0.9200
 27  -2674.0284810387  -0.009941813057 0.01541667  0.00005151  0.0290921 0.9200
 28  -2674.0376386507  -0.009157611978 0.01503756  0.00004908  0.0267455 0.9200
 29  -2674.0460816155  -0.008442964804 0.01401165  0.00004623  0.0245974 0.9200
 30  -2674.0538396583  -0.007758042780 0.01275647  0.00004205  0.0226262 0.9200
 31  -2674.0610289166  -0.007189258326 0.01167523  0.00003939  0.0208102 0.9200
 32  -2674.0676865267  -0.006657610086 0.01131686  0.00003748  0.0191337 0.9200
 33  -2674.0738199631  -0.006133436382 0.01088094  0.00003546  0.0175929 0.9200
 34  -2674.0794714381  -0.005651475026 0.01004396  0.00003290  0.0161791 0.9200
 35  -2674.0846739417  -0.005202503636 0.00905625  0.00003000  0.0148814 0.9200
 36  -2674.0894926606  -0.004818718839 0.00842094  0.00002834  0.0136860 0.9200
 37  -2674.0939391541  -0.004446493526 0.00825369  0.00002687  0.0125840 0.9200
 38  -2674.0980366764  -0.004097522342 0.00786378  0.00002529  0.0115719 0.9200
 39  -2674.1018094353  -0.003772758809 0.00355404  0.00002150  0.0106425 0.9200
               *** Restarting incremental Fock matrix formation ***
                                   *** Resetting DIIS ***
 40  -2674.1052910308  -0.003481595572 0.00419330  0.00001928  0.0097885 0.9200
 41  -2674.1085087957  -0.003217764923 0.00431933  0.00001788  0.0089862 0.9200
 42  -2674.1114749220  -0.002966126288 0.00449669  0.00001701  0.0082524 0.9200
 43  -2674.1142061797  -0.002731257672 0.00453688  0.00001632  0.0075859 0.9200
 44  -2674.1167215040  -0.002515324314 0.00443296  0.00001560  0.0069779 0.9200
 45  -2674.1190398329  -0.002318328903 0.00418061  0.00001483  0.0064194 0.9200
 46  -2674.1211766758  -0.002136842926 0.00393708  0.00001409  0.0059030 0.9200
 47  -2674.1231449674  -0.001968291588 0.00367704  0.00001332  0.0054276 0.9200
 48  -2674.1249575502  -0.001812582761 0.00336040  0.00001250  0.0049913 0.9200
 49  -2674.1266273275  -0.001669777298 0.00307553  0.00001176  0.0045909 0.9200
 50  -2674.1281662246  -0.001538897056 0.00287597  0.00001114  0.0042225 0.9200
 51  -2674.1295838816  -0.001417657020 0.00273110  0.00001055  0.0038832 0.9200
 52  -2674.1308894170  -0.001305535396 0.00260051  0.00000996  0.0035711 0.9200
 53  -2674.1320916358  -0.001202218842 0.00255308  0.00000941  0.0032842 0.9200
 54  -2674.1331991108  -0.001107474956 0.00252644  0.00000890  0.0030205 0.9200
 55  -2674.1342192436  -0.001020132807 0.03086153  0.00010552  0.0027779 0.0000
 56  -2674.1460320799  -0.011812836370 0.00601557  0.00001415  0.0004596 0.0000
 57  -2674.1460185347   0.000013545211 0.00208822  0.00000620  0.0015786 0.0000
 58  -2674.1460318821  -0.000013347408 0.00064314  0.00000293  0.0008668 0.0000
 59  -2674.1460362511  -0.000004368993 0.01714818  0.00003102  0.0004623 0.0000
               *** Restarting incremental Fock matrix formation ***
                                   *** Resetting DIIS ***
 60  -2674.1460378088  -0.000001557688 0.00179537  0.00000507  0.0001930 0.0000
 61  -2674.1460368708   0.000000938011 0.00039851  0.00000196  0.0004367 0.0000
 62  -2674.1460379110  -0.000001040183 0.00060142  0.00000148  0.0003193 0.0000
 63  -2674.1460383471  -0.000000436118 0.00108125  0.00000195  0.0002489 0.0000
 64  -2674.1460385749  -0.000000227802 0.00194090  0.00000324  0.0001863 0.0000
 65  -2674.1460388031  -0.000000228204 0.00258106  0.00000423  0.0001070 0.0000
                 **** Energy Check signals convergence ****

               *****************************************************
               *                     SUCCESS                       *
               *           SCF CONVERGED AFTER  66 CYCLES          *
               *****************************************************


----------------
TOTAL SCF ENERGY
----------------

Total Energy       :        -2674.14603899 Eh          -72767.21313 eV

Components:
Nuclear Repulsion  :         4320.04806811 Eh          117554.48429 eV
Electronic Energy  :        -6994.19410711 Eh         -190321.69742 eV
One Electron Energy:       -12931.64494459 Eh         -351887.94858 eV
Two Electron Energy:         5937.45083749 Eh          161566.25116 eV

Virial components:
Potential Energy   :        -4266.37411919 Eh         -116093.94189 eV
Kinetic Energy     :         1592.22808020 Eh           43326.72875 eV
Virial Ratio       :            2.67949936


DFT components:
N(Alpha)           :      127.999953920723 electrons
N(Beta)            :      123.999959326521 electrons
N(Total)           :      251.999913247244 electrons
E(X)               :     -192.058185183009 Eh       
E(C)               :      -10.956592529900 Eh       
E(XC)              :     -203.014777712908 Eh       
DFET-embed. en.    :        0.000000000000 Eh       

---------------
SCF CONVERGENCE
---------------

  Last Energy change         ...   -1.9048e-07  Tolerance :   1.0000e-06
  Last MAX-Density change    ...    6.9311e-04  Tolerance :   1.0000e-05
  Last RMS-Density change    ...    1.2742e-06  Tolerance :   1.0000e-06
  Last DIIS Error            ...    4.3586e-05  Tolerance :   1.0000e-06

             **** THE GBW FILE WAS UPDATED (pbeSP.gbw) ****
             **** DENSITY pbeSP.scfp WAS UPDATED ****
             **** ENERGY FILE WAS UPDATED (pbeSP.en.tmp) ****
----------------------
UHF SPIN CONTAMINATION
----------------------

Warning: in a DFT calculation there is little theoretical justification to 
         calculate <S**2> as in Hartree-Fock theory. We will do it anyways
         but you should keep in mind that the values have only limited relevance

Expectation value of <S**2>     :     6.206779
Ideal value S*(S+1) for S=2.0   :     6.000000
Deviation                       :     0.206779

             **** THE GBW FILE WAS UPDATED (pbeSP.gbw) ****
             **** DENSITY pbeSP.scfp WAS UPDATED ****
----------------
ORBITAL ENERGIES
----------------
                 SPIN UP ORBITALS
  NO   OCC          E(Eh)            E(eV) 
   0   1.0000    -214.490732     -5836.5895 
   1   1.0000     -24.292472      -661.0318 
   2   1.0000     -20.658972      -562.1592 
   3   1.0000     -20.655222      -562.0572 
   4   1.0000     -20.652794      -561.9911 
   5   1.0000      -4.032716      -109.7358 
   6   1.0000      -4.032692      -109.7351 
   7   1.0000      -4.026592      -109.5691 
   8   1.0000      -4.026513      -109.5670 
   9   1.0000      -4.025118      -109.5290 
  10   1.0000      -4.023857      -109.4947 
  11   1.0000      -4.023834      -109.4941 
  12   1.0000      -4.019591      -109.3786 
  13   1.0000      -4.018461      -109.3479 
  14   1.0000      -4.017735      -109.3281 
  15   1.0000      -4.017576      -109.3238 
  16   1.0000      -4.012356      -109.1818 
  17   1.0000      -2.796891       -76.1073 
  18   1.0000      -2.248280       -61.1788 
  19   1.0000      -2.248239       -61.1777 
  20   1.0000      -2.246606       -61.1333 
  21   1.0000      -2.246592       -61.1329 
  22   1.0000      -2.243684       -61.0538 
  23   1.0000      -2.243387       -61.0457 
  24   1.0000      -2.242906       -61.0326 
  25   1.0000      -2.242155       -61.0121 
  26   1.0000      -2.240757       -60.9741 
  27   1.0000      -2.240480       -60.9666 
  28   1.0000      -2.240003       -60.9536 
  29   1.0000      -2.239797       -60.9480 
  30   1.0000      -2.239438       -60.9382 
  31   1.0000      -2.239187       -60.9314 
  32   1.0000      -2.237576       -60.8875 
  33   1.0000      -2.237128       -60.8753 
  34   1.0000      -2.237116       -60.8750 
  35   1.0000      -2.236167       -60.8492 
  36   1.0000      -2.235715       -60.8369 
  37   1.0000      -2.235288       -60.8253 
  38   1.0000      -2.234282       -60.7979 
  39   1.0000      -2.233011       -60.7633 
  40   1.0000      -2.232165       -60.7403 
  41   1.0000      -2.232003       -60.7359 
  42   1.0000      -2.231864       -60.7321 
  43   1.0000      -2.231733       -60.7285 
  44   1.0000      -2.231640       -60.7260 
  45   1.0000      -2.231036       -60.7096 
  46   1.0000      -2.230876       -60.7052 
  47   1.0000      -2.230157       -60.6857 
  48   1.0000      -2.229616       -60.6709 
  49   1.0000      -2.226633       -60.5898 
  50   1.0000      -2.226536       -60.5871 
  51   1.0000      -2.225628       -60.5624 
  52   1.0000      -2.224681       -60.5366 
  53   1.0000      -2.224364       -60.5280 
  54   1.0000      -1.790846       -48.7314 
  55   1.0000      -1.785836       -48.5951 
  56   1.0000      -1.783158       -48.5222 
  57   1.0000      -0.418087       -11.3767 
  58   1.0000      -0.379687       -10.3318 
  59   1.0000      -0.375381       -10.2146 
  60   1.0000      -0.365350        -9.9417 
  61   1.0000      -0.361229        -9.8295 
  62   1.0000      -0.360587        -9.8121 
  63   1.0000      -0.355105        -9.6629 
  64   1.0000      -0.355026        -9.6608 
  65   1.0000      -0.352007        -9.5786 
  66   1.0000      -0.350297        -9.5321 
  67   1.0000      -0.344364        -9.3706 
  68   1.0000      -0.343598        -9.3498 
  69   1.0000      -0.342494        -9.3197 
  70   1.0000      -0.339685        -9.2433 
  71   1.0000      -0.338205        -9.2030 
  72   1.0000      -0.337648        -9.1879 
  73   1.0000      -0.332742        -9.0544 
  74   1.0000      -0.331066        -9.0088 
  75   1.0000      -0.330975        -9.0063 
  76   1.0000      -0.328240        -8.9319 
  77   1.0000      -0.327098        -8.9008 
  78   1.0000      -0.322113        -8.7652 
  79   1.0000      -0.316870        -8.6225 
  80   1.0000      -0.314890        -8.5686 
  81   1.0000      -0.310588        -8.4515 
  82   1.0000      -0.307588        -8.3699 
  83   1.0000      -0.304565        -8.2876 
  84   1.0000      -0.303034        -8.2460 
  85   1.0000      -0.302200        -8.2233 
  86   1.0000      -0.299082        -8.1384 
  87   1.0000      -0.298890        -8.1332 
  88   1.0000      -0.295218        -8.0333 
  89   1.0000      -0.293281        -7.9806 
  90   1.0000      -0.287189        -7.8148 
  91   1.0000      -0.286135        -7.7861 
  92   1.0000      -0.282657        -7.6915 
  93   1.0000      -0.278201        -7.5702 
  94   1.0000      -0.277058        -7.5391 
  95   1.0000      -0.276882        -7.5343 
  96   1.0000      -0.274414        -7.4672 
  97   1.0000      -0.274396        -7.4667 
  98   1.0000      -0.272407        -7.4126 
  99   1.0000      -0.268711        -7.3120 
 100   1.0000      -0.268092        -7.2951 
 101   1.0000      -0.266074        -7.2402 
 102   1.0000      -0.265421        -7.2225 
 103   1.0000      -0.264134        -7.1874 
 104   1.0000      -0.262228        -7.1356 
 105   1.0000      -0.259379        -7.0581 
 106   1.0000      -0.257986        -7.0201 
 107   1.0000      -0.257700        -7.0124 
 108   1.0000      -0.255899        -6.9634 
 109   1.0000      -0.255329        -6.9479 
 110   1.0000      -0.253617        -6.9013 
 111   1.0000      -0.249917        -6.8006 
 112   1.0000      -0.249278        -6.7832 
 113   1.0000      -0.248197        -6.7538 
 114   1.0000      -0.247032        -6.7221 
 115   1.0000      -0.246365        -6.7039 
 116   1.0000      -0.241645        -6.5755 
 117   1.0000      -0.240181        -6.5357 
 118   1.0000      -0.239497        -6.5171 
 119   1.0000      -0.237427        -6.4607 
 120   1.0000      -0.230653        -6.2764 
 121   1.0000      -0.220174        -5.9912 
 122   1.0000      -0.214373        -5.8334 
 123   1.0000      -0.212820        -5.7911 
 124   1.0000      -0.211812        -5.7637 
 125   1.0000      -0.204184        -5.5561 
 126   1.0000      -0.188207        -5.1214 
 127   1.0000      -0.182534        -4.9670 
 128   0.0000      -0.166104        -4.5199 
 129   0.0000      -0.161147        -4.3850 
 130   0.0000      -0.150572        -4.0973 
 131   0.0000      -0.130343        -3.5468 
 132   0.0000      -0.117320        -3.1924 
 133   0.0000      -0.112330        -3.0566 
 134   0.0000      -0.111460        -3.0330 
 135   0.0000      -0.069722        -1.8972 
 136   0.0000      -0.068032        -1.8513 
 137   0.0000      -0.061034        -1.6608 
 138   0.0000      -0.060469        -1.6455 
 139   0.0000      -0.048471        -1.3190 
 140   0.0000      -0.040540        -1.1032 
 141   0.0000      -0.032906        -0.8954 
 142   0.0000      -0.016334        -0.4445 
 143   0.0000      -0.014821        -0.4033 
 144   0.0000      -0.003199        -0.0870 
 145   0.0000       0.004442         0.1209 
 146   0.0000       0.018412         0.5010 
 147   0.0000       0.018616         0.5066 
 148   0.0000       0.032476         0.8837 
 149   0.0000       0.036014         0.9800 
 150   0.0000       0.042561         1.1581 
 151   0.0000       0.043388         1.1807 
 152   0.0000       0.048779         1.3273 
 153   0.0000       0.054376         1.4796 
 154   0.0000       0.057273         1.5585 
 155   0.0000       0.057773         1.5721 
 156   0.0000       0.063249         1.7211 
 157   0.0000       0.064853         1.7647 
 158   0.0000       0.070473         1.9177 
 159   0.0000       0.071311         1.9405 
 160   0.0000       0.082313         2.2398 
 161   0.0000       0.087720         2.3870 
 162   0.0000       0.090619         2.4659 
 163   0.0000       0.098069         2.6686 
 164   0.0000       0.105448         2.8694 
 165   0.0000       0.113263         3.0821 
 166   0.0000       0.114221         3.1081 
 167   0.0000       0.121056         3.2941 
 168   0.0000       0.128234         3.4894 
 169   0.0000       0.131088         3.5671 
 170   0.0000       0.132830         3.6145 
 171   0.0000       0.137573         3.7435 
 172   0.0000       0.138910         3.7799 
 173   0.0000       0.140246         3.8163 
 174   0.0000       0.144555         3.9335 
 175   0.0000       0.149202         4.0600 
 176   0.0000       0.155219         4.2237 
 177   0.0000       0.160332         4.3628 
 178   0.0000       0.167384         4.5548 
 179   0.0000       0.184843         5.0298 
 180   0.0000       0.204678         5.5696 
 181   0.0000       0.206945         5.6313 
 182   0.0000       0.211690         5.7604 
 183   0.0000       0.214485         5.8364 
 184   0.0000       0.226043         6.1509 
 185   0.0000       0.230794         6.2802 
 186   0.0000       0.234468         6.3802 
 187   0.0000       0.240827         6.5532 
 188   0.0000       0.242691         6.6039 
 189   0.0000       0.250800         6.8246 
 190   0.0000       0.254802         6.9335 
 191   0.0000       0.264127         7.1873 
 192   0.0000       0.267317         7.2741 
 193   0.0000       0.269255         7.3268 
 194   0.0000       0.275735         7.5031 
 195   0.0000       0.279804         7.6139 
 196   0.0000       0.288229         7.8431 
 197   0.0000       0.295593         8.0435 
 198   0.0000       0.295946         8.0531 
 199   0.0000       0.302367         8.2278 
 200   0.0000       0.303382         8.2554 
 201   0.0000       0.304176         8.2770 
 202   0.0000       0.306101         8.3294 
 203   0.0000       0.311666         8.4809 
 204   0.0000       0.311841         8.4856 
 205   0.0000       0.320003         8.7077 
 206   0.0000       0.320143         8.7115 
 207   0.0000       0.329049         8.9539 
 208   0.0000       0.333926         9.0866 
 209   0.0000       0.339914         9.2495 
 210   0.0000       0.347812         9.4645 
 211   0.0000       0.351633         9.5684 
 212   0.0000       0.354463         9.6454 
 213   0.0000       0.361260         9.8304 
 214   0.0000       0.364472         9.9178 
 215   0.0000       0.365784         9.9535 
 216   0.0000       0.369563        10.0563 
 217   0.0000       0.372957        10.1487 
 218   0.0000       0.378205        10.2915 
 219   0.0000       0.383212        10.4277 
 220   0.0000       0.393550        10.7090 
 221   0.0000       0.395142        10.7524 
 222   0.0000       0.404879        11.0173 
 223   0.0000       0.406385        11.0583 
 224   0.0000       0.417666        11.3653 
 225   0.0000       0.418249        11.3811 
 226   0.0000       0.426836        11.6148 
 227   0.0000       0.431805        11.7500 
 228   0.0000       0.444216        12.0877 
 229   0.0000       0.450342        12.2544 
 230   0.0000       0.452277        12.3071 
 231   0.0000       0.457260        12.4427 
 232   0.0000       0.465314        12.6618 
 233   0.0000       0.466855        12.7038 
 234   0.0000       0.474971        12.9246 
 235   0.0000       0.482489        13.1292 
 236   0.0000       0.485227        13.2037 
 237   0.0000       0.486898        13.2492 
 238   0.0000       0.488381        13.2895 
 239   0.0000       0.501123        13.6362 
 240   0.0000       0.506772        13.7900 
 241   0.0000       0.507351        13.8057 
 242   0.0000       0.509503        13.8643 
 243   0.0000       0.517264        14.0755 
 244   0.0000       0.523151        14.2357 
 245   0.0000       0.524749        14.2791 
 246   0.0000       0.528012        14.3679 
 247   0.0000       0.533417        14.5150 
 248   0.0000       0.536267        14.5926 
 249   0.0000       0.542514        14.7626 
 250   0.0000       0.549414        14.9503 
 251   0.0000       0.550483        14.9794 
 252   0.0000       0.560214        15.2442 
 253   0.0000       0.570116        15.5136 
 254   0.0000       0.584589        15.9075 
 255   0.0000       0.592070        16.1110 
 256   0.0000       0.617982        16.8162 
 257   0.0000       0.661661        18.0047 
 258   0.0000       0.664177        18.0732 
 259   0.0000       0.675138        18.3714 
 260   0.0000       0.681805        18.5528 
 261   0.0000       0.688097        18.7241 
 262   0.0000       0.713630        19.4189 
 263   0.0000       0.716804        19.5052 
 264   0.0000       0.720886        19.6163 
 265   0.0000       0.739012        20.1095 
 266   0.0000       0.746339        20.3089 
 267   0.0000       0.753573        20.5058 
 268   0.0000       0.770032        20.9536 
 269   0.0000       0.773743        21.0546 
 270   0.0000       0.782013        21.2797 
 271   0.0000       0.785715        21.3804 
 272   0.0000       0.797388        21.6980 
 273   0.0000       0.802427        21.8352 
 274   0.0000       0.807174        21.9643 
 275   0.0000       0.816457        22.2169 
 276   0.0000       0.826523        22.4908 
 277   0.0000       0.840805        22.8795 
 278   0.0000       0.849360        23.1123 
 279   0.0000       0.849992        23.1294 
 280   0.0000       0.851264        23.1641 
 281   0.0000       0.881477        23.9862 
 282   0.0000       0.889167        24.1955 
 283   0.0000       0.899843        24.4860 
 284   0.0000       0.919703        25.0264 
 285   0.0000       0.923206        25.1217 
 286   0.0000       0.937666        25.5152 
 287   0.0000       0.940995        25.6058 
 288   0.0000       1.013620        27.5820 
 289   0.0000       1.044569        28.4242 
 290   0.0000       1.084159        29.5015 
 291   0.0000       1.136355        30.9218 
 292   0.0000       1.137757        30.9600 
 293   0.0000       1.197152        32.5762 
 294   0.0000       1.226767        33.3820 
 295   0.0000       1.241179        33.7742 
 296   0.0000       1.250800        34.0360 
 297   0.0000       1.254089        34.1255 
 298   0.0000       1.262621        34.3577 
 299   0.0000       1.274682        34.6859 
 300   0.0000       1.276444        34.7338 
 301   0.0000       1.280741        34.8507 
 302   0.0000       1.306092        35.5406 
 303   0.0000       1.307767        35.5862 
 304   0.0000       1.320878        35.9429 
 305   0.0000       1.322231        35.9797 
 306   0.0000       1.338846        36.4319 
 307   0.0000       1.353715        36.8365 
 308   0.0000       1.361606        37.0512 
 309   0.0000       1.368555        37.2403 
 310   0.0000       1.368707        37.2444 
 311   0.0000       1.372473        37.3469 
 312   0.0000       1.379541        37.5392 
 313   0.0000       1.383113        37.6364 
 314   0.0000       1.389869        37.8203 
 315   0.0000       1.399225        38.0748 
 316   0.0000       1.402434        38.1622 
 317   0.0000       1.418610        38.6024 
 318   0.0000       1.420675        38.6585 
 319   0.0000       1.421737        38.6874 
 320   0.0000       1.423711        38.7411 
 321   0.0000       1.428703        38.8770 
 322   0.0000       1.430816        38.9345 
 323   0.0000       1.434390        39.0317 
 324   0.0000       1.440483        39.1975 
 325   0.0000       1.440858        39.2077 
 326   0.0000       1.444387        39.3038 
 327   0.0000       1.446894        39.3720 
 328   0.0000       1.448576        39.4178 
 329   0.0000       1.450064        39.4583 
 330   0.0000       1.454431        39.5771 
 331   0.0000       1.454721        39.5850 
 332   0.0000       1.463133        39.8139 
 333   0.0000       1.466689        39.9106 
 334   0.0000       1.467172        39.9238 
 335   0.0000       1.475393        40.1475 
 336   0.0000       1.478298        40.2265 
 337   0.0000       1.478358        40.2282 
 338   0.0000       1.482300        40.3354 
 339   0.0000       1.482629        40.3444 
 340   0.0000       1.485576        40.4246 
 341   0.0000       1.487426        40.4749 
 342   0.0000       1.488735        40.5105 
 343   0.0000       1.489117        40.5209 
 344   0.0000       1.493486        40.6398 
 345   0.0000       1.494702        40.6729 
 346   0.0000       1.495135        40.6847 
 347   0.0000       1.495902        40.7056 
 348   0.0000       1.498855        40.7859 
 349   0.0000       1.500848        40.8402 
 350   0.0000       1.501001        40.8443 
 351   0.0000       1.503427        40.9103 
 352   0.0000       1.506724        41.0001 
 353   0.0000       1.507637        41.0249 
 354   0.0000       1.509053        41.0634 
 355   0.0000       1.509432        41.0737 
 356   0.0000       1.513167        41.1754 
 357   0.0000       1.513637        41.1882 
 358   0.0000       1.515533        41.2397 
 359   0.0000       1.517274        41.2871 
 360   0.0000       1.518291        41.3148 
 361   0.0000       1.519780        41.3553 
 362   0.0000       1.521762        41.4092 
 363   0.0000       1.523128        41.4464 
 364   0.0000       1.525280        41.5050 
 365   0.0000       1.526281        41.5322 
 366   0.0000       1.526976        41.5511 
 367   0.0000       1.527390        41.5624 
 368   0.0000       1.529577        41.6219 
 369   0.0000       1.532005        41.6880 
 370   0.0000       1.532153        41.6920 
 371   0.0000       1.536489        41.8100 
 372   0.0000       1.537112        41.8269 
 373   0.0000       1.545543        42.0564 
 374   0.0000       1.548070        42.1251 
 375   0.0000       1.550072        42.1796 
 376   0.0000       1.551519        42.2190 
 377   0.0000       1.557063        42.3698 
 378   0.0000       1.558679        42.4138 
 379   0.0000       1.561070        42.4789 
 380   0.0000       1.561388        42.4875 
 381   0.0000       1.566461        42.6256 
 382   0.0000       1.567029        42.6410 
 383   0.0000       1.569159        42.6990 
 384   0.0000       1.569395        42.7054 
 385   0.0000       1.570503        42.7356 
 386   0.0000       1.572401        42.7872 
 387   0.0000       1.574234        42.8371 
 388   0.0000       1.578456        42.9520 
 389   0.0000       1.583087        43.0780 
 390   0.0000       1.585579        43.1458 
 391   0.0000       1.586304        43.1655 
 392   0.0000       1.590919        43.2911 
 393   0.0000       1.594037        43.3760 
 394   0.0000       1.597194        43.4619 
 395   0.0000       1.598326        43.4927 
 396   0.0000       1.600051        43.5396 
 397   0.0000       1.604300        43.6552 
 398   0.0000       1.611562        43.8528 
 399   0.0000       1.614971        43.9456 
 400   0.0000       1.615839        43.9692 
 401   0.0000       1.620289        44.0903 
 402   0.0000       1.620419        44.0938 
 403   0.0000       1.624728        44.2111 
 404   0.0000       1.627637        44.2903 
 405   0.0000       1.630899        44.3790 
 406   0.0000       1.639718        44.6190 
 407   0.0000       1.644408        44.7466 
 408   0.0000       1.650473        44.9117 
 409   0.0000       1.652765        44.9740 
 410   0.0000       1.654332        45.0167 
 411   0.0000       1.666419        45.3456 
 412   0.0000       1.671843        45.4932 
 413   0.0000       1.681088        45.7447 
 414   0.0000       1.685481        45.8643 
 415   0.0000       1.695838        46.1461 
 416   0.0000       1.720987        46.8304 
 417   0.0000       1.727414        47.0053 
 418   0.0000       1.742166        47.4068 
 419   0.0000       1.744950        47.4825 
 420   0.0000       1.754959        47.7549 
 421   0.0000       1.760753        47.9125 
 422   0.0000       1.766321        48.0640 
 423   0.0000       1.771673        48.2097 
 424   0.0000       1.781050        48.4648 
 425   0.0000       1.785744        48.5926 
 426   0.0000       1.805991        49.1435 
 427   0.0000       1.809684        49.2440 
 428   0.0000       1.815509        49.4025 
 429   0.0000       1.825334        49.6699 
 430   0.0000       1.841600        50.1125 
 431   0.0000       1.858632        50.5759 
 432   0.0000       1.859622        50.6029 
 433   0.0000       1.870197        50.8906 
 434   0.0000       1.890622        51.4464 
 435   0.0000       1.894238        51.5448 
 436   0.0000       1.924932        52.3801 
 437   0.0000       1.957290        53.2606 
 438   0.0000       2.039087        55.4864 
 439   0.0000       2.144386        58.3517 
 440   0.0000       2.162217        58.8369 
 441   0.0000       2.242635        61.0252 
 442   0.0000       2.261708        61.5442 
 443   0.0000       2.290806        62.3360 
 444   0.0000       2.294091        62.4254 
 445   0.0000       2.358893        64.1887 
 446   0.0000       2.394877        65.1679 
 447   0.0000       2.403013        65.3893 
 448   0.0000       2.414151        65.6924 
 449   0.0000       2.414438        65.7002 
 450   0.0000       2.464599        67.0651 
 451   0.0000       2.472003        67.2666 
 452   0.0000       2.495574        67.9080 
 453   0.0000       2.501524        68.0699 
 454   0.0000       2.517579        68.5068 
 455   0.0000       2.564387        69.7805 
 456   0.0000       2.726368        74.1882 
 457   0.0000       2.785575        75.7993 
 458   0.0000       2.838926        77.2511 
 459   0.0000       2.856576        77.7314 
 460   0.0000       2.859909        77.8221 
 461   0.0000       2.866266        77.9951 
 462   0.0000       2.891899        78.6926 
 463   0.0000       2.898425        78.8702 
 464   0.0000       2.910745        79.2054 
 465   0.0000      23.694803       644.7684 
 466   0.0000      23.742464       646.0653 
 467   0.0000      23.780692       647.1055 
 468   0.0000      23.944696       651.5683 
 469   0.0000      24.242956       659.6844 
 470   0.0000      24.370873       663.1652 
 471   0.0000      24.815711       675.2698 
 472   0.0000      24.837473       675.8620 
 473   0.0000      25.034373       681.2199 
 474   0.0000      25.108805       683.2453 
 475   0.0000      25.333558       689.3612 
 476   0.0000      25.423650       691.8127 
 477   0.0000      25.585692       696.2221 
 478   0.0000      25.642425       697.7658 
 479   0.0000      25.710319       699.6133 
 480   0.0000      25.834902       703.0034 
 481   0.0000      25.929557       705.5791 
 482   0.0000      26.116157       710.6568 
 483   0.0000      26.425088       719.0632 
 484   0.0000      26.504869       721.2342 
 485   0.0000      26.535411       722.0653 
 486   0.0000      26.596067       723.7158 
 487   0.0000      26.719336       727.0701 
 488   0.0000      26.732992       727.4417 
 489   0.0000      26.932202       732.8625 
 490   0.0000      27.035332       735.6688 
 491   0.0000      27.100493       737.4419 
 492   0.0000      27.240693       741.2569 
 493   0.0000      27.309514       743.1297 
 494   0.0000      27.434946       746.5428 
 495   0.0000      27.720031       754.3004 
 496   0.0000      27.951387       760.5959 
 497   0.0000      28.125634       765.3374 
 498   0.0000      28.203566       767.4580 
 499   0.0000      28.519557       776.0566 
 500   0.0000      29.368366       799.1539 
 501   0.0000      43.900771      1194.6007 
 502   0.0000      43.979255      1196.7364 
 503   0.0000      44.013829      1197.6772 
 504   0.0000      44.026716      1198.0278 
 505   0.0000      44.081961      1199.5311 
 506   0.0000      44.107942      1200.2381 
 507   0.0000      44.121011      1200.5938 
 508   0.0000      44.145140      1201.2503 
 509   0.0000      44.147102      1201.3037 
 510   0.0000      44.159708      1201.6467 
 511   0.0000      44.172291      1201.9891 
 512   0.0000      44.222418      1203.3532 
 513   0.0000     205.093291      5580.8722 
 514   0.0000     205.126274      5581.7697 
 515   0.0000     205.137087      5582.0639 
 516   0.0000     205.142481      5582.2107 
 517   0.0000     205.169293      5582.9403 
 518   0.0000     205.180584      5583.2476 
 519   0.0000     205.185108      5583.3706 
 520   0.0000     205.187276      5583.4296 
 521   0.0000     205.194555      5583.6277 
 522   0.0000     205.200414      5583.7871 
 523   0.0000     205.204167      5583.8893 
 524   0.0000     205.218647      5584.2833 

                 SPIN DOWN ORBITALS
  NO   OCC          E(Eh)            E(eV) 
   0   1.0000    -214.490296     -5836.5777 
   1   1.0000     -24.245832      -659.7626 
   2   1.0000     -20.625498      -561.2483 
   3   1.0000     -20.619912      -561.0963 
   4   1.0000     -20.614660      -560.9534 
   5   1.0000      -4.031591      -109.7052 
   6   1.0000      -4.031566      -109.7045 
   7   1.0000      -4.025756      -109.5464 
   8   1.0000      -4.025678      -109.5443 
   9   1.0000      -4.024161      -109.5030 
  10   1.0000      -4.022817      -109.4664 
  11   1.0000      -4.022795      -109.4658 
  12   1.0000      -4.019353      -109.3721 
  13   1.0000      -4.017196      -109.3135 
  14   1.0000      -4.016606      -109.2974 
  15   1.0000      -4.016447      -109.2931 
  16   1.0000      -4.011894      -109.1692 
  17   1.0000      -2.671033       -72.6825 
  18   1.0000      -2.246688       -61.1355 
  19   1.0000      -2.246639       -61.1342 
  20   1.0000      -2.245738       -61.1096 
  21   1.0000      -2.245724       -61.1092 
  22   1.0000      -2.242553       -61.0230 
  23   1.0000      -2.242244       -61.0146 
  24   1.0000      -2.241745       -61.0010 
  25   1.0000      -2.241006       -60.9809 
  26   1.0000      -2.239377       -60.9365 
  27   1.0000      -2.239361       -60.9361 
  28   1.0000      -2.238997       -60.9262 
  29   1.0000      -2.238738       -60.9192 
  30   1.0000      -2.238696       -60.9180 
  31   1.0000      -2.238357       -60.9088 
  32   1.0000      -2.236702       -60.8638 
  33   1.0000      -2.236213       -60.8505 
  34   1.0000      -2.236210       -60.8504 
  35   1.0000      -2.235014       -60.8178 
  36   1.0000      -2.234820       -60.8125 
  37   1.0000      -2.233747       -60.7833 
  38   1.0000      -2.233669       -60.7812 
  39   1.0000      -2.231906       -60.7333 
  40   1.0000      -2.231405       -60.7196 
  41   1.0000      -2.230987       -60.7083 
  42   1.0000      -2.230914       -60.7062 
  43   1.0000      -2.230719       -60.7009 
  44   1.0000      -2.230693       -60.7002 
  45   1.0000      -2.230492       -60.6948 
  46   1.0000      -2.229991       -60.6811 
  47   1.0000      -2.229058       -60.6557 
  48   1.0000      -2.228204       -60.6325 
  49   1.0000      -2.225788       -60.5668 
  50   1.0000      -2.225417       -60.5567 
  51   1.0000      -2.224373       -60.5283 
  52   1.0000      -2.224153       -60.5223 
  53   1.0000      -2.224141       -60.5220 
  54   1.0000      -1.673930       -45.5500 
  55   1.0000      -1.662895       -45.2497 
  56   1.0000      -1.650946       -44.9245 
  57   1.0000      -0.410916       -11.1816 
  58   1.0000      -0.376007       -10.2317 
  59   1.0000      -0.371520       -10.1096 
  60   1.0000      -0.363280        -9.8854 
  61   1.0000      -0.358393        -9.7524 
  62   1.0000      -0.355363        -9.6699 
  63   1.0000      -0.352638        -9.5958 
  64   1.0000      -0.352359        -9.5882 
  65   1.0000      -0.350004        -9.5241 
  66   1.0000      -0.345868        -9.4116 
  67   1.0000      -0.341717        -9.2986 
  68   1.0000      -0.340637        -9.2692 
  69   1.0000      -0.339925        -9.2498 
  70   1.0000      -0.338441        -9.2094 
  71   1.0000      -0.336490        -9.1564 
  72   1.0000      -0.332831        -9.0568 
  73   1.0000      -0.330608        -8.9963 
  74   1.0000      -0.329230        -8.9588 
  75   1.0000      -0.328455        -8.9377 
  76   1.0000      -0.324755        -8.8370 
  77   1.0000      -0.322253        -8.7690 
  78   1.0000      -0.320333        -8.7167 
  79   1.0000      -0.315988        -8.5985 
  80   1.0000      -0.313039        -8.5182 
  81   1.0000      -0.309385        -8.4188 
  82   1.0000      -0.305562        -8.3148 
  83   1.0000      -0.302998        -8.2450 
  84   1.0000      -0.300773        -8.1844 
  85   1.0000      -0.300523        -8.1776 
  86   1.0000      -0.295976        -8.0539 
  87   1.0000      -0.295891        -8.0516 
  88   1.0000      -0.291949        -7.9443 
  89   1.0000      -0.290595        -7.9075 
  90   1.0000      -0.285570        -7.7708 
  91   1.0000      -0.284341        -7.7373 
  92   1.0000      -0.281868        -7.6700 
  93   1.0000      -0.276847        -7.5334 
  94   1.0000      -0.276230        -7.5166 
  95   1.0000      -0.274743        -7.4761 
  96   1.0000      -0.273511        -7.4426 
  97   1.0000      -0.273473        -7.4416 
  98   1.0000      -0.271426        -7.3859 
  99   1.0000      -0.267475        -7.2784 
 100   1.0000      -0.267306        -7.2738 
 101   1.0000      -0.265317        -7.2196 
 102   1.0000      -0.263821        -7.1789 
 103   1.0000      -0.263157        -7.1609 
 104   1.0000      -0.261558        -7.1173 
 105   1.0000      -0.258153        -7.0247 
 106   1.0000      -0.257094        -6.9959 
 107   1.0000      -0.256798        -6.9878 
 108   1.0000      -0.254973        -6.9382 
 109   1.0000      -0.254214        -6.9175 
 110   1.0000      -0.252131        -6.8608 
 111   1.0000      -0.249047        -6.7769 
 112   1.0000      -0.247577        -6.7369 
 113   1.0000      -0.246809        -6.7160 
 114   1.0000      -0.245845        -6.6898 
 115   1.0000      -0.245284        -6.6745 
 116   1.0000      -0.240408        -6.5418 
 117   1.0000      -0.238573        -6.4919 
 118   1.0000      -0.238418        -6.4877 
 119   1.0000      -0.236300        -6.4301 
 120   1.0000      -0.228982        -6.2309 
 121   1.0000      -0.211855        -5.7649 
 122   1.0000      -0.200745        -5.4626 
 123   1.0000      -0.200282        -5.4500 
 124   0.0000      -0.179759        -4.8915 
 125   0.0000      -0.158429        -4.3111 
 126   0.0000      -0.136577        -3.7165 
 127   0.0000      -0.119610        -3.2547 
 128   0.0000      -0.115575        -3.1450 
 129   0.0000      -0.110153        -2.9974 
 130   0.0000      -0.109982        -2.9928 
 131   0.0000      -0.101535        -2.7629 
 132   0.0000      -0.095408        -2.5962 
 133   0.0000      -0.092670        -2.5217 
 134   0.0000      -0.090716        -2.4685 
 135   0.0000      -0.068111        -1.8534 
 136   0.0000      -0.063148        -1.7183 
 137   0.0000      -0.057528        -1.5654 
 138   0.0000      -0.056919        -1.5488 
 139   0.0000      -0.044882        -1.2213 
 140   0.0000      -0.033896        -0.9224 
 141   0.0000      -0.030203        -0.8219 
 142   0.0000      -0.013146        -0.3577 
 143   0.0000      -0.008450        -0.2299 
 144   0.0000       0.002326         0.0633 
 145   0.0000       0.009842         0.2678 
 146   0.0000       0.020488         0.5575 
 147   0.0000       0.021752         0.5919 
 148   0.0000       0.035197         0.9578 
 149   0.0000       0.037793         1.0284 
 150   0.0000       0.044867         1.2209 
 151   0.0000       0.046068         1.2536 
 152   0.0000       0.049668         1.3515 
 153   0.0000       0.056580         1.5396 
 154   0.0000       0.058020         1.5788 
 155   0.0000       0.058900         1.6028 
 156   0.0000       0.065806         1.7907 
 157   0.0000       0.067684         1.8418 
 158   0.0000       0.070600         1.9211 
 159   0.0000       0.072416         1.9706 
 160   0.0000       0.083968         2.2849 
 161   0.0000       0.089945         2.4475 
 162   0.0000       0.092170         2.5081 
 163   0.0000       0.100328         2.7301 
 164   0.0000       0.108186         2.9439 
 165   0.0000       0.114987         3.1290 
 166   0.0000       0.115875         3.1531 
 167   0.0000       0.123627         3.3641 
 168   0.0000       0.130256         3.5444 
 169   0.0000       0.134802         3.6681 
 170   0.0000       0.135170         3.6782 
 171   0.0000       0.140781         3.8308 
 172   0.0000       0.141913         3.8616 
 173   0.0000       0.144431         3.9302 
 174   0.0000       0.147723         4.0198 
 175   0.0000       0.152053         4.1376 
 176   0.0000       0.158989         4.3263 
 177   0.0000       0.160781         4.3751 
 178   0.0000       0.167773         4.5653 
 179   0.0000       0.199245         5.4217 
 180   0.0000       0.205616         5.5951 
 181   0.0000       0.213594         5.8122 
 182   0.0000       0.215689         5.8692 
 183   0.0000       0.215848         5.8735 
 184   0.0000       0.227729         6.1968 
 185   0.0000       0.233139         6.3440 
 186   0.0000       0.236906         6.4465 
 187   0.0000       0.240953         6.5567 
 188   0.0000       0.244343         6.6489 
 189   0.0000       0.251240         6.8366 
 190   0.0000       0.256699         6.9851 
 191   0.0000       0.267618         7.2823 
 192   0.0000       0.269341         7.3292 
 193   0.0000       0.271920         7.3993 
 194   0.0000       0.277346         7.5470 
 195   0.0000       0.280572         7.6348 
 196   0.0000       0.288819         7.8592 
 197   0.0000       0.296064         8.0563 
 198   0.0000       0.297944         8.1075 
 199   0.0000       0.303947         8.2708 
 200   0.0000       0.304258         8.2793 
 201   0.0000       0.306031         8.3275 
 202   0.0000       0.307017         8.3544 
 203   0.0000       0.312539         8.5046 
 204   0.0000       0.312670         8.5082 
 205   0.0000       0.320895         8.7320 
 206   0.0000       0.321858         8.7582 
 207   0.0000       0.330962         9.0059 
 208   0.0000       0.335192         9.1210 
 209   0.0000       0.341703         9.2982 
 210   0.0000       0.348985         9.4964 
 211   0.0000       0.353019         9.6061 
 212   0.0000       0.358066         9.7435 
 213   0.0000       0.365069         9.9340 
 214   0.0000       0.365431         9.9439 
 215   0.0000       0.366509         9.9732 
 216   0.0000       0.371013        10.0958 
 217   0.0000       0.375178        10.2091 
 218   0.0000       0.381878        10.3914 
 219   0.0000       0.383309        10.4304 
 220   0.0000       0.395917        10.7735 
 221   0.0000       0.396904        10.8003 
 222   0.0000       0.409589        11.1455 
 223   0.0000       0.410575        11.1723 
 224   0.0000       0.418509        11.3882 
 225   0.0000       0.420455        11.4412 
 226   0.0000       0.429499        11.6873 
 227   0.0000       0.439184        11.9508 
 228   0.0000       0.450039        12.2462 
 229   0.0000       0.451712        12.2917 
 230   0.0000       0.454769        12.3749 
 231   0.0000       0.458417        12.4741 
 232   0.0000       0.467734        12.7277 
 233   0.0000       0.473336        12.8801 
 234   0.0000       0.477686        12.9985 
 235   0.0000       0.483680        13.1616 
 236   0.0000       0.488288        13.2870 
 237   0.0000       0.489957        13.3324 
 238   0.0000       0.492204        13.3936 
 239   0.0000       0.502797        13.6818 
 240   0.0000       0.510012        13.8781 
 241   0.0000       0.510551        13.8928 
 242   0.0000       0.511626        13.9220 
 243   0.0000       0.518384        14.1059 
 244   0.0000       0.523766        14.2524 
 245   0.0000       0.529246        14.4015 
 246   0.0000       0.533856        14.5269 
 247   0.0000       0.536881        14.6093 
 248   0.0000       0.544029        14.8038 
 249   0.0000       0.552123        15.0240 
 250   0.0000       0.555435        15.1142 
 251   0.0000       0.561455        15.2780 
 252   0.0000       0.563499        15.3336 
 253   0.0000       0.575115        15.6497 
 254   0.0000       0.588744        16.0205 
 255   0.0000       0.595782        16.2120 
 256   0.0000       0.618895        16.8410 
 257   0.0000       0.667520        18.1641 
 258   0.0000       0.669621        18.2213 
 259   0.0000       0.679453        18.4889 
 260   0.0000       0.682000        18.5582 
 261   0.0000       0.690091        18.7783 
 262   0.0000       0.714872        19.4527 
 263   0.0000       0.720281        19.5998 
 264   0.0000       0.728802        19.8317 
 265   0.0000       0.739628        20.1263 
 266   0.0000       0.749246        20.3880 
 267   0.0000       0.756631        20.5890 
 268   0.0000       0.774153        21.0658 
 269   0.0000       0.776477        21.1290 
 270   0.0000       0.782335        21.2884 
 271   0.0000       0.789929        21.4951 
 272   0.0000       0.798127        21.7182 
 273   0.0000       0.805587        21.9211 
 274   0.0000       0.810427        22.0528 
 275   0.0000       0.821462        22.3531 
 276   0.0000       0.827116        22.5070 
 277   0.0000       0.844538        22.9810 
 278   0.0000       0.852106        23.1870 
 279   0.0000       0.852662        23.2021 
 280   0.0000       0.857634        23.3374 
 281   0.0000       0.887253        24.1434 
 282   0.0000       0.891043        24.2465 
 283   0.0000       0.902296        24.5527 
 284   0.0000       0.925212        25.1763 
 285   0.0000       0.931302        25.3420 
 286   0.0000       0.944108        25.6905 
 287   0.0000       0.949469        25.8364 
 288   0.0000       1.021597        27.7991 
 289   0.0000       1.050104        28.5748 
 290   0.0000       1.086860        29.5750 
 291   0.0000       1.139462        31.0063 
 292   0.0000       1.140156        31.0252 
 293   0.0000       1.197949        32.5979 
 294   0.0000       1.227560        33.4036 
 295   0.0000       1.242273        33.8040 
 296   0.0000       1.251678        34.0599 
 297   0.0000       1.255175        34.1550 
 298   0.0000       1.265399        34.4333 
 299   0.0000       1.276542        34.7365 
 300   0.0000       1.280071        34.8325 
 301   0.0000       1.282421        34.8965 
 302   0.0000       1.308787        35.6139 
 303   0.0000       1.308994        35.6195 
 304   0.0000       1.322531        35.9879 
 305   0.0000       1.323462        36.0132 
 306   0.0000       1.341830        36.5131 
 307   0.0000       1.357427        36.9375 
 308   0.0000       1.366145        37.1747 
 309   0.0000       1.370407        37.2907 
 310   0.0000       1.371898        37.3312 
 311   0.0000       1.373418        37.3726 
 312   0.0000       1.386296        37.7230 
 313   0.0000       1.388031        37.7703 
 314   0.0000       1.394176        37.9374 
 315   0.0000       1.401061        38.1248 
 316   0.0000       1.405221        38.2380 
 317   0.0000       1.419098        38.6156 
 318   0.0000       1.423490        38.7351 
 319   0.0000       1.425626        38.7933 
 320   0.0000       1.426021        38.8040 
 321   0.0000       1.430659        38.9302 
 322   0.0000       1.434778        39.0423 
 323   0.0000       1.436871        39.0993 
 324   0.0000       1.442679        39.2573 
 325   0.0000       1.443863        39.2895 
 326   0.0000       1.445727        39.3402 
 327   0.0000       1.447879        39.3988 
 328   0.0000       1.451168        39.4883 
 329   0.0000       1.454346        39.5748 
 330   0.0000       1.456272        39.6272 
 331   0.0000       1.457952        39.6729 
 332   0.0000       1.466221        39.8979 
 333   0.0000       1.468130        39.9499 
 334   0.0000       1.469304        39.9818 
 335   0.0000       1.476618        40.1808 
 336   0.0000       1.479155        40.2498 
 337   0.0000       1.479685        40.2643 
 338   0.0000       1.483639        40.3719 
 339   0.0000       1.484005        40.3818 
 340   0.0000       1.487750        40.4837 
 341   0.0000       1.489134        40.5214 
 342   0.0000       1.490224        40.5511 
 343   0.0000       1.491432        40.5839 
 344   0.0000       1.494619        40.6707 
 345   0.0000       1.496661        40.7262 
 346   0.0000       1.497169        40.7401 
 347   0.0000       1.497724        40.7551 
 348   0.0000       1.500714        40.8365 
 349   0.0000       1.502163        40.8759 
 350   0.0000       1.503625        40.9157 
 351   0.0000       1.504519        40.9400 
 352   0.0000       1.508395        41.0455 
 353   0.0000       1.508988        41.0616 
 354   0.0000       1.510157        41.0935 
 355   0.0000       1.512445        41.1557 
 356   0.0000       1.513877        41.1947 
 357   0.0000       1.516353        41.2621 
 358   0.0000       1.517265        41.2869 
 359   0.0000       1.518021        41.3074 
 360   0.0000       1.520090        41.3638 
 361   0.0000       1.521035        41.3895 
 362   0.0000       1.524579        41.4859 
 363   0.0000       1.525366        41.5073 
 364   0.0000       1.527294        41.5598 
 365   0.0000       1.527779        41.5730 
 366   0.0000       1.528694        41.5979 
 367   0.0000       1.530807        41.6554 
 368   0.0000       1.531679        41.6791 
 369   0.0000       1.532846        41.7109 
 370   0.0000       1.535818        41.7917 
 371   0.0000       1.537595        41.8401 
 372   0.0000       1.539017        41.8788 
 373   0.0000       1.547897        42.1204 
 374   0.0000       1.549286        42.1582 
 375   0.0000       1.551166        42.2094 
 376   0.0000       1.553357        42.2690 
 377   0.0000       1.558005        42.3955 
 378   0.0000       1.561313        42.4855 
 379   0.0000       1.561891        42.5012 
 380   0.0000       1.566407        42.6241 
[...]
CHARGE
  0 Aus       :     2.590566  s :     2.590566
      pz      :     2.097605  p :     6.450240
      px      :     2.162366
      py      :     2.190269
      dz2     :     1.951947  d :     9.859869
      dxz     :     1.993916
      dyz     :     1.976352
      dx2y2   :     1.974979
      dxy     :     1.962676
      f0      :     0.000673  f :     0.004910
      f+1     :     0.000608
      f-1     :     0.000808
      f+2     :     0.000650
      f-2     :     0.000973
      f+3     :     0.000689
      f-3     :     0.000510
  1 Aus       :     2.633834  s :     2.633834
      pz      :     2.164302  p :     6.389512
      px      :     2.133574
      py      :     2.091637
      dz2     :     1.984532  d :     9.861001
      dxz     :     1.956662
      dyz     :     1.960989
      dx2y2   :     1.987425
      dxy     :     1.971393
      f0      :     0.001226  f :     0.005023
      f+1     :     0.000865
      f-1     :     0.000570
      f+2     :     0.000425
      f-2     :     0.000543
      f+3     :     0.000825
      f-3     :     0.000567
  2 Aus       :     2.485493  s :     2.485493
      pz      :     2.232605  p :     6.502784
      px      :     2.173848
      py      :     2.096330
      dz2     :     1.964504  d :     9.939266
      dxz     :     1.977660
      dyz     :     2.007863
      dx2y2   :     1.989956
      dxy     :     1.999284
      f0      :     0.000684  f :     0.005760
      f+1     :     0.000764
      f-1     :     0.001202
      f+2     :     0.000635
      f-2     :     0.000824
      f+3     :     0.000909
      f-3     :     0.000743
  3 Aus       :     2.584895  s :     2.584895
      pz      :     2.203077  p :     6.421939
      px      :     2.128878
      py      :     2.089984
      dz2     :     1.961795  d :     9.859012
      dxz     :     1.981721
      dyz     :     1.971818
      dx2y2   :     1.985149
      dxy     :     1.958530
      f0      :     0.000782  f :     0.005135
      f+1     :     0.000781
      f-1     :     0.000993
      f+2     :     0.000768
      f-2     :     0.000613
      f+3     :     0.000681
      f-3     :     0.000516
  4 Aus       :     2.633986  s :     2.633986
      pz      :     2.132461  p :     6.389135
      px      :     2.151242
      py      :     2.105431
      dz2     :     1.990740  d :     9.861051
      dxz     :     1.967118
      dyz     :     1.936093
      dx2y2   :     1.984421
      dxy     :     1.982679
      f0      :     0.001039  f :     0.005012
      f+1     :     0.000864
      f-1     :     0.000661
      f+2     :     0.000584
      f-2     :     0.000521
      f+3     :     0.000775
      f-3     :     0.000568
  5 Aus       :     2.585099  s :     2.585099
      pz      :     2.181986  p :     6.421479
      px      :     2.146324
      py      :     2.093169
      dz2     :     1.980978  d :     9.859022
      dxz     :     1.966540
      dyz     :     1.954853
      dx2y2   :     1.988421
      dxy     :     1.968230
      f0      :     0.000796  f :     0.005128
      f+1     :     0.000796
      f-1     :     0.000938
      f+2     :     0.000662
      f-2     :     0.000778
      f+3     :     0.000596
      f-3     :     0.000564
  6 Aus       :     2.501395  s :     2.501395
      pz      :     2.225685  p :     6.549438
      px      :     2.092432
      py      :     2.231321
      dz2     :     1.977913  d :     9.888862
      dxz     :     1.980181
      dyz     :     1.976787
      dx2y2   :     1.956669
      dxy     :     1.997313
      f0      :     0.000879  f :     0.006305
      f+1     :     0.000916
      f-1     :     0.001101
      f+2     :     0.000740
      f-2     :     0.000963
      f+3     :     0.000885
      f-3     :     0.000820
  7 Aus       :     2.628704  s :     2.628704
      pz      :     2.200537  p :     6.367160
      px      :     2.080360
      py      :     2.086263
      dz2     :     1.959032  d :     9.841777
      dxz     :     1.983913
      dyz     :     1.978275
      dx2y2   :     1.974386
      dxy     :     1.946170
      f0      :     0.000979  f :     0.004916
      f+1     :     0.000866
      f-1     :     0.000883
      f+2     :     0.000489
      f-2     :     0.000645
      f+3     :     0.000492
      f-3     :     0.000562
  8 Aus       :     2.501297  s :     2.501297
      pz      :     2.192253  p :     6.548923
      px      :     2.143025
      py      :     2.213646
      dz2     :     1.975276  d :     9.888929
      dxz     :     1.981298
      dyz     :     1.960289
      dx2y2   :     1.998776
      dxy     :     1.973289
      f0      :     0.001066  f :     0.006290
      f+1     :     0.000743
      f-1     :     0.001010
      f+2     :     0.000824
      f-2     :     0.000864
      f+3     :     0.000921
      f-3     :     0.000861
  9 Aus       :     2.676126  s :     2.676126
      pz      :     2.111556  p :     6.337571
      px      :     2.098832
      py      :     2.127183
      dz2     :     1.987496  d :     9.903021
      dxz     :     1.985832
      dyz     :     1.976324
      dx2y2   :     1.967932
      dxy     :     1.985437
      f0      :     0.000662  f :     0.004491
      f+1     :     0.000689
      f-1     :     0.000891
      f+2     :     0.000830
      f-2     :     0.000578
      f+3     :     0.000418
      f-3     :     0.000423
 10 Aus       :     2.628664  s :     2.628664
      pz      :     2.185027  p :     6.367126
      px      :     2.099693
      py      :     2.082406
      dz2     :     1.982984  d :     9.841737
      dxz     :     1.954387
      dyz     :     1.970187
      dx2y2   :     1.963003
      dxy     :     1.971176
      f0      :     0.001233  f :     0.004916
      f+1     :     0.000773
      f-1     :     0.000711
      f+2     :     0.000603
      f-2     :     0.000504
      f+3     :     0.000570
      f-3     :     0.000523
 11 Aus       :     2.511328  s :     2.511328
      pz      :     2.157513  p :     6.530657
      px      :     2.199223
      py      :     2.173921
      dz2     :     1.975482  d :     9.902242
      dxz     :     1.998765
      dyz     :     1.966828
      dx2y2   :     1.987878
      dxy     :     1.973289
      f0      :     0.000752  f :     0.005620
      f+1     :     0.000773
      f-1     :     0.000746
      f+2     :     0.000845
      f-2     :     0.000979
      f+3     :     0.000811
      f-3     :     0.000714
 12 Crs       :     6.276043  s :     6.276043
      pz      :     4.197850  p :    12.617479
      px      :     4.215661
      py      :     4.203968
      dz2     :     1.326229  d :     6.297787
      dxz     :     1.354613
      dyz     :     1.203373
      dx2y2   :     1.152309
      dxy     :     1.261263
      f0      :     0.000293  f :     0.002046
      f+1     :     0.000211
      f-1     :     0.000282
      f+2     :     0.000229
      f-2     :     0.000421
      f+3     :     0.000331
      f-3     :     0.000280

SPIN
  0 Aus       :    -0.055303  s :    -0.055303
      pz      :    -0.002460  p :    -0.062034
      px      :    -0.041138
      py      :    -0.018436
      dz2     :     0.003143  d :    -0.002348
      dxz     :    -0.002535
      dyz     :    -0.002478
      dx2y2   :    -0.000161
      dxy     :    -0.000317
      f0      :     0.000134  f :     0.000206
      f+1     :     0.000046
      f-1     :     0.000120
      f+2     :    -0.000011
      f-2     :    -0.000011
      f+3     :    -0.000040
      f-3     :    -0.000032
  1 Aus       :    -0.084523  s :    -0.084523
      pz      :    -0.005961  p :    -0.036881
      px      :    -0.020758
      py      :    -0.010162
      dz2     :    -0.000406  d :     0.005586
      dxz     :     0.003162
      dyz     :     0.003539
      dx2y2   :    -0.001297
      dxy     :     0.000588
      f0      :     0.000066  f :     0.000424
      f+1     :     0.000022
      f-1     :     0.000012
      f+2     :     0.000081
      f-2     :     0.000121
      f+3     :     0.000047
      f-3     :     0.000077
  2 Aus       :    -0.043401  s :    -0.043401
      pz      :     0.003718  p :    -0.024355
      px      :    -0.023119
      py      :    -0.004954
      dz2     :     0.006020  d :    -0.010665
      dxz     :    -0.008037
      dyz     :     0.000362
      dx2y2   :    -0.002688
      dxy     :    -0.006321
      f0      :    -0.000006  f :    -0.000001
      f+1     :    -0.000008
      f-1     :     0.000019
      f+2     :     0.000002
      f-2     :    -0.000010
      f+3     :    -0.000004
      f-3     :     0.000004
  3 Aus       :    -0.072172  s :    -0.072172
      pz      :    -0.021856  p :    -0.036377
      px      :    -0.012723
      py      :    -0.001798
      dz2     :    -0.000935  d :     0.013985
      dxz     :    -0.003469
      dyz     :     0.006339
      dx2y2   :     0.006838
      dxy     :     0.005213
      f0      :     0.000020  f :     0.000479
      f+1     :     0.000004
      f-1     :     0.000093
      f+2     :     0.000027
      f-2     :     0.000054
      f+3     :     0.000159
      f-3     :     0.000120
  4 Aus       :    -0.084664  s :    -0.084664
      pz      :    -0.005760  p :    -0.036751
      px      :    -0.017909
      py      :    -0.013082
      dz2     :     0.004227  d :     0.005475
      dxz     :     0.003433
      dyz     :     0.004850
      dx2y2   :    -0.008426
      dxy     :     0.001391
      f0      :     0.000049  f :     0.000424
      f+1     :     0.000019
      f-1     :     0.000089
      f+2     :     0.000113
      f-2     :     0.000114
      f+3     :     0.000021
      f-3     :     0.000019
  5 Aus       :    -0.072300  s :    -0.072300
      pz      :    -0.021938  p :    -0.036382
      px      :    -0.015696
      py      :     0.001252
      dz2     :     0.000982  d :     0.014020
      dxz     :     0.001756
      dyz     :     0.001887
      dx2y2   :     0.003857
      dxy     :     0.005539
      f0      :     0.000046  f :     0.000479
      f+1     :    -0.000005
      f-1     :     0.000047
      f+2     :     0.000040
      f-2     :     0.000155
      f+3     :     0.000091
      f-3     :     0.000105
  6 Aus       :    -0.032532  s :    -0.032532
      pz      :    -0.007201  p :    -0.028332
      px      :    -0.001615
      py      :    -0.019516
      dz2     :     0.006160  d :     0.019097
      dxz     :     0.007010
      dyz     :     0.000848
      dx2y2   :     0.003007
      dxy     :     0.002072
      f0      :     0.000031  f :     0.000462
      f+1     :     0.000102
      f-1     :    -0.000001
      f+2     :     0.000107
      f-2     :     0.000071
      f+3     :     0.000087
      f-3     :     0.000066
  7 Aus       :    -0.042613  s :    -0.042613
      pz      :    -0.035185  p :    -0.038501
      px      :     0.000456
      py      :    -0.003772
      dz2     :    -0.001721  d :     0.025919
      dxz     :     0.001421
      dyz     :     0.003201
      dx2y2   :     0.016386
      dxy     :     0.006632
      f0      :     0.000027  f :     0.000532
      f+1     :     0.000052
      f-1     :     0.000034
      f+2     :     0.000034
      f-2     :     0.000086
      f+3     :     0.000143
      f-3     :     0.000155
  8 Aus       :    -0.032434  s :    -0.032434
      pz      :    -0.008348  p :    -0.028365
      px      :    -0.000032
      py      :    -0.019986
      dz2     :     0.003343  d :     0.019142
      dxz     :     0.014294
      dyz     :     0.004498
      dx2y2   :     0.000753
      dxy     :    -0.003747
      f0      :     0.000050  f :     0.000464
      f+1     :     0.000043
      f-1     :     0.000109
      f+2     :     0.000071
      f-2     :     0.000143
      f+3     :     0.000020
      f-3     :     0.000029
  9 Aus       :     0.051589  s :     0.051589
      pz      :     0.002477  p :    -0.043145
      px      :    -0.022576
      py      :    -0.023045
      dz2     :    -0.006004  d :    -0.043264
      dxz     :    -0.012184
      dyz     :    -0.011590
      dx2y2   :    -0.004390
      dxy     :    -0.009095
      f0      :    -0.000000  f :    -0.000103
      f+1     :    -0.000011
      f-1     :    -0.000007
      f+2     :    -0.000006
      f-2     :    -0.000042
      f+3     :    -0.000012
      f-3     :    -0.000026
 10 Aus       :    -0.042593  s :    -0.042593
      pz      :    -0.034429  p :    -0.038424
      px      :    -0.003038
      py      :    -0.000957
      dz2     :     0.003296  d :     0.025896
      dxz     :     0.000348
      dyz     :     0.000512
      dx2y2   :     0.016360
      dxy     :     0.005380
      f0      :     0.000084  f :     0.000532
      f+1     :     0.000017
      f-1     :     0.000026
      f+2     :     0.000077
      f-2     :     0.000130
      f+3     :     0.000101
      f-3     :     0.000096
 11 Aus       :    -0.045839  s :    -0.045839
      pz      :    -0.001148  p :    -0.041099
      px      :    -0.037455
      py      :    -0.002496
      dz2     :     0.001001  d :     0.002714
      dxz     :    -0.006682
      dyz     :     0.011694
      dx2y2   :    -0.001071
      dxy     :    -0.002229
      f0      :     0.000037  f :     0.000117
      f+1     :    -0.000002
      f-1     :     0.000064
      f+2     :     0.000022
      f-2     :    -0.000005
      f+3     :     0.000001
      f-3     :    -0.000001
 12 Crs       :     0.016689  s :     0.016689
      pz      :     0.014344  p :     0.036517
      px      :     0.012144
      py      :     0.010028
      dz2     :     0.690436  d :     2.874592
      dxz     :     0.533669
      dyz     :     0.483497
      dx2y2   :     0.790019
      dxy     :     0.376971
      f0      :     0.000010  f :     0.000062
      f+1     :     0.000010
      f-1     :     0.000011
      f+2     :     0.000009
      f-2     :     0.000016
      f+3     :     0.000002
      f-3     :     0.000006


                      *****************************
                      * MAYER POPULATION ANALYSIS *
                      *****************************

  NA   - Mulliken gross atomic population
  ZA   - Total nuclear charge
  QA   - Mulliken gross atomic charge
  VA   - Mayer's total valence
  BVA  - Mayer's bonded valence
  FA   - Mayer's free valence

  ATOM       NA         ZA         QA         VA         BVA        FA
  0 Au    18.5722    19.0000     0.4278     1.6900     1.6815     0.0085
  1 Au    18.6701    19.0000     0.3299     1.6355     1.6154     0.0201
  2 Au    18.7133    19.0000     0.2867     1.6876     1.6786     0.0090
  3 Au    18.6328    19.0000     0.3672     1.7325     1.7189     0.0136
  4 Au    18.6707    19.0000     0.3293     1.6354     1.6153     0.0202
  5 Au    18.6317    19.0000     0.3683     1.7325     1.7189     0.0136
  6 Au    18.6848    19.0000     0.3152     1.8571     1.8519     0.0051
  7 Au    18.7036    19.0000     0.2964     1.6598     1.6555     0.0043
  8 Au    18.6845    19.0000     0.3155     1.8560     1.8509     0.0051
  9 Au    18.8971    19.0000     0.1029     1.5973     1.5863     0.0110
 10 Au    18.7029    19.0000     0.2971     1.6604     1.6561     0.0042
 11 Au    18.5804    19.0000     0.4196     1.6844     1.6760     0.0084
 12 Cr    27.8558    24.0000    -3.8558     9.5488     7.0681     2.4807

  Mayer bond orders larger than 0.100000
B(  0-Au,  1-Au) :   0.2131 B(  0-Au,  3-Au) :   0.2244 B(  0-Au,  4-Au) :   0.2123 
B(  0-Au,  5-Au) :   0.2243 B(  0-Au, 12-Cr) :   0.5438 B(  1-Au,  4-Au) :   0.2243 
B(  1-Au, 10-Au) :   0.3137 B(  1-Au, 12-Cr) :   0.6117 B(  2-Au,  3-Au) :   0.2243 
B(  2-Au,  5-Au) :   0.2230 B(  2-Au,  6-Au) :   0.2083 B(  2-Au,  8-Au) :   0.2080 
B(  2-Au,  9-Au) :   0.2733 B(  2-Au, 12-Cr) :   0.4064 B(  3-Au,  5-Au) :   0.1294 
B(  3-Au,  8-Au) :   0.2388 B(  3-Au, 12-Cr) :   0.7349 B(  4-Au,  7-Au) :   0.3140 
B(  4-Au, 12-Cr) :   0.6124 B(  5-Au,  6-Au) :   0.2402 B(  5-Au, 12-Cr) :   0.7362 
B(  6-Au,  7-Au) :   0.2549 B(  6-Au,  9-Au) :   0.2357 B(  6-Au, 11-Au) :   0.1495 
B(  6-Au, 12-Cr) :   0.5392 B(  7-Au, 11-Au) :   0.2137 B(  7-Au, 12-Cr) :   0.6975 
B(  8-Au,  9-Au) :   0.2344 B(  8-Au, 10-Au) :   0.2565 B(  8-Au, 11-Au) :   0.1499 
B(  8-Au, 12-Cr) :   0.5398 B(  9-Au, 11-Au) :   0.2952 B(  9-Au, 12-Cr) :   0.4521 
B( 10-Au, 11-Au) :   0.2134 B( 10-Au, 12-Cr) :   0.6977 B( 11-Au, 12-Cr) :   0.4963 


-------
TIMINGS
-------

Total SCF time: 0 days 0 hours 55 min 19 sec 

Total time                  ....    3319.864 sec
Sum of individual times     ....    3217.864 sec  ( 96.9%)

Fock matrix formation       ....    1421.742 sec  ( 42.8%)
  Split-RI-J                ....     547.804 sec  ( 38.5% of F)
  XC integration            ....     623.742 sec  ( 43.9% of F)
    Basis function eval.    ....      68.273 sec  ( 10.9% of XC)
    Density eval.           ....     215.607 sec  ( 34.6% of XC)
    XC-Functional eval.     ....      13.106 sec  (  2.1% of XC)
    XC-Potential eval.      ....     192.572 sec  ( 30.9% of XC)
Diagonalization             ....     653.588 sec  ( 19.7%)
Density matrix formation    ....      50.109 sec  (  1.5%)
Population analysis         ....       2.173 sec  (  0.1%)
Initial guess               ....       0.517 sec  (  0.0%)
Orbital Transformation      ....     151.934 sec  (  4.6%)
Orbital Orthonormalization  ....       0.343 sec  (  0.0%)
DIIS solution               ....     929.685 sec  ( 28.0%)
Grid generation             ....       6.016 sec  (  0.2%)

Maximum memory used throughout the entire SCF-calculation: 88.3 MB

-------------------------   --------------------
FINAL SINGLE POINT ENERGY     -2674.142750506290
-------------------------   --------------------


                            ***************************************
                            *     ORCA property calculations      *
                            ***************************************

                                    ---------------------
                                    Active property flags
                                    ---------------------
   (+) Dipole Moment


------------------------------------------------------------------------------
                       ORCA ELECTRIC PROPERTIES CALCULATION
------------------------------------------------------------------------------

Dipole Moment Calculation                       ... on
Quadrupole Moment Calculation                   ... off
Polarizability Calculation                      ... off
GBWName                                         ... pbeSP_job2.gbw
Electron density                                ... pbeSP_job2.scfp
The origin for moment calculation is the CENTER OF MASS  = (14.123899, 16.076119 14.449416)

-------------
DIPOLE MOMENT
-------------
                                X             Y             Z
Electronic contribution:     -5.49809      12.69528     -17.44044
Nuclear contribution   :      5.45310     -12.57490      17.30927
                        -----------------------------------------
Total Dipole Moment    :     -0.04499       0.12038      -0.13117
                        -----------------------------------------
Magnitude (a.u.)       :      0.18363
Magnitude (Debye)      :      0.46676



--------------------
Rotational spectrum 
--------------------
 
Rotational constants in cm-1:     0.001646     0.001225     0.001075 
Rotational constants in MHz :    49.331643    36.724713    32.213157 

 Dipole components along the rotational axes: 
x,y,z [a.u.] :    -0.175683     0.053441    -0.001089 
x,y,z [Debye]:    -0.446551     0.135837    -0.002769 

 

Timings for individual modules:

Sum of individual times         ...     3341.377 sec (=  55.690 min)
GTO integral calculation        ...       20.443 sec (=   0.341 min)   0.6 %
SCF iterations                  ...     3320.934 sec (=  55.349 min)  99.4 %



                             ****ORCA TERMINATED NORMALLY****
TOTAL RUN TIME: 0 days 1 hours 12 minutes 8 seconds 661 msec
