
                                 *****************
                                 * O   R   C   A *
                                 *****************

                                            #,                                       
                                            ###                                      
                                            ####                                     
                                            #####                                    
                                            ######                                   
                                           ########,                                 
                                     ,,################,,,,,                         
                               ,,#################################,,                 
                          ,,##########################################,,             
                       ,#########################################, ''#####,          
                    ,#############################################,,   '####,        
                  ,##################################################,,,,####,       
                ,###########''''           ''''###############################       
              ,#####''   ,,,,##########,,,,          '''####'''          '####       
            ,##' ,,,,###########################,,,                        '##       
           ' ,,###''''                  '''############,,,                           
         ,,##''                                '''############,,,,        ,,,,,,###''
      ,#''                                            '''#######################'''  
     '                                                          ''''####''''         
             ,#######,   #######,   ,#######,      ##                                
            ,#'     '#,  ##    ##  ,#'     '#,    #''#        ######   ,####,        
            ##       ##  ##   ,#'  ##            #'  '#       #        #'  '#        
            ##       ##  #######   ##           ,######,      #####,   #    #        
            '#,     ,#'  ##    ##  '#,     ,#' ,#      #,         ##   #,  ,#        
             '#######'   ##     ##  '#######'  #'      '#     #####' # '####'        



                  #######################################################
                  #                        -***-                        #
                  #          Department of theory and spectroscopy      #
                  #    Directorship and core code : Frank Neese         #
                  #        Max Planck Institute fuer Kohlenforschung    #
                  #                Kaiser Wilhelm Platz 1               #
                  #                 D-45470 Muelheim/Ruhr               #
                  #                      Germany                        #
                  #                                                     #
                  #                  All rights reserved                #
                  #                        -***-                        #
                  #######################################################


                         Program Version 5.0.3 -  RELEASE  -


 With contributions from (in alphabetic order):
   Daniel Aravena         : Magnetic Suceptibility
   Michael Atanasov       : Ab Initio Ligand Field Theory (pilot matlab implementation)
   Alexander A. Auer      : GIAO ZORA, VPT2 properties, NMR spectrum
   Ute Becker             : Parallelization
   Giovanni Bistoni       : ED, misc. LED, open-shell LED, HFLD
   Martin Brehm           : Molecular dynamics
   Dmytro Bykov           : SCF Hessian
   Vijay G. Chilkuri      : MRCI spin determinant printing, contributions to CSF-ICE
   Dipayan Datta          : RHF DLPNO-CCSD density
   Achintya Kumar Dutta   : EOM-CC, STEOM-CC
   Dmitry Ganyushin       : Spin-Orbit,Spin-Spin,Magnetic field MRCI
   Miquel Garcia          : C-PCM and meta-GGA Hessian, CC/C-PCM, Gaussian charge scheme
   Yang Guo               : DLPNO-NEVPT2, F12-NEVPT2, CIM, IAO-localization
   Andreas Hansen         : Spin unrestricted coupled pair/coupled cluster methods
   Benjamin Helmich-Paris : MC-RPA, TRAH-SCF, COSX integrals
   Lee Huntington         : MR-EOM, pCC
   Robert Izsak           : Overlap fitted RIJCOSX, COSX-SCS-MP3, EOM
   Marcus Kettner         : VPT2
   Christian Kollmar      : KDIIS, OOCD, Brueckner-CCSD(T), CCSD density, CASPT2, CASPT2-K
   Simone Kossmann        : Meta GGA functionals, TD-DFT gradient, OOMP2, MP2 Hessian
   Martin Krupicka        : Initial AUTO-CI
   Lucas Lang             : DCDCAS
   Marvin Lechner         : AUTO-CI (C++ implementation), FIC-MRCC
   Dagmar Lenk            : GEPOL surface, SMD
   Dimitrios Liakos       : Extrapolation schemes; Compound Job, initial MDCI parallelization
   Dimitrios Manganas     : Further ROCIS development; embedding schemes
   Dimitrios Pantazis     : SARC Basis sets
   Anastasios Papadopoulos: AUTO-CI, single reference methods and gradients
   Taras Petrenko         : DFT Hessian,TD-DFT gradient, ASA, ECA, R-Raman, ABS, FL, XAS/XES, NRVS
   Peter Pinski           : DLPNO-MP2, DLPNO-MP2 Gradient
   Christoph Reimann      : Effective Core Potentials
   Marius Retegan         : Local ZFS, SOC
   Christoph Riplinger    : Optimizer, TS searches, QM/MM, DLPNO-CCSD(T), (RO)-DLPNO pert. Triples
   Tobias Risthaus        : Range-separated hybrids, TD-DFT gradient, RPA, STAB
   Michael Roemelt        : Original ROCIS implementation
   Masaaki Saitow         : Open-shell DLPNO-CCSD energy and density
   Barbara Sandhoefer     : DKH picture change effects
   Avijit Sen             : IP-ROCIS
   Kantharuban Sivalingam : CASSCF convergence, NEVPT2, FIC-MRCI
   Bernardo de Souza      : ESD, SOC TD-DFT
   Georgi Stoychev        : AutoAux, RI-MP2 NMR, DLPNO-MP2 response
   Willem Van den Heuvel  : Paramagnetic NMR
   Boris Wezisla          : Elementary symmetry handling
   Frank Wennmohs         : Technical directorship


 We gratefully acknowledge several colleagues who have allowed us to
 interface, adapt or use parts of their codes:
   Stefan Grimme, W. Hujo, H. Kruse, P. Pracht,  : VdW corrections, initial TS optimization,
                  C. Bannwarth, S. Ehlert          DFT functionals, gCP, sTDA/sTD-DF
   Ed Valeev, F. Pavosevic, A. Kumar             : LibInt (2-el integral package), F12 methods
   Garnet Chan, S. Sharma, J. Yang, R. Olivares  : DMRG
   Ulf Ekstrom                                   : XCFun DFT Library
   Mihaly Kallay                                 : mrcc  (arbitrary order and MRCC methods)
   Jiri Pittner, Ondrej Demel                    : Mk-CCSD
   Frank Weinhold                                : gennbo (NPA and NBO analysis)
   Christopher J. Cramer and Donald G. Truhlar   : smd solvation model
   Lars Goerigk                                  : TD-DFT with DH, B97 family of functionals
   V. Asgeirsson, H. Jonsson                     : NEB implementation
   FAccTs GmbH                                   : IRC, NEB, NEB-TS, DLPNO-Multilevel, CI-OPT
                                                   MM, QMMM, 2- and 3-layer-ONIOM, Crystal-QMMM,
                                                   LR-CPCM, SF, NACMEs, symmetry and pop. for TD-DFT,
                                                   nearIR, NL-DFT gradient (VV10), updates on ESD,
                                                   ML-optimized integration grids
   S Lehtola, MJT Oliveira, MAL Marques          : LibXC Library
   Liviu Ungur et al                             : ANISO software


 Your calculation uses the libint2 library for the computation of 2-el integrals
 For citations please refer to: http://libint.valeyev.net

 Your ORCA version has been built with support for libXC version: 5.1.0
 For citations please refer to: https://tddft.org/programs/libxc/

 This ORCA versions uses:
   CBLAS   interface :  Fast vector & matrix operations
   LAPACKE interface :  Fast linear algebra routines
   SCALAPACK package :  Parallel linear algebra routines
   Shared memory     :  Shared parallel matrices
   BLAS/LAPACK       :  OpenBLAS 0.3.15  USE64BITINT DYNAMIC_ARCH NO_AFFINITY Haswell SINGLE_THREADED
        Core in use  :  Haswell
   Copyright (c) 2011-2014, The OpenBLAS Project




***************************************
The coordinates will be read from file: pbe.xyz
***************************************


================================================================================

cite the ECPs for Au [Def2-ECP] as follows:
Ce-Yb(ecp-28): M. Dolg, H. Stoll, H.Preuss, J. Chem. Phys., 1989, 90, 1730-1734.
Y-Cd(ecp-28), Hf-Hg(ecp-46): D. Andrae,U. Haeussermann, M. Dolg, H. Stoll, H. Preuss, Theor. Chim. Acta, 1990, 77, 123-141.
In-Sb(ecp-28), Tl-Bi(ecp-46): B. Metz, H. Stoll, M. Dolg, J. Chem. Phys., 2000, 113, 2563-2569.
Te-Xe(ecp-28), Po-Rn(ecp-46): K. A. Peterson, D. Figgen, E. Goll, H. Stoll, M. Dolg, J. Chem. Phys., 2003, 119, 11113-11123.
Rb(ecp-28), Cs(ecp-46): T. Leininger, A. Nicklass, W. Kuechle, H. Stoll, M. Dolg, A. Bergner, Chem. Phys. Lett., 1996, 255, 274-280.
Sr(ecp-28), Ba(ecp-46): M. Kaupp, P. V. Schleyer, H. Stoll and H. Preuss, J. Chem. Phys., 1991, 94, 1360-1366.
La(ecp-46): M. Dolg, H. Stoll, A. Savin, H. Preuss, Theor. Chim. Acta, 1989, 75, 173-194.
Lu(ecp-28): X. Cao, M. Dolg, J. Chem. Phys., 2001, 115, 7348-7355.

ECP parameters for Au [Def2-ECP] have been obtained from:
TURBOMOLE (7.0.2)

----- Orbital basis set information -----
Your calculation utilizes the basis: def2-TZVP
   F. Weigend and R. Ahlrichs, Phys. Chem. Chem. Phys. 7, 3297 (2005).

----- AuxJ basis set information -----
Your calculation utilizes the auxiliary basis: def2/J
   F. Weigend, Phys. Chem. Chem. Phys. 8, 1057 (2006).

================================================================================
                                        WARNINGS
                       Please study these warnings very carefully!
================================================================================


WARNING: your system is open-shell and RHF/RKS was chosen
  ===> : WILL SWITCH to UHF/UKS


INFO   : the flag for use of the SHARK integral package has been found!



***************************************
The coordinates will be read from file: pbe.xyz
***************************************


================================================================================

cite the ECPs for Au [Def2-ECP] as follows:
Ce-Yb(ecp-28): M. Dolg, H. Stoll, H.Preuss, J. Chem. Phys., 1989, 90, 1730-1734.
Y-Cd(ecp-28), Hf-Hg(ecp-46): D. Andrae,U. Haeussermann, M. Dolg, H. Stoll, H. Preuss, Theor. Chim. Acta, 1990, 77, 123-141.
In-Sb(ecp-28), Tl-Bi(ecp-46): B. Metz, H. Stoll, M. Dolg, J. Chem. Phys., 2000, 113, 2563-2569.
Te-Xe(ecp-28), Po-Rn(ecp-46): K. A. Peterson, D. Figgen, E. Goll, H. Stoll, M. Dolg, J. Chem. Phys., 2003, 119, 11113-11123.
Rb(ecp-28), Cs(ecp-46): T. Leininger, A. Nicklass, W. Kuechle, H. Stoll, M. Dolg, A. Bergner, Chem. Phys. Lett., 1996, 255, 274-280.
Sr(ecp-28), Ba(ecp-46): M. Kaupp, P. V. Schleyer, H. Stoll and H. Preuss, J. Chem. Phys., 1991, 94, 1360-1366.
La(ecp-46): M. Dolg, H. Stoll, A. Savin, H. Preuss, Theor. Chim. Acta, 1989, 75, 173-194.
Lu(ecp-28): X. Cao, M. Dolg, J. Chem. Phys., 2001, 115, 7348-7355.

ECP parameters for Au [Def2-ECP] have been obtained from:
TURBOMOLE (7.0.2)

----- Orbital basis set information -----
Your calculation utilizes the basis: def2-TZVP
   F. Weigend and R. Ahlrichs, Phys. Chem. Chem. Phys. 7, 3297 (2005).

----- AuxJ basis set information -----
Your calculation utilizes the auxiliary basis: def2/J
   F. Weigend, Phys. Chem. Chem. Phys. 8, 1057 (2006).

================================================================================
                                        WARNINGS
                       Please study these warnings very carefully!
================================================================================


INFO   : the flag for use of the SHARK integral package has been found!

================================================================================
                                       INPUT FILE
================================================================================
NAME = pbeSP.inp
|  1> !PBE def2-TZVP VERYSLOWCONV
|  2> 
|  3> %pal nprocs 6 end 
|  4> 
|  5> *xyzfile 0 5 pbe.xyz
|  6> 
|  7> $new_job
|  8> 
|  9> !PBE def2-TZVP VERYSLOWCONV
| 10>  
| 11> 
| 12> %pal nprocs 6 end 
| 13> 
| 14> *xyzfile 0 3 pbe.xyz
| 15> 
| 16> 
| 17> 
| 18> 
| 19> 
| 20>                          ****END OF INPUT****
================================================================================


                 $$$$$$$$$$$$$$$$$$$$$$$$$$$$$$$$$$$$$$$$$$$$$$ 
                 $ THERE ARE  2 JOBS TO BE PROCESSED THIS RUN $
                 $$$$$$$$$$$$$$$$$$$$$$$$$$$$$$$$$$$$$$$$$$$$$$ 




                 $$$$$$$$$$$$$$$$  JOB NUMBER  1 $$$$$$$$$$$$$$


                       ****************************
                       * Single Point Calculation *
                       ****************************

---------------------------------
CARTESIAN COORDINATES (ANGSTROEM)
---------------------------------
  Au     7.556493    5.540447    9.121005
  Au     5.736210    9.489030    7.502077
  Au     3.674044    8.234908    6.041816
  Au     5.893941    9.229769    4.675734
  Au     5.285677    6.646396    7.724861
  Au     6.556914    8.083021    9.849049
  Au     7.408503    5.179220    6.340537
  Au     5.454462    6.420186    4.893261
  Au     8.075436    7.449969    4.844184
  Au    10.283488    8.674300    7.194182
  Au     8.171453   10.016382    5.957003
  Au     9.855602    5.956114    7.439394
  Au     9.357517    7.631034    9.776413
  Au     8.280636   10.042675    8.758993
  Fe     7.823043    7.692104    7.491621

----------------------------
CARTESIAN COORDINATES (A.U.)
----------------------------
  NO LB      ZA    FRAG     MASS         X           Y           Z
   0 Au   19.0000*   0   196.966   14.279702   10.469928   17.236201
   1 Au   19.0000*   0   196.966   10.839865   17.931669   14.176871
   2 Au   19.0000*   0   196.966    6.942938   15.561721   11.417378
   3 Au   19.0000*   0   196.966   11.137934   17.441735    8.835858
   4 Au   19.0000*   0   196.966    9.988481   12.559867   14.597871
   5 Au   19.0000*   0   196.966   12.390772   15.274696   18.612006
   6 Au   19.0000*   0   196.966   14.000042    9.787307   11.981878
   7 Au   19.0000*   0   196.966   10.307439   12.132393    9.246923
   8 Au   19.0000*   0   196.966   15.260363   14.078402    9.154181
   9 Au   19.0000*   0   196.966   19.432976   16.392051   13.595033
  10 Au   19.0000*   0   196.966   15.441808   18.928220   11.257104
  11 Au   19.0000*   0   196.966   18.624388   11.255425   14.058417
  12 Au   19.0000*   0   196.966   17.683144   14.420564   18.474744
  13 Au   19.0000*   0   196.966   15.648135   18.977904   16.552099
  14 Fe   26.0000    0    55.850   14.783409   14.535970   14.157111
* core charge reduced due to ECP

--------------------------------
INTERNAL COORDINATES (ANGSTROEM)
--------------------------------
 Au     0   0   0     0.000000000000     0.00000000     0.00000000
 Au     1   0   0     4.639576110682     0.00000000     0.00000000
 Au     2   1   0     2.820941451187    95.11024234     0.00000000
 Au     3   2   1     2.789958134417    60.87479621   256.33769597
 Au     3   2   1     2.820172051470    61.55823135     6.93103453
 Au     1   2   3     2.827346635967    35.49161485   233.10461428
 Au     1   2   3     2.807737192198    75.12352837    52.54023066
 Au     7   1   2     2.729996520416   120.28053093   330.05718410
 Au     7   1   2     2.800031359828   114.35104669    39.71012256
 Au     9   7   1     3.449197851797    94.37264455    30.14326108
 Au     4   3   2     2.729005639801   122.47499362    12.34165626
 Au    10   9   7     2.762561751050    67.17381432    21.89809299
 Au     1   2   3     2.836159829523    72.68908895   170.56555236
 Au    11   4   3     2.804240133000   120.28619020   354.99850489
 Fe    10   9   7     2.665889400529    49.78988306   314.00714976

---------------------------
INTERNAL COORDINATES (A.U.)
---------------------------
 Au     0   0   0     0.000000000000     0.00000000     0.00000000
 Au     1   0   0     8.767528226672     0.00000000     0.00000000
 Au     2   1   0     5.330806782569    95.11024234     0.00000000
 Au     3   2   1     5.272256799155    60.87479621   256.33769597
 Au     3   2   1     5.329352827817    61.55823135     6.93103453
 Au     1   2   3     5.342910827642    35.49161485   233.10461428
 Au     1   2   3     5.305854349279    75.12352837    52.54023066
 Au     7   1   2     5.158945770143   120.28053093   330.05718410
 Au     7   1   2     5.291292436465   114.35104669    39.71012256
 Au     9   7   1     6.518039321605    94.37264455    30.14326108
 Au     4   3   2     5.157073277150   122.47499362    12.34165626
 Au    10   9   7     5.220485137531    67.17381432    21.89809299
 Au     1   2   3     5.359565349828    72.68908895   170.56555236
 Au    11   4   3     5.299245865121   120.28619020   354.99850489
 Fe    10   9   7     5.037800870324    49.78988306   314.00714976

---------------------
BASIS SET INFORMATION
---------------------
There are 2 groups of distinct atoms

 Group   1 Type Au  : 8s7p6d1f contracted to 6s4p3d1f pattern {311111/4111/411/1}
 Group   2 Type Fe  : 17s11p7d1f contracted to 6s4p4d1f pattern {842111/6311/4111/1}

Atom   0Au   basis set group =>   1
Atom   1Au   basis set group =>   1
Atom   2Au   basis set group =>   1
Atom   3Au   basis set group =>   1
Atom   4Au   basis set group =>   1
Atom   5Au   basis set group =>   1
Atom   6Au   basis set group =>   1
Atom   7Au   basis set group =>   1
Atom   8Au   basis set group =>   1
Atom   9Au   basis set group =>   1
Atom  10Au   basis set group =>   1
Atom  11Au   basis set group =>   1
Atom  12Au   basis set group =>   1
Atom  13Au   basis set group =>   1
Atom  14Fe   basis set group =>   2
---------------------------------
AUXILIARY/J BASIS SET INFORMATION
---------------------------------
There are 2 groups of distinct atoms

 Group   1 Type Au  : 11s5p5d3f3g contracted to 8s5p5d2f3g pattern {41111111/11111/11111/21/111}
 Group   2 Type Fe  : 19s5p5d3f3g contracted to 8s5p5d2f3g pattern {121111111/11111/11111/21/111}

Atom   0Au   basis set group =>   1
Atom   1Au   basis set group =>   1
Atom   2Au   basis set group =>   1
Atom   3Au   basis set group =>   1
Atom   4Au   basis set group =>   1
Atom   5Au   basis set group =>   1
Atom   6Au   basis set group =>   1
Atom   7Au   basis set group =>   1
Atom   8Au   basis set group =>   1
Atom   9Au   basis set group =>   1
Atom  10Au   basis set group =>   1
Atom  11Au   basis set group =>   1
Atom  12Au   basis set group =>   1
Atom  13Au   basis set group =>   1
Atom  14Fe   basis set group =>   2
-------------------------
ECP PARAMETER INFORMATION
-------------------------

 Group 1, Type Au ECP Def2-ECP (replacing 60 core electrons, lmax=3)

Atom   0Au   ECP group =>   1
Atom   1Au   ECP group =>   1
Atom   2Au   ECP group =>   1
Atom   3Au   ECP group =>   1
Atom   4Au   ECP group =>   1
Atom   5Au   ECP group =>   1
Atom   6Au   ECP group =>   1
Atom   7Au   ECP group =>   1
Atom   8Au   ECP group =>   1
Atom   9Au   ECP group =>   1
Atom  10Au   ECP group =>   1
Atom  11Au   ECP group =>   1
Atom  12Au   ECP group =>   1
Atom  13Au   ECP group =>   1



           ************************************************************
           *        Program running with 6 parallel MPI-processes     *
           *              working on a common directory               *
           ************************************************************
------------------------------------------------------------------------------
                           ORCA GTO INTEGRAL CALCULATION
                           -- RI-GTO INTEGRALS CHOSEN --
------------------------------------------------------------------------------
------------------------------------------------------------------------------
                   ___                                                        
                  /   \      - P O W E R E D   B Y -                         
                 /     \                                                     
                 |  |  |   _    _      __       _____    __    __             
                 |  |  |  | |  | |    /  \     |  _  \  |  |  /  |          
                  \  \/   | |  | |   /    \    | | | |  |  | /  /          
                 / \  \   | |__| |  /  /\  \   | |_| |  |  |/  /          
                |  |  |   |  __  | /  /__\  \  |    /   |      \           
                |  |  |   | |  | | |   __   |  |    \   |  |\   \          
                \     /   | |  | | |  |  |  |  | |\  \  |  | \   \       
                 \___/    |_|  |_| |__|  |__|  |_| \__\ |__|  \__/        
                                                                              
                      - O R C A' S   B I G   F R I E N D -                    
                                      &                                       
                       - I N T E G R A L  F E E D E R -                       
                                                                              
 v1 FN, 2020, v2 2021                                                         
------------------------------------------------------------------------------


Reading SHARK input file pbeSP.SHARKINP.tmp ... ok
----------------------
SHARK INTEGRAL PACKAGE
----------------------

Number of atoms                             ...     15
Number of basis functions                   ...    605
Number of shells                            ...    211
Maximum angular momentum                    ...      3
Integral batch strategy                     ... SHARK/LIBINT Hybrid
RI-J (if used) integral strategy            ... SPLIT-RIJ (Revised 2003 algorithm where possible)
Printlevel                                  ...      1
Contraction scheme used                     ... SEGMENTED contraction
Coulomb Range Separation                    ... NOT USED
Exchange Range Separation                   ... NOT USED
Finite Nucleus Model                        ... NOT USED
Auxiliary Coulomb fitting basis             ... AVAILABLE
   # of basis functions in Aux-J            ...   1335
   # of shells in Aux-J                     ...    345
   Maximum angular momentum in Aux-J        ...      4
Auxiliary J/K fitting basis                 ... NOT available
Auxiliary Correlation fitting basis         ... NOT available
Auxiliary 'external' fitting basis          ... NOT available
Integral threshold                          ...     1.000000e-10
Primitive cut-off                           ...     1.000000e-11
Primitive pair pre-selection threshold      ...     1.000000e-11

Calculating pre-screening integrals         ... done (  0.1 sec) Dimension = 211
Organizing shell pair data                  ... done (  0.3 sec)
Shell pair information
Total number of shell pairs                 ...     22366
Shell pairs after pre-screening             ...     17970
Total number of primitive shell pairs       ...     59609
Primitive shell pairs kept                  ...     34697
          la=0 lb=0:   2822 shell pairs
          la=1 lb=0:   4099 shell pairs
          la=1 lb=1:   1537 shell pairs
          la=2 lb=0:   3576 shell pairs
          la=2 lb=1:   2487 shell pairs
          la=2 lb=2:   1031 shell pairs
          la=3 lb=0:    947 shell pairs
          la=3 lb=1:    734 shell pairs
          la=3 lb=2:    636 shell pairs
          la=3 lb=3:    101 shell pairs

Calculating one electron integrals          ... done (  0.0 sec)
Calculating ECP integrals                   ... done (  8.4 sec)
Calculating RI/J V-Matrix + Cholesky decomp.... done (  0.1 sec)
Calculating Nuclear repulsion               ... done (  0.0 sec) ENN=   5768.719969139549 Eh

SHARK setup successfully completed in   9.1 seconds

Maximum memory used throughout the entire GTOINT-calculation: 34.7 MB


           ************************************************************
           *        Program running with 6 parallel MPI-processes     *
           *              working on a common directory               *
           ************************************************************
-------------------------------------------------------------------------------
                                 ORCA SCF
-------------------------------------------------------------------------------

------------
SCF SETTINGS
------------
Hamiltonian:
 Density Functional     Method          .... DFT(GTOs)
 Exchange Functional    Exchange        .... PBE
   PBE kappa parameter   XKappa         ....  0.804000
   PBE mue parameter    XMuePBE         ....  0.219520
 Correlation Functional Correlation     .... PBE
   PBE beta parameter  CBetaPBE         ....  0.066725
 LDA part of GGA corr.  LDAOpt          .... PW91-LDA
 Gradients option       PostSCFGGA      .... off
   Density functional embedding theory  .... OFF
   NL short-range parameter             ....  6.400000
 RI-approximation to the Coulomb term is turned on
   Number of AuxJ basis functions       .... 1335


General Settings:
 Integral files         IntName         .... pbeSP
 Hartree-Fock type      HFTyp           .... UHF
 Total Charge           Charge          ....    0
 Multiplicity           Mult            ....    5
 Number of Electrons    NEL             ....  292
 Basis Dimension        Dim             ....  605
 Nuclear Repulsion      ENuc            ....   5768.7199691395 Eh

Convergence Acceleration:
 DIIS                   CNVDIIS         .... on
   Start iteration      DIISMaxIt       ....     0
   Startup error        DIISStart       ....  0.200000
   # of expansion vecs  DIISMaxEq       ....     5
   Bias factor          DIISBfac        ....   1.050
   Max. coefficient     DIISMaxC        ....  10.000
 Trust-Rad. Augm. Hess. CNVTRAH         .... auto
   Auto Start mean grad. ratio tolernc. ....  1.125000
   Auto Start start iteration           ....    20
   Auto Start num. interpolation iter.  ....    10
   Max. Number of Micro iterations      ....    16
   Max. Number of Macro iterations      .... Maxiter - #DIIS iter
   Number of Davidson start vectors     ....     2
   Converg. threshold I  (grad. norm)   ....   5.000e-05
   Converg. threshold II (energy diff.) ....   1.000e-06
   Grad. Scal. Fac. for Micro threshold ....   0.100
   Minimum threshold for Micro iter.    ....   0.010
   NR start threshold (gradient norm)   ....   0.001
   Initial trust radius                 ....   0.400
   Minimum AH scaling param. (alpha)    ....   1.000
   Maximum AH scaling param. (alpha)    .... 1000.000
   Orbital update algorithm             .... Taylor
   White noise on init. David. guess    .... on
   Maximum white noise                  ....   0.010
   Quad. conv. algorithm                .... NR
 SOSCF                  CNVSOSCF        .... off
 Level Shifting         CNVShift        .... on
   Level shift para.    LevelShift      ....    0.2500
   Turn off err/grad.   ShiftErr        ....    0.0000
 Zerner damping         CNVZerner       .... off
 Static damping         CNVDamp         .... on
   Fraction old density DampFac         ....    0.9200
   Max. Damping (<1)    DampMax         ....    0.9800
   Min. Damping (>=0)   DampMin         ....    0.0000
   Turn off err/grad.   DampErr         ....    0.0030
 Fernandez-Rico         CNVRico         .... off

SCF Procedure:
 Maximum # iterations   MaxIter         ....   125
 SCF integral mode      SCFMode         .... Direct
   Integral package                     .... SHARK and LIBINT hybrid scheme
 Reset frequency        DirectResetFreq ....    20
 Integral Threshold     Thresh          ....  1.000e-10 Eh
 Primitive CutOff       TCut            ....  1.000e-11 Eh

Convergence Tolerance:
 Convergence Check Mode ConvCheckMode   .... Total+1el-Energy
 Convergence forced     ConvForced      .... 0
 Energy Change          TolE            ....  1.000e-06 Eh
 1-El. energy change                    ....  1.000e-03 Eh
 DIIS Error             TolErr          ....  1.000e-06


Diagonalization of the overlap matrix:
Smallest eigenvalue                        ... 3.028e-04
Time for diagonalization                   ...    0.087 sec
Threshold for overlap eigenvalues          ... 1.000e-08
Number of eigenvalues below threshold      ... 0
Time for construction of square roots      ...    0.032 sec
Total time needed                          ...    0.122 sec

Time for model grid setup =    0.399 sec

------------------------------
INITIAL GUESS: MODEL POTENTIAL
------------------------------
Loading Hartree-Fock densities                     ... done
  calling /media/Programs/ORCA501/orca pbeSP_atom79.inp > pbeSP_atom79.out in order to generate an atomic fitting density for atom 0 (Au with ECP) on-the-fly... 
    atom 0 (Au), assumed electronic state with S=2: 1s2 2s2 2p6 3s2 3p6 4s2 3d10 4p6 5s2 4d10 5p6 6s1 4f14 5d10           ... done
Calculating cut-offs                               ... done
Initializing the effective Hamiltonian             ... done
Setting up the integral package (SHARK)            ... done
Starting the Coulomb interaction                   ... done (   0.4 sec)
Reading the grid                                   ... done
Mapping shells                                     ... done
Starting the XC term evaluation                    ... done (   0.4 sec)
  promolecular density results
     # of electrons  =   1132.013979693
     EX              =  -5175.663715822
     EC              =    -68.995247372
     EX+EC           =  -5244.658963193
Transforming the Hamiltonian                       ... done (   0.0 sec)
Diagonalizing the Hamiltonian                      ... done (   0.0 sec)
Back transforming the eigenvectors                 ... done (   0.0 sec)
Now organizing SCF variables                       ... done
                      ------------------
                      INITIAL GUESS DONE (   1.7 sec)
                      ------------------
-------------------
DFT GRID GENERATION
-------------------

General Integration Accuracy     IntAcc      ... 4.388
Radial Grid Type                 RadialGrid  ... OptM3 with GC (2021)
Angular Grid (max. ang.)         AngularGrid ... 4 (Lebedev-302)
Angular grid pruning method      GridPruning ... 4 (adaptive)
Weight generation scheme         WeightScheme... Becke
Basis function cutoff            BFCut       ... 1.0000e-10
Integration weight cutoff        WCut        ... 1.0000e-14
Angular grids for H and He will be reduced by one unit
Partially contracted basis set               ... off
Rotationally invariant grid construction     ... off

Total number of grid points                  ...   165540
Total number of batches                      ...     2593
Average number of points per batch           ...       63
Average number of grid points per atom       ...    11036
Time for grid setup =    1.280 sec

--------------
SCF ITERATIONS
--------------
ITER       Energy         Delta-E        Max-DP      RMS-DP      [F,P]     Damp
               ***  Starting incremental Fock matrix formation  ***
  0  -3161.4783373430   0.000000000000 0.13605134  0.00073843  0.5570168 0.9200
  1  -3162.8653658109  -1.387028467869 0.10406414  0.00065304  0.3544356 0.9200
                               ***Turning on DIIS***
  2  -3163.5974284419  -0.732062631068 0.06733382  0.00051028  0.2423060 0.9200
  3  -3163.9033039460  -0.305875504096 0.04097806  0.00040148  0.2221863 0.9200
  4  -3163.9889107573  -0.085606811252 0.02607906  0.00035681  0.2036356 0.9200
  5  -3163.9933171404  -0.004406383154 0.02889997  0.00030462  0.1867353 0.9200
  6  -3164.0817337377  -0.088416597221 0.03428776  0.00028293  0.1712413 0.9200
  7  -3164.1817385790  -0.100004841300 0.03783161  0.00026571  0.1571848 0.9200
  8  -3164.2408606341  -0.059122055141 0.03871356  0.00024877  0.1445761 0.9200
  9  -3164.2942007448  -0.053340110670 0.03535140  0.00024710  0.1330632 0.9200
 10  -3164.3457706569  -0.051569912110 0.03217523  0.00022099  0.1222190 0.9200
 11  -3164.3772839307  -0.031513273850 0.02669497  0.00018989  0.1123608 0.9200
 12  -3164.4227949224  -0.045510991703 0.02128210  0.00018034  0.1032574 0.9200
 13  -3164.4771880865  -0.054393164050 0.02123153  0.00016701  0.0947744 0.9200
 14  -3164.5151195706  -0.037931484073 0.01868885  0.00015429  0.0871004 0.9200
 15  -3164.5507623243  -0.035642753708 0.01874616  0.00014941  0.0800478 0.9200
 16  -3164.5870023525  -0.036240028243 0.01683907  0.00014114  0.0735382 0.9200
 17  -3164.6173922483  -0.030389895808 0.01673991  0.00013320  0.0676552 0.9200
 18  -3164.6475989631  -0.030206714828 0.01919580  0.00013918  0.0622130 0.9200
 19  -3164.6779945366  -0.030395573500 0.01920936  0.00014175  0.0571236 0.9200
               *** Restarting incremental Fock matrix formation ***
                                   *** Resetting DIIS ***

 WARNING: the maximum gradient error descreased on average only by a factor   1.1
          during the last 20 iterations

                      *** Initiating the TRAH-SCF procedure ***


TRAH GRID
---------

General Integration Accuracy     IntAcc      ... 3.467
Radial Grid Type                 RadialGrid  ... OptM3 with GC (2021)
Angular Grid (max. ang.)         AngularGrid ... 1 (Lebedev-50)
Angular grid pruning method      GridPruning ... 4 (adaptive)
Weight generation scheme         WeightScheme... Becke
Basis function cutoff            BFCut       ... 1.0000e-10
Integration weight cutoff        WCut        ... 1.0000e-14
Angular grids for H and He will be reduced by one unit
Partially contracted basis set               ... off
Rotationally invariant grid construction     ... off

Total number of grid points                  ...    71378
Total number of batches                      ...     1124
Average number of points per batch           ...       63
Average number of grid points per atom       ...     4759

 --------------------------------------------------------------------------------------------
   Iter.        energy            ||Error||_2        Shift      TRadius  Mac/Mic        Rej.
 --------------------------------------------------------------------------------------------
WARNING: 324 diagonal Hessian elements are negative!
    0      -3164.884311944256     7.844776e-01                     0.400 (TRAH MAcro)   No
WARNING : negative HOMO - LUMO gap : (op = alpha) -0.299063
WARNING : negative HOMO - LUMO gap : (op =  beta) -0.226270
    0     dE    -1.073504e-01     3.987638e-01    -1.0545e-01      0.134 (TRAH MIcro)
    0     dE    -1.518821e-01     6.752046e-02    -1.4249e-01      0.257 (TRAH MIcro)
    0     dE    -1.555991e-01     5.670594e-02    -1.4526e-01      0.267 (TRAH MIcro)
    0     dE    -1.625393e-01     5.002421e-02    -1.4896e-01      0.302 (TRAH MIcro)
    0     dE    -1.730365e-01     7.049109e-02    -1.5339e-01      0.358 (TRAH MIcro)
    0     dE    -1.826202e-01     4.475810e-02    -1.7425e-01      0.400 (TRAH MIcro)
    0     dE    -1.846140e-01     5.644606e-02    -1.9605e-01      0.400 (TRAH MIcro)
    0     dE    -1.704557e-01     3.078536e-02    -3.1349e-01      0.303 (TRAH MIcro)
    0     dE    -1.731988e-01     1.592406e-02    -3.1444e-01      0.315 (TRAH MIcro)
    0     dE    -1.741048e-01     9.814373e-03    -3.1468e-01      0.319 (TRAH MIcro)
WARNING: 1 diagonal Hessian elements are negative!
    1      -3165.041940292181     5.507097e-02                     0.480 (TRAH MAcro)   No
WARNING : negative HOMO - LUMO gap : (op = alpha) -0.006762
    1     dE    -3.396489e-03     2.397675e-01    -3.3837e-03      0.061 (TRAH MIcro)
    1     dE    -1.294766e-02     3.773056e-01    -1.1906e-02      0.296 (TRAH MIcro)
    1     dE    -2.572717e-02     9.229109e-02    -3.1652e-02      0.480 (TRAH MIcro)
    1     dE    -2.705274e-02     3.996533e-02    -3.6336e-02      0.480 (TRAH MIcro)
    1     dE    -2.778729e-02     2.093982e-02    -3.8142e-02      0.480 (TRAH MIcro)
    1     dE    -2.802396e-02     1.059327e-02    -3.8838e-02      0.480 (TRAH MIcro)
    1     dE    -2.807157e-02     5.621707e-03    -3.9162e-02      0.480 (TRAH MIcro)
    1     dE    -2.808611e-02     4.944933e-03    -3.9403e-02      0.480 (TRAH MIcro)
WARNING: 1 diagonal Hessian elements are negative!
    2      -3165.066534705370     3.438295e-02                     0.576 (TRAH MAcro)   No
WARNING : negative HOMO - LUMO gap : (op = alpha) -0.000117
WARNING : small    HOMO - LUMO gap : (op =  beta) 0.014828
    2     dE    -1.774558e-04     1.080533e-01    -1.7745e-04      0.005 (TRAH MIcro)
    2     dE    -1.500893e-03     9.987678e-02    -1.4842e-03      0.106 (TRAH MIcro)
    2     dE    -2.128112e-03     2.315102e-02    -2.0685e-03      0.170 (TRAH MIcro)
    2     dE    -2.246602e-03     1.304689e-02    -2.1758e-03      0.180 (TRAH MIcro)
    2     dE    -2.288669e-03     6.476844e-03    -2.2139e-03      0.184 (TRAH MIcro)
    2     dE    -2.314427e-03     5.646509e-03    -2.2369e-03      0.186 (TRAH MIcro)
    2     dE    -2.330737e-03     5.137354e-03    -2.2500e-03      0.189 (TRAH MIcro)
    2     dE    -2.346020e-03     5.313128e-03    -2.2616e-03      0.193 (TRAH MIcro)
    2     dE    -2.369110e-03     6.387910e-03    -2.2791e-03      0.199 (TRAH MIcro)
    2     dE    -2.424129e-03     9.783140e-03    -2.3221e-03      0.210 (TRAH MIcro)
    2     dE    -2.657444e-03     1.529076e-02    -2.4971e-03      0.253 (TRAH MIcro)
    2     dE    -2.952773e-03     1.664204e-02    -2.6877e-03      0.314 (TRAH MIcro)
    2     dE    -3.469686e-03     2.117850e-02    -2.9653e-03      0.412 (TRAH MIcro)
    2     dE    -4.470921e-03     2.167947e-02    -3.3668e-03      0.573 (TRAH MIcro)
    3      -3165.069676707201     3.406367e-02                     0.576 (TRAH MAcro)   No
WARNING : small    HOMO - LUMO gap : (op = alpha) 0.005552
    3     dE    -2.780811e-04     7.213913e-02    -2.7806e-04      0.008 (TRAH MIcro)
    3     dE    -5.166872e-04     2.903652e-02    -5.1626e-04      0.029 (TRAH MIcro)
    3     dE    -5.982252e-04     2.407815e-02    -5.9719e-04      0.042 (TRAH MIcro)
    3     dE    -7.115622e-04     9.453595e-03    -7.0765e-04      0.074 (TRAH MIcro)
    3     dE    -7.640627e-04     8.038571e-03    -7.5572e-04      0.105 (TRAH MIcro)
    3     dE    -7.866656e-04     5.197178e-03    -7.7506e-04      0.122 (TRAH MIcro)
    3     dE    -7.944311e-04     2.412765e-03    -7.8137e-04      0.129 (TRAH MIcro)
    4      -3165.070484379256     2.786387e-03                     0.691 (TRAH MAcro)   No
WARNING : small    HOMO - LUMO gap : (op = alpha) 0.004696
    4     dE    -1.093028e-07     5.167418e-03    -1.0951e-07      0.000 (TRAH MIcro)
    4     dE    -4.134039e-06     3.201093e-03    -4.1338e-06      0.007 (TRAH MIcro)
    4     dE    -1.114447e-05     2.708107e-03    -1.1138e-05      0.024 (TRAH MIcro)
    4     dE    -1.599691e-05     2.006809e-03    -1.5975e-05      0.037 (TRAH MIcro)
    4     dE    -1.772346e-05     1.179396e-03    -1.7694e-05      0.041 (TRAH MIcro)
    4     dE    -1.846041e-05     6.671554e-04    -1.8426e-05      0.043 (TRAH MIcro)
    4     dE    -1.873925e-05     4.466122e-04    -1.8703e-05      0.044 (TRAH MIcro)
    4     dE    -1.883836e-05     2.155572e-04    -1.8801e-05      0.045 (TRAH MIcro)
    5      -3165.070503378081     2.996037e-04                           (NR   MAcro)
WARNING : small    HOMO - LUMO gap : (op = alpha) 0.004650
    5     dE    -1.738750e-08     2.270056e-04                           (NR   MIcro)
    5     dE    -3.936072e-08     1.019767e-04                           (NR   MIcro)
    5     dE    -4.576027e-08     6.022678e-05                           (NR   MIcro)
    5     dE    -4.824542e-08     4.680626e-05                           (NR   MIcro)
    5     dE    -4.994301e-08     2.788635e-05                           (NR   MIcro)
    5     dE    -5.043918e-08     1.610016e-05                           (NR   MIcro)
    5     dE    -5.056832e-08     8.416215e-06                           (NR   MIcro)
    5     dE    -5.061085e-08     5.718804e-06                           (NR   MIcro)
    5     dE    -5.062869e-08     3.231442e-06                           (NR   MIcro)
    6      -3165.070503428276     3.215308e-06                           (NR   MAcro)
WARNING : small    HOMO - LUMO gap : (op = alpha) 0.004640

               *****************************************************
               *                     SUCCESS                       *
               *           SCF CONVERGED AFTER  83 CYCLES          *
               *****************************************************


----------------
TOTAL SCF ENERGY
----------------

Total Energy       :        -3165.07050343 Eh          -86125.94696 eV

Components:
Nuclear Repulsion  :         5768.71996914 Eh          156974.85081 eV
Electronic Energy  :        -8933.79047257 Eh         -243100.79776 eV
One Electron Energy:       -16612.07272044 Eh         -452037.47986 eV
Two Electron Energy:         7678.28224787 Eh          208936.68210 eV

Virial components:
Potential Energy   :        -5067.74567186 Eh         -137900.37045 eV
Kinetic Energy     :         1902.67516843 Eh           51774.42349 eV
Virial Ratio       :            2.66348442


DFT components:
N(Alpha)           :      148.000041508775 electrons
N(Beta)            :      144.000045031846 electrons
N(Total)           :      292.000086540622 electrons
E(X)               :     -223.023667354225 Eh       
E(C)               :      -12.782452185999 Eh       
E(XC)              :     -235.806119540224 Eh       
DFET-embed. en.    :        0.000000000000 Eh       

---------------
SCF CONVERGENCE
---------------

  Last Energy change         ...   -5.0195e-08  Tolerance :   1.0000e-06
  Last Orbital Gradient      ...    3.2153e-06  Tolerance :   5.0000e-05
  Last Orbital Rotation      ...    1.0040e-03

             **** THE GBW FILE WAS UPDATED (pbeSP.gbw) ****
             **** DENSITY pbeSP.scfp WAS UPDATED ****
             **** ENERGY FILE WAS UPDATED (pbeSP.en.tmp) ****
----------------------
UHF SPIN CONTAMINATION
----------------------

Warning: in a DFT calculation there is little theoretical justification to 
         calculate <S**2> as in Hartree-Fock theory. We will do it anyways
         but you should keep in mind that the values have only limited relevance

Expectation value of <S**2>     :     6.489827
Ideal value S*(S+1) for S=2.0   :     6.000000
Deviation                       :     0.489827

             **** THE GBW FILE WAS UPDATED (pbeSP.gbw) ****
             **** DENSITY pbeSP.scfp WAS UPDATED ****
----------------
ORBITAL ENERGIES
----------------
                 SPIN UP ORBITALS
  NO   OCC          E(Eh)            E(eV) 
   0   1.0000    -254.776895     -6932.8318 
   1   1.0000     -29.618528      -805.9611 
   2   1.0000     -25.560059      -695.5246 
   3   1.0000     -25.550394      -695.2616 
   4   1.0000     -25.549567      -695.2391 
   5   1.0000      -4.033004      -109.7436 
   6   1.0000      -4.032913      -109.7411 
   7   1.0000      -4.032853      -109.7395 
   8   1.0000      -4.032235      -109.7227 
   9   1.0000      -4.032114      -109.7194 
  10   1.0000      -4.031609      -109.7057 
  11   1.0000      -4.030397      -109.6727 
  12   1.0000      -4.030393      -109.6726 
  13   1.0000      -4.025830      -109.5484 
  14   1.0000      -4.023808      -109.4934 
  15   1.0000      -4.023659      -109.4893 
  16   1.0000      -4.021951      -109.4428 
  17   1.0000      -4.020772      -109.4108 
  18   1.0000      -4.020628      -109.4068 
  19   1.0000      -3.397386       -92.4476 
  20   1.0000      -2.249883       -61.2224 
  21   1.0000      -2.249383       -61.2088 
  22   1.0000      -2.248848       -61.1943 
  23   1.0000      -2.247935       -61.1694 
  24   1.0000      -2.247761       -61.1647 
  25   1.0000      -2.247273       -61.1514 
  26   1.0000      -2.247233       -61.1503 
  27   1.0000      -2.245982       -61.1163 
  28   1.0000      -2.245622       -61.1065 
  29   1.0000      -2.245610       -61.1062 
  30   1.0000      -2.245078       -61.0917 
  31   1.0000      -2.244837       -61.0851 
  32   1.0000      -2.244476       -61.0753 
  33   1.0000      -2.244243       -61.0689 
  34   1.0000      -2.243913       -61.0600 
  35   1.0000      -2.243808       -61.0571 
  36   1.0000      -2.243736       -61.0552 
  37   1.0000      -2.242815       -61.0301 
  38   1.0000      -2.242574       -61.0235 
  39   1.0000      -2.242377       -61.0182 
  40   1.0000      -2.242055       -61.0094 
  41   1.0000      -2.241430       -60.9924 
  42   1.0000      -2.241100       -60.9834 
  43   1.0000      -2.240991       -60.9805 
  44   1.0000      -2.240678       -60.9720 
  45   1.0000      -2.240144       -60.9574 
  46   1.0000      -2.238897       -60.9235 
  47   1.0000      -2.238179       -60.9039 
  48   1.0000      -2.237872       -60.8956 
  49   1.0000      -2.237316       -60.8805 
  50   1.0000      -2.237213       -60.8776 
  51   1.0000      -2.236599       -60.8610 
  52   1.0000      -2.235752       -60.8379 
  53   1.0000      -2.235694       -60.8363 
  54   1.0000      -2.234538       -60.8049 
  55   1.0000      -2.233946       -60.7888 
  56   1.0000      -2.233304       -60.7713 
  57   1.0000      -2.233157       -60.7673 
  58   1.0000      -2.232642       -60.7533 
  59   1.0000      -2.232523       -60.7500 
  60   1.0000      -2.231250       -60.7154 
  61   1.0000      -2.230069       -60.6833 
  62   1.0000      -2.224275       -60.5256 
  63   1.0000      -2.204794       -59.9955 
  64   1.0000      -2.202438       -59.9314 
  65   1.0000      -0.442226       -12.0336 
  66   1.0000      -0.394390       -10.7319 
  67   1.0000      -0.389169       -10.5898 
  68   1.0000      -0.386040       -10.5047 
  69   1.0000      -0.382395       -10.4055 
  70   1.0000      -0.379356       -10.3228 
  71   1.0000      -0.377745       -10.2790 
  72   1.0000      -0.376483       -10.2446 
  73   1.0000      -0.371467       -10.1081 
  74   1.0000      -0.364704        -9.9241 
  75   1.0000      -0.359604        -9.7853 
  76   1.0000      -0.357144        -9.7184 
  77   1.0000      -0.354861        -9.6563 
  78   1.0000      -0.353206        -9.6112 
  79   1.0000      -0.351215        -9.5570 
  80   1.0000      -0.348384        -9.4800 
  81   1.0000      -0.347347        -9.4518 
  82   1.0000      -0.344049        -9.3621 
  83   1.0000      -0.343938        -9.3590 
  84   1.0000      -0.342287        -9.3141 
  85   1.0000      -0.340463        -9.2645 
  86   1.0000      -0.338814        -9.2196 
  87   1.0000      -0.336661        -9.1610 
  88   1.0000      -0.335082        -9.1180 
  89   1.0000      -0.330369        -8.9898 
  90   1.0000      -0.327273        -8.9055 
  91   1.0000      -0.324679        -8.8350 
  92   1.0000      -0.323170        -8.7939 
  93   1.0000      -0.321038        -8.7359 
  94   1.0000      -0.319616        -8.6972 
  95   1.0000      -0.315976        -8.5982 
  96   1.0000      -0.314199        -8.5498 
  97   1.0000      -0.312613        -8.5066 
  98   1.0000      -0.311947        -8.4885 
  99   1.0000      -0.308633        -8.3983 
 100   1.0000      -0.305707        -8.3187 
 101   1.0000      -0.302099        -8.2205 
 102   1.0000      -0.300630        -8.1806 
 103   1.0000      -0.298390        -8.1196 
 104   1.0000      -0.297974        -8.1083 
 105   1.0000      -0.297842        -8.1047 
 106   1.0000      -0.291865        -7.9421 
 107   1.0000      -0.290138        -7.8951 
 108   1.0000      -0.287395        -7.8204 
 109   1.0000      -0.283622        -7.7178 
 110   1.0000      -0.281394        -7.6571 
 111   1.0000      -0.278676        -7.5832 
 112   1.0000      -0.277231        -7.5438 
 113   1.0000      -0.276220        -7.5163 
 114   1.0000      -0.275084        -7.4854 
 115   1.0000      -0.272205        -7.4071 
 116   1.0000      -0.271593        -7.3904 
 117   1.0000      -0.268228        -7.2988 
 118   1.0000      -0.268190        -7.2978 
 119   1.0000      -0.266818        -7.2605 
 120   1.0000      -0.265789        -7.2325 
 121   1.0000      -0.264477        -7.1968 
 122   1.0000      -0.263557        -7.1718 
 123   1.0000      -0.262671        -7.1476 
 124   1.0000      -0.260120        -7.0782 
 125   1.0000      -0.259072        -7.0497 
 126   1.0000      -0.258136        -7.0242 
 127   1.0000      -0.257904        -7.0179 
 128   1.0000      -0.256995        -6.9932 
 129   1.0000      -0.256058        -6.9677 
 130   1.0000      -0.255391        -6.9496 
 131   1.0000      -0.253378        -6.8948 
 132   1.0000      -0.252768        -6.8782 
 133   1.0000      -0.252324        -6.8661 
 134   1.0000      -0.251972        -6.8565 
 135   1.0000      -0.250106        -6.8057 
 136   1.0000      -0.247647        -6.7388 
 137   1.0000      -0.245949        -6.6926 
 138   1.0000      -0.244967        -6.6659 
 139   1.0000      -0.244185        -6.6446 
 140   1.0000      -0.243053        -6.6138 
 141   1.0000      -0.242105        -6.5880 
 142   1.0000      -0.240557        -6.5459 
 143   1.0000      -0.238752        -6.4968 
 144   1.0000      -0.219526        -5.9736 
 145   1.0000      -0.206478        -5.6186 
 146   1.0000      -0.201486        -5.4827 
 147   1.0000      -0.185896        -5.0585 
 148   0.0000      -0.181256        -4.9322 
 149   0.0000      -0.145712        -3.9650 
 150   0.0000      -0.136693        -3.7196 
 151   0.0000      -0.128363        -3.4929 
 152   0.0000      -0.121551        -3.3076 
 153   0.0000      -0.118705        -3.2301 
 154   0.0000      -0.109360        -2.9758 
 155   0.0000      -0.074795        -2.0353 
 156   0.0000      -0.068736        -1.8704 
 157   0.0000      -0.068213        -1.8562 
 158   0.0000      -0.058198        -1.5837 
 159   0.0000      -0.050752        -1.3810 
 160   0.0000      -0.045985        -1.2513 
 161   0.0000      -0.040012        -1.0888 
 162   0.0000      -0.026840        -0.7304 
 163   0.0000      -0.016234        -0.4418 
 164   0.0000      -0.015467        -0.4209 
 165   0.0000      -0.006083        -0.1655 
 166   0.0000      -0.004730        -0.1287 
 167   0.0000       0.001858         0.0505 
 168   0.0000       0.023594         0.6420 
 169   0.0000       0.023881         0.6498 
 170   0.0000       0.036562         0.9949 
 171   0.0000       0.041475         1.1286 
 172   0.0000       0.043465         1.1827 
 173   0.0000       0.049406         1.3444 
 174   0.0000       0.052822         1.4374 
 175   0.0000       0.053230         1.4485 
 176   0.0000       0.057636         1.5684 
 177   0.0000       0.061567         1.6753 
 178   0.0000       0.064395         1.7523 
 179   0.0000       0.066384         1.8064 
 180   0.0000       0.072022         1.9598 
 181   0.0000       0.077999         2.1224 
 182   0.0000       0.080984         2.2037 
 183   0.0000       0.084409         2.2969 
 184   0.0000       0.086761         2.3609 
 185   0.0000       0.093943         2.5563 
 186   0.0000       0.094348         2.5673 
 187   0.0000       0.105407         2.8683 
 188   0.0000       0.110398         3.0041 
 189   0.0000       0.112151         3.0518 
 190   0.0000       0.125754         3.4219 
 191   0.0000       0.128773         3.5041 
 192   0.0000       0.129648         3.5279 
 193   0.0000       0.136255         3.7077 
 194   0.0000       0.141513         3.8508 
 195   0.0000       0.146560         3.9881 
 196   0.0000       0.156400         4.2559 
 197   0.0000       0.156906         4.2696 
 198   0.0000       0.160466         4.3665 
 199   0.0000       0.165796         4.5115 
 200   0.0000       0.169491         4.6121 
 201   0.0000       0.171247         4.6599 
 202   0.0000       0.175282         4.7697 
 203   0.0000       0.179358         4.8806 
 204   0.0000       0.184001         5.0069 
 205   0.0000       0.185432         5.0459 
 206   0.0000       0.199455         5.4275 
 207   0.0000       0.200137         5.4460 
 208   0.0000       0.204809         5.5731 
 209   0.0000       0.213538         5.8107 
 210   0.0000       0.216539         5.8923 
 211   0.0000       0.221104         6.0165 
 212   0.0000       0.222169         6.0455 
 213   0.0000       0.225415         6.1339 
 214   0.0000       0.228293         6.2122 
 215   0.0000       0.236681         6.4404 
 216   0.0000       0.237611         6.4657 
 217   0.0000       0.241268         6.5652 
 218   0.0000       0.246603         6.7104 
 219   0.0000       0.249415         6.7869 
 220   0.0000       0.252969         6.8836 
 221   0.0000       0.261571         7.1177 
 222   0.0000       0.262476         7.1423 
 223   0.0000       0.273635         7.4460 
 224   0.0000       0.277145         7.5415 
 225   0.0000       0.289859         7.8875 
 226   0.0000       0.290521         7.9055 
 227   0.0000       0.294245         8.0068 
 228   0.0000       0.297295         8.0898 
 229   0.0000       0.298991         8.1360 
 230   0.0000       0.304804         8.2941 
 231   0.0000       0.308604         8.3975 
 232   0.0000       0.309605         8.4248 
 233   0.0000       0.316414         8.6101 
 234   0.0000       0.319089         8.6829 
 235   0.0000       0.319500         8.6940 
 236   0.0000       0.323191         8.7945 
 237   0.0000       0.325461         8.8563 
 238   0.0000       0.330678         8.9982 
 239   0.0000       0.335119         9.1191 
 240   0.0000       0.338931         9.2228 
 241   0.0000       0.357974         9.7410 
 242   0.0000       0.359109         9.7718 
 243   0.0000       0.364256         9.9119 
 244   0.0000       0.368890        10.0380 
 245   0.0000       0.374671        10.1953 
 246   0.0000       0.382364        10.4047 
 247   0.0000       0.388222        10.5641 
 248   0.0000       0.391406        10.6507 
 249   0.0000       0.396060        10.7773 
 250   0.0000       0.398142        10.8340 
 251   0.0000       0.399224        10.8634 
 252   0.0000       0.406680        11.0663 
 253   0.0000       0.412650        11.2288 
 254   0.0000       0.418441        11.3864 
 255   0.0000       0.419515        11.4156 
 256   0.0000       0.424854        11.5609 
 257   0.0000       0.435181        11.8419 
 258   0.0000       0.444826        12.1043 
 259   0.0000       0.445238        12.1155 
 260   0.0000       0.453584        12.3426 
 261   0.0000       0.458724        12.4825 
 262   0.0000       0.463556        12.6140 
 263   0.0000       0.464230        12.6324 
 264   0.0000       0.470351        12.7989 
 265   0.0000       0.471350        12.8261 
 266   0.0000       0.472567        12.8592 
 267   0.0000       0.481741        13.1088 
 268   0.0000       0.482881        13.1398 
 269   0.0000       0.485889        13.2217 
 270   0.0000       0.487747        13.2723 
 271   0.0000       0.498319        13.5599 
 272   0.0000       0.501313        13.6414 
 273   0.0000       0.503729        13.7072 
 274   0.0000       0.506039        13.7700 
 275   0.0000       0.507210        13.8019 
 276   0.0000       0.510344        13.8872 
 277   0.0000       0.511673        13.9233 
 278   0.0000       0.516900        14.0656 
 279   0.0000       0.517088        14.0707 
 280   0.0000       0.521900        14.2016 
 281   0.0000       0.529067        14.3966 
 282   0.0000       0.536949        14.6111 
 283   0.0000       0.539783        14.6882 
 284   0.0000       0.543321        14.7845 
 285   0.0000       0.547485        14.8978 
 286   0.0000       0.549099        14.9417 
 287   0.0000       0.550392        14.9769 
 288   0.0000       0.560474        15.2513 
 289   0.0000       0.577677        15.7194 
 290   0.0000       0.649220        17.6662 
 291   0.0000       0.657950        17.9037 
 292   0.0000       0.666227        18.1290 
 293   0.0000       0.672851        18.3092 
 294   0.0000       0.685491        18.6531 
 295   0.0000       0.690595        18.7920 
 296   0.0000       0.698206        18.9991 
 297   0.0000       0.702951        19.1283 
 298   0.0000       0.704706        19.1760 
 299   0.0000       0.706787        19.2327 
 300   0.0000       0.711532        19.3618 
 301   0.0000       0.731337        19.9007 
 302   0.0000       0.740987        20.1633 
 303   0.0000       0.741576        20.1793 
 304   0.0000       0.753669        20.5084 
 305   0.0000       0.757895        20.6234 
 306   0.0000       0.772119        21.0104 
 307   0.0000       0.781365        21.2620 
 308   0.0000       0.792503        21.5651 
 309   0.0000       0.800912        21.7939 
 310   0.0000       0.812369        22.1057 
 311   0.0000       0.819818        22.3084 
 312   0.0000       0.827950        22.5297 
 313   0.0000       0.836114        22.7518 
 314   0.0000       0.845790        23.0151 
 315   0.0000       0.849297        23.1105 
 316   0.0000       0.850963        23.1559 
 317   0.0000       0.857569        23.3356 
 318   0.0000       0.877958        23.8904 
 319   0.0000       0.889627        24.2080 
 320   0.0000       0.895452        24.3665 
 321   0.0000       0.900691        24.5090 
 322   0.0000       0.901897        24.5419 
 323   0.0000       0.910330        24.7713 
 324   0.0000       0.920862        25.0579 
 325   0.0000       0.923100        25.1188 
 326   0.0000       0.946217        25.7479 
 327   0.0000       0.957714        26.0607 
 328   0.0000       0.967842        26.3363 
 329   0.0000       0.975870        26.5548 
 330   0.0000       0.989731        26.9320 
 331   0.0000       1.115362        30.3505 
 332   0.0000       1.145322        31.1658 
 333   0.0000       1.155042        31.4303 
 334   0.0000       1.182776        32.1850 
 335   0.0000       1.185693        32.2644 
 336   0.0000       1.201187        32.6860 
 337   0.0000       1.212799        33.0019 
 338   0.0000       1.222464        33.2649 
 339   0.0000       1.251675        34.0598 
 340   0.0000       1.257066        34.2065 
 341   0.0000       1.261968        34.3399 
 342   0.0000       1.273773        34.6611 
 343   0.0000       1.285390        34.9772 
 344   0.0000       1.286057        34.9954 
 345   0.0000       1.291237        35.1364 
 346   0.0000       1.291959        35.1560 
 347   0.0000       1.297152        35.2973 
 348   0.0000       1.299440        35.3596 
 349   0.0000       1.302563        35.4445 
 350   0.0000       1.322085        35.9758 
 351   0.0000       1.323898        36.0251 
 352   0.0000       1.330702        36.2102 
 353   0.0000       1.341843        36.5134 
 354   0.0000       1.354905        36.8688 
 355   0.0000       1.357686        36.9445 
 356   0.0000       1.361459        37.0472 
 357   0.0000       1.366166        37.1753 
 358   0.0000       1.382122        37.6095 
 359   0.0000       1.389727        37.8164 
 360   0.0000       1.390173        37.8285 
 361   0.0000       1.402738        38.1704 
 362   0.0000       1.407064        38.2882 
 363   0.0000       1.407662        38.3044 
 364   0.0000       1.418086        38.5881 
 365   0.0000       1.420100        38.6429 
 366   0.0000       1.421510        38.6813 
 367   0.0000       1.427416        38.8420 
 368   0.0000       1.428780        38.8791 
 369   0.0000       1.434100        39.0238 
 370   0.0000       1.436305        39.0838 
 371   0.0000       1.440463        39.1970 
 372   0.0000       1.443673        39.2843 
 373   0.0000       1.445956        39.3465 
 374   0.0000       1.452398        39.5218 
 375   0.0000       1.453588        39.5541 
 376   0.0000       1.457556        39.6621 
 377   0.0000       1.459435        39.7132 
 378   0.0000       1.460270        39.7360 
 379   0.0000       1.463037        39.8113 
 380   0.0000       1.467812        39.9412 
 381   0.0000       1.470516        40.0148 
 382   0.0000       1.472958        40.0812 
 383   0.0000       1.473788        40.1038 
 384   0.0000       1.475793        40.1584 
 385   0.0000       1.479140        40.2495 
 386   0.0000       1.481528        40.3144 
 387   0.0000       1.483514        40.3685 
 388   0.0000       1.484451        40.3940 
 389   0.0000       1.486100        40.4388 
 390   0.0000       1.488171        40.4952 
 391   0.0000       1.489164        40.5222 
 392   0.0000       1.489198        40.5231 
 393   0.0000       1.491905        40.5968 
 394   0.0000       1.492635        40.6167 
 395   0.0000       1.493580        40.6424 
 396   0.0000       1.494111        40.6568 
 397   0.0000       1.494923        40.6789 
 398   0.0000       1.496726        40.7280 
 399   0.0000       1.497377        40.7457 
 400   0.0000       1.499600        40.8062 
 401   0.0000       1.500719        40.8366 
 402   0.0000       1.501196        40.8496 
 403   0.0000       1.502680        40.8900 
 404   0.0000       1.502804        40.8934 
 405   0.0000       1.503193        40.9039 
 406   0.0000       1.505835        40.9759 
 407   0.0000       1.506736        41.0004 
 408   0.0000       1.510497        41.1027 
 409   0.0000       1.511284        41.1241 
 410   0.0000       1.513372        41.1809 
 411   0.0000       1.513749        41.1912 
 412   0.0000       1.514928        41.2233 
 413   0.0000       1.516435        41.2643 
 414   0.0000       1.518810        41.3289 
 415   0.0000       1.519120        41.3374 
 416   0.0000       1.520254        41.3682 
 417   0.0000       1.522337        41.4249 
 418   0.0000       1.523612        41.4596 
 419   0.0000       1.524370        41.4802 
 420   0.0000       1.527062        41.5535 
 421   0.0000       1.529563        41.6215 
 422   0.0000       1.530963        41.6596 
 423   0.0000       1.535022        41.7701 
 424   0.0000       1.537188        41.8290 
 425   0.0000       1.542105        41.9628 
 426   0.0000       1.544786        42.0358 
 427   0.0000       1.547716        42.1155 
 428   0.0000       1.552166        42.2366 
 429   0.0000       1.552426        42.2437 
 430   0.0000       1.554094        42.2891 
 431   0.0000       1.554399        42.2974 
 432   0.0000       1.558759        42.4160 
 433   0.0000       1.560689        42.4685 
 434   0.0000       1.566576        42.6287 
 435   0.0000       1.567257        42.6472 
 436   0.0000       1.568325        42.6763 
 437   0.0000       1.568583        42.6833 
 438   0.0000       1.571743        42.7693 
 439   0.0000       1.573175        42.8083 
 440   0.0000       1.573597        42.8198 
 441   0.0000       1.577860        42.9358 
 442   0.0000       1.581726        43.0409 
 443   0.0000       1.582846        43.0714 
 444   0.0000       1.588387        43.2222 
 445   0.0000       1.588634        43.2289 
 446   0.0000       1.589056        43.2404 
 447   0.0000       1.592690        43.3393 
 448   0.0000       1.595187        43.4072 
 449   0.0000       1.599532        43.5255 
 450   0.0000       1.603809        43.6419 
 451   0.0000       1.607417        43.7401 
 452   0.0000       1.608696        43.7749 
 453   0.0000       1.611856        43.8608 
 454   0.0000       1.616653        43.9914 
 455   0.0000       1.618102        44.0308 
 456   0.0000       1.622288        44.1447 
 457   0.0000       1.622971        44.1633 
 458   0.0000       1.627538        44.2876 
 459   0.0000       1.629389        44.3379 
 460   0.0000       1.633543        44.4510 
 461   0.0000       1.638169        44.5768 
 462   0.0000       1.647510        44.8310 
 463   0.0000       1.649880        44.8955 
 464   0.0000       1.655847        45.0579 
 465   0.0000       1.662744        45.2456 
 466   0.0000       1.668471        45.4014 
 467   0.0000       1.671553        45.4853 
 468   0.0000       1.676086        45.6086 
 469   0.0000       1.689389        45.9706 
 470   0.0000       1.691499        46.0280 
 471   0.0000       1.707311        46.4583 
 472   0.0000       1.713480        46.6262 
 473   0.0000       1.722555        46.8731 
 474   0.0000       1.726925        46.9920 
 475   0.0000       1.727706        47.0133 
 476   0.0000       1.734219        47.1905 
 477   0.0000       1.736010        47.2392 
 478   0.0000       1.749724        47.6124 
 479   0.0000       1.753925        47.7267 
 480   0.0000       1.764582        48.0167 
 481   0.0000       1.767826        48.1050 
 482   0.0000       1.776075        48.3295 
 483   0.0000       1.778610        48.3984 
 484   0.0000       1.783218        48.5238 
 485   0.0000       1.786782        48.6208 
 486   0.0000       1.789838        48.7040 
 487   0.0000       1.795497        48.8580 
 488   0.0000       1.798351        48.9356 
 489   0.0000       1.812722        49.3267 
 490   0.0000       1.818675        49.4886 
 491   0.0000       1.829305        49.7779 
 492   0.0000       1.833231        49.8848 
 493   0.0000       1.842551        50.1384 
 494   0.0000       1.843138        50.1543 
 495   0.0000       1.847316        50.2680 
 496   0.0000       1.852111        50.3985 
 497   0.0000       1.859173        50.5907 
 498   0.0000       1.870663        50.9033 
 499   0.0000       1.872718        50.9592 
 500   0.0000       1.912855        52.0514 
 501   0.0000       1.970012        53.6068 
 502   0.0000       2.024411        55.0870 
 503   0.0000       2.080929        56.6249 
 504   0.0000       2.097314        57.0708 
 505   0.0000       2.174494        59.1710 
 506   0.0000       2.254101        61.3372 
 507   0.0000       2.306745        62.7697 
 508   0.0000       2.332995        63.4840 
 509   0.0000       2.390364        65.0451 
 510   0.0000       2.419505        65.8381 
 511   0.0000       2.428810        66.0913 
 512   0.0000       2.460048        66.9413 
 513   0.0000       2.471422        67.2508 
 514   0.0000       2.486738        67.6676 
 515   0.0000       2.490276        67.7639 
 516   0.0000       2.508556        68.2613 
 517   0.0000       2.525221        68.7148 
 518   0.0000       2.538008        69.0627 
 519   0.0000       2.549922        69.3869 
 520   0.0000       2.563798        69.7645 
 521   0.0000       2.606319        70.9215 
 522   0.0000       3.415146        92.9308 
 523   0.0000       3.552961        96.6810 
 524   0.0000       3.659829        99.5890 
 525   0.0000       3.669606        99.8551 
 526   0.0000       3.697480       100.6135 
 527   0.0000       3.735061       101.6362 
 528   0.0000       3.881704       105.6265 
 529   0.0000       3.885647       105.7338 
 530   0.0000       3.888369       105.8079 
 531   0.0000       3.896729       106.0354 
 532   0.0000       3.898010       106.0702 
 533   0.0000       3.904235       106.2396 
 534   0.0000       3.904285       106.2410 
 535   0.0000      24.056261       654.6041 
 536   0.0000      24.125114       656.4777 
 537   0.0000      24.278520       660.6521 
 538   0.0000      24.318769       661.7473 
 539   0.0000      24.407495       664.1617 
 540   0.0000      24.642291       670.5508 
 541   0.0000      24.689152       671.8260 
 542   0.0000      24.949424       678.9084 
 543   0.0000      25.050245       681.6518 
 544   0.0000      25.172357       684.9747 
 545   0.0000      25.345910       689.6973 
 546   0.0000      25.365309       690.2251 
 547   0.0000      25.452255       692.5911 
 548   0.0000      25.492733       693.6925 
 549   0.0000      25.631982       697.4817 
 550   0.0000      25.645463       697.8485 
 551   0.0000      25.716254       699.7748 
 552   0.0000      25.757832       700.9062 
 553   0.0000      26.026767       708.2243 
 554   0.0000      26.048389       708.8127 
 555   0.0000      26.119670       710.7524 
 556   0.0000      26.390014       718.1088 
 557   0.0000      26.419752       718.9180 
 558   0.0000      26.476674       720.4669 
 559   0.0000      26.599651       723.8133 
 560   0.0000      26.604039       723.9327 
 561   0.0000      26.763049       728.2596 
 562   0.0000      26.788300       728.9467 
 563   0.0000      26.871452       731.2094 
 564   0.0000      26.921644       732.5752 
 565   0.0000      27.217438       740.6241 
 566   0.0000      27.489117       748.0169 
 567   0.0000      27.507011       748.5038 
 568   0.0000      27.842382       757.6297 
 569   0.0000      27.882700       758.7268 
 570   0.0000      28.046953       763.1964 
 571   0.0000      28.567197       777.3530 
 572   0.0000      28.852493       785.1163 
 573   0.0000      29.322546       797.9070 
 574   0.0000      29.814308       811.2886 
 575   0.0000      30.160651       820.7130 
 576   0.0000      32.266303       878.0108 
 577   0.0000      43.903624      1194.6784 
 578   0.0000      44.024187      1197.9590 
 579   0.0000      44.081536      1199.5196 
 580   0.0000      44.083025      1199.5601 
 581   0.0000      44.112435      1200.3604 
 582   0.0000      44.119646      1200.5566 
 583   0.0000      44.127757      1200.7773 
 584   0.0000      44.140292      1201.1184 
 585   0.0000      44.140918      1201.1354 
 586   0.0000      44.151654      1201.4276 
 587   0.0000      44.177968      1202.1436 
 588   0.0000      44.180003      1202.1990 
 589   0.0000      44.213870      1203.1206 
 590   0.0000      44.233268      1203.6484 
 591   0.0000     205.086252      5580.6806 
 592   0.0000     205.137214      5582.0674 
 593   0.0000     205.160051      5582.6888 
 594   0.0000     205.162888      5582.7660 
 595   0.0000     205.177382      5583.1604 
 596   0.0000     205.183852      5583.3365 
 597   0.0000     205.185205      5583.3733 
 598   0.0000     205.189113      5583.4796 
 599   0.0000     205.191839      5583.5538 
 600   0.0000     205.194501      5583.6262 
 601   0.0000     205.203484      5583.8707 
 602   0.0000     205.205058      5583.9135 
 603   0.0000     205.215909      5584.2088 
 604   0.0000     205.228668      5584.5560 

                 SPIN DOWN ORBITALS
  NO   OCC          E(Eh)            E(eV) 
   0   1.0000    -254.776162     -6932.8118 
   1   1.0000     -29.556794      -804.2812 
   2   1.0000     -25.510117      -694.1656 
   3   1.0000     -25.505102      -694.0291 
   4   1.0000     -25.504909      -694.0239 
   5   1.0000      -4.031943      -109.7147 
   6   1.0000      -4.031909      -109.7138 
   7   1.0000      -4.031851      -109.7122 
   8   1.0000      -4.031799      -109.7108 
   9   1.0000      -4.031727      -109.7089 
  10   1.0000      -4.031414      -109.7004 
  11   1.0000      -4.029978      -109.6613 
  12   1.0000      -4.029971      -109.6611 
  13   1.0000      -4.025099      -109.5285 
  14   1.0000      -4.023124      -109.4748 
  15   1.0000      -4.022978      -109.4708 
  16   1.0000      -4.021808      -109.4390 
  17   1.0000      -4.020670      -109.4080 
  18   1.0000      -4.020516      -109.4038 
  19   1.0000      -3.258886       -88.6788 
  20   1.0000      -2.248630       -61.1883 
  21   1.0000      -2.248079       -61.1733 
  22   1.0000      -2.247508       -61.1578 
  23   1.0000      -2.247448       -61.1562 
  24   1.0000      -2.247142       -61.1479 
  25   1.0000      -2.246636       -61.1341 
  26   1.0000      -2.246471       -61.1296 
  27   1.0000      -2.245257       -61.0965 
  28   1.0000      -2.244907       -61.0870 
  29   1.0000      -2.244847       -61.0854 
  30   1.0000      -2.244138       -61.0661 
  31   1.0000      -2.243927       -61.0604 
  32   1.0000      -2.243801       -61.0569 
  33   1.0000      -2.243351       -61.0447 
  34   1.0000      -2.243295       -61.0432 
  35   1.0000      -2.243181       -61.0401 
  36   1.0000      -2.242693       -61.0268 
  37   1.0000      -2.242391       -61.0186 
  38   1.0000      -2.242152       -61.0120 
  39   1.0000      -2.241824       -61.0031 
  40   1.0000      -2.241538       -60.9953 
  41   1.0000      -2.241219       -60.9867 
  42   1.0000      -2.240847       -60.9765 
  43   1.0000      -2.240474       -60.9664 
  44   1.0000      -2.239723       -60.9460 
  45   1.0000      -2.238868       -60.9227 
  46   1.0000      -2.237890       -60.8961 
  47   1.0000      -2.237813       -60.8940 
  48   1.0000      -2.237259       -60.8789 
  49   1.0000      -2.236897       -60.8691 
  50   1.0000      -2.236750       -60.8651 
  51   1.0000      -2.236508       -60.8585 
  52   1.0000      -2.235699       -60.8365 
  53   1.0000      -2.234915       -60.8151 
  54   1.0000      -2.234456       -60.8026 
  55   1.0000      -2.233768       -60.7839 
  56   1.0000      -2.233194       -60.7683 
  57   1.0000      -2.232733       -60.7558 
  58   1.0000      -2.232505       -60.7495 
  59   1.0000      -2.232226       -60.7420 
  60   1.0000      -2.231040       -60.7097 
  61   1.0000      -2.229884       -60.6782 
  62   1.0000      -2.078864       -56.5688 
  63   1.0000      -2.073630       -56.4263 
  64   1.0000      -2.072843       -56.4049 
  65   1.0000      -0.437409       -11.9025 
  66   1.0000      -0.392813       -10.6890 
  67   1.0000      -0.387762       -10.5516 
  68   1.0000      -0.382950       -10.4206 
  69   1.0000      -0.370689       -10.0870 
  70   1.0000      -0.369418       -10.0524 
  71   1.0000      -0.367387        -9.9971 
  72   1.0000      -0.366439        -9.9713 
  73   1.0000      -0.364125        -9.9084 
  74   1.0000      -0.360642        -9.8136 
  75   1.0000      -0.355569        -9.6755 
  76   1.0000      -0.354425        -9.6444 
  77   1.0000      -0.353887        -9.6297 
  78   1.0000      -0.350406        -9.5350 
  79   1.0000      -0.348043        -9.4707 
  80   1.0000      -0.347245        -9.4490 
  81   1.0000      -0.346852        -9.4383 
  82   1.0000      -0.343187        -9.3386 
  83   1.0000      -0.342283        -9.3140 
  84   1.0000      -0.341307        -9.2874 
  85   1.0000      -0.340120        -9.2551 
  86   1.0000      -0.337852        -9.1934 
  87   1.0000      -0.334664        -9.1067 
  88   1.0000      -0.331898        -9.0314 
  89   1.0000      -0.328262        -8.9325 
  90   1.0000      -0.324958        -8.8426 
  91   1.0000      -0.323511        -8.8032 
  92   1.0000      -0.319566        -8.6958 
  93   1.0000      -0.315832        -8.5942 
  94   1.0000      -0.314610        -8.5610 
  95   1.0000      -0.312374        -8.5001 
  96   1.0000      -0.309991        -8.4353 
  97   1.0000      -0.306850        -8.3498 
  98   1.0000      -0.305495        -8.3129 
  99   1.0000      -0.299566        -8.1516 
 100   1.0000      -0.299001        -8.1362 
 101   1.0000      -0.297794        -8.1034 
 102   1.0000      -0.297148        -8.0858 
 103   1.0000      -0.293283        -7.9806 
 104   1.0000      -0.290935        -7.9167 
 105   1.0000      -0.288647        -7.8545 
 106   1.0000      -0.286781        -7.8037 
 107   1.0000      -0.283313        -7.7093 
 108   1.0000      -0.281996        -7.6735 
 109   1.0000      -0.280345        -7.6286 
 110   1.0000      -0.279248        -7.5987 
 111   1.0000      -0.277686        -7.5562 
 112   1.0000      -0.275534        -7.4977 
 113   1.0000      -0.273990        -7.4556 
 114   1.0000      -0.272106        -7.4044 
 115   1.0000      -0.270810        -7.3691 
 116   1.0000      -0.267919        -7.2905 
 117   1.0000      -0.266903        -7.2628 
 118   1.0000      -0.265819        -7.2333 
 119   1.0000      -0.263814        -7.1787 
 120   1.0000      -0.263326        -7.1655 
 121   1.0000      -0.262715        -7.1488 
 122   1.0000      -0.260334        -7.0841 
 123   1.0000      -0.257352        -7.0029 
 124   1.0000      -0.257071        -6.9953 
 125   1.0000      -0.256891        -6.9904 
 126   1.0000      -0.253508        -6.8983 
 127   1.0000      -0.252887        -6.8814 
 128   1.0000      -0.251863        -6.8535 
 129   1.0000      -0.251796        -6.8517 
 130   1.0000      -0.249380        -6.7860 
 131   1.0000      -0.248253        -6.7553 
 132   1.0000      -0.246262        -6.7011 
 133   1.0000      -0.244942        -6.6652 
 134   1.0000      -0.244623        -6.6565 
 135   1.0000      -0.243245        -6.6190 
 136   1.0000      -0.241859        -6.5813 
 137   1.0000      -0.240131        -6.5343 
 138   1.0000      -0.238435        -6.4882 
 139   1.0000      -0.222221        -6.0469 
 140   1.0000      -0.212526        -5.7831 
 141   1.0000      -0.210420        -5.7258 
 142   1.0000      -0.200332        -5.4513 
 143   1.0000      -0.198870        -5.4115 
 144   0.0000      -0.178055        -4.8451 
 145   0.0000      -0.172318        -4.6890 
 146   0.0000      -0.171751        -4.6736 
 147   0.0000      -0.160571        -4.3694 
 148   0.0000      -0.157981        -4.2989 
 149   0.0000      -0.138992        -3.7822 
 150   0.0000      -0.132279        -3.5995 
 151   0.0000      -0.122551        -3.3348 
 152   0.0000      -0.118061        -3.2126 
 153   0.0000      -0.115655        -3.1471 
 154   0.0000      -0.107209        -2.9173 
 155   0.0000      -0.070807        -1.9268 
 156   0.0000      -0.067581        -1.8390 
 157   0.0000      -0.065865        -1.7923 
 158   0.0000      -0.055361        -1.5064 
 159   0.0000      -0.048637        -1.3235 
 160   0.0000      -0.043523        -1.1843 
 161   0.0000      -0.036032        -0.9805 
 162   0.0000      -0.024528        -0.6674 
 163   0.0000      -0.012553        -0.3416 
 164   0.0000      -0.012123        -0.3299 
 165   0.0000      -0.002048        -0.0557 
 166   0.0000      -0.000340        -0.0093 
 167   0.0000       0.004228         0.1151 
 168   0.0000       0.026447         0.7197 
 169   0.0000       0.028087         0.7643 
 170   0.0000       0.040451         1.1007 
 171   0.0000       0.044281         1.2049 
 172   0.0000       0.045731         1.2444 
 173   0.0000       0.050785         1.3819 
 174   0.0000       0.054476         1.4824 
 175   0.0000       0.055336         1.5058 
 176   0.0000       0.060395         1.6434 
 177   0.0000       0.064421         1.7530 
 178   0.0000       0.066894         1.8203 
 179   0.0000       0.069116         1.8807 
 180   0.0000       0.073390         1.9970 
 181   0.0000       0.080596         2.1931 
 182   0.0000       0.084042         2.2869 
 183   0.0000       0.086210         2.3459 
 184   0.0000       0.089012         2.4221 
 185   0.0000       0.095038         2.5861 
 186   0.0000       0.097210         2.6452 
 187   0.0000       0.106761         2.9051 
 188   0.0000       0.112540         3.0624 
 189   0.0000       0.115690         3.1481 
 190   0.0000       0.127635         3.4731 
 191   0.0000       0.131452         3.5770 
 192   0.0000       0.131501         3.5783 
 193   0.0000       0.140094         3.8121 
 194   0.0000       0.144721         3.9381 
 195   0.0000       0.150581         4.0975 
 196   0.0000       0.159841         4.3495 
 197   0.0000       0.161838         4.4038 
 198   0.0000       0.163520         4.4496 
 199   0.0000       0.168961         4.5977 
 200   0.0000       0.173156         4.7118 
 201   0.0000       0.176908         4.8139 
 202   0.0000       0.178471         4.8564 
 203   0.0000       0.184862         5.0303 
 204   0.0000       0.189195         5.1482 
 205   0.0000       0.195272         5.3136 
 206   0.0000       0.201085         5.4718 
 207   0.0000       0.201899         5.4939 
 208   0.0000       0.206909         5.6303 
 209   0.0000       0.215295         5.8585 
 210   0.0000       0.217770         5.9258 
 211   0.0000       0.222257         6.0479 
 212   0.0000       0.223703         6.0873 
 213   0.0000       0.226217         6.1557 
[...]
      f-2     :     0.001189
      f+3     :     0.000734
      f-3     :     0.000973
  5 Aus       :     2.510230  s :     2.510230
      pz      :     2.121875  p :     6.506459
      px      :     2.189853
      py      :     2.194732
      dz2     :     1.975460  d :     9.878103
      dxz     :     1.961775
      dyz     :     1.981274
      dx2y2   :     1.983496
      dxy     :     1.976099
      f0      :     0.000782  f :     0.005922
      f+1     :     0.000965
      f-1     :     0.000902
      f+2     :     0.000727
      f-2     :     0.000943
      f+3     :     0.000933
      f-3     :     0.000670
  6 Aus       :     2.534962  s :     2.534962
      pz      :     2.225601  p :     6.533507
      px      :     2.210491
      py      :     2.097415
      dz2     :     1.977612  d :     9.866874
      dxz     :     1.970787
      dyz     :     1.973937
      dx2y2   :     1.955154
      dxy     :     1.989385
      f0      :     0.001211  f :     0.006589
      f+1     :     0.000696
      f-1     :     0.000764
      f+2     :     0.001069
      f-2     :     0.001143
      f+3     :     0.000754
      f-3     :     0.000951
  7 Aus       :     2.585407  s :     2.585407
      pz      :     2.130907  p :     6.520075
      px      :     2.208740
      py      :     2.180428
      dz2     :     1.982430  d :     9.913244
      dxz     :     1.981725
      dyz     :     1.986141
      dx2y2   :     1.976859
      dxy     :     1.986089
      f0      :     0.001009  f :     0.005718
      f+1     :     0.000747
      f-1     :     0.000680
      f+2     :     0.000533
      f-2     :     0.000794
      f+3     :     0.000832
      f-3     :     0.001122
  8 Aus       :     2.523354  s :     2.523354
      pz      :     2.118957  p :     6.521847
      px      :     2.173897
      py      :     2.228993
      dz2     :     1.935897  d :     9.880031
      dxz     :     1.980580
      dyz     :     1.983723
      dx2y2   :     1.983995
      dxy     :     1.995836
      f0      :     0.000920  f :     0.005748
      f+1     :     0.000651
      f-1     :     0.000818
      f+2     :     0.000785
      f-2     :     0.000568
      f+3     :     0.000796
      f-3     :     0.001209
  9 Aus       :     2.580594  s :     2.580594
      pz      :     2.164197  p :     6.455092
      px      :     2.105358
      py      :     2.185536
      dz2     :     1.969120  d :     9.868110
      dxz     :     1.989608
      dyz     :     1.979054
      dx2y2   :     1.963856
      dxy     :     1.966471
      f0      :     0.000609  f :     0.005156
      f+1     :     0.000635
      f-1     :     0.000628
      f+2     :     0.000628
      f-2     :     0.000834
      f+3     :     0.000797
      f-3     :     0.001026
 10 Aus       :     2.536043  s :     2.536043
      pz      :     2.212950  p :     6.533238
      px      :     2.209703
      py      :     2.110585
      dz2     :     1.984261  d :     9.867042
      dxz     :     1.971619
      dyz     :     1.962132
      dx2y2   :     1.959656
      dxy     :     1.989373
      f0      :     0.001283  f :     0.006580
      f+1     :     0.000750
      f-1     :     0.000684
      f+2     :     0.001206
      f-2     :     0.000891
      f+3     :     0.000736
      f-3     :     0.001030
 11 Aus       :     2.580638  s :     2.580638
      pz      :     2.160889  p :     6.455084
      px      :     2.137691
      py      :     2.156503
      dz2     :     1.969254  d :     9.868794
      dxz     :     1.985949
      dyz     :     1.983574
      dx2y2   :     1.993188
      dxy     :     1.936829
      f0      :     0.000554  f :     0.005181
      f+1     :     0.000564
      f-1     :     0.000709
      f+2     :     0.000894
      f-2     :     0.000584
      f+3     :     0.000883
      f-3     :     0.000991
 12 Aus       :     2.570339  s :     2.570339
      pz      :     2.145649  p :     6.509525
      px      :     2.159718
      py      :     2.204158
      dz2     :     1.990540  d :     9.879024
      dxz     :     1.950758
      dyz     :     1.991193
      dx2y2   :     1.970138
      dxy     :     1.976395
      f0      :     0.000719  f :     0.005188
      f+1     :     0.000857
      f-1     :     0.000816
      f+2     :     0.000606
      f-2     :     0.000686
      f+3     :     0.000890
      f-3     :     0.000613
 13 Aus       :     2.535919  s :     2.535919
      pz      :     2.195192  p :     6.508492
      px      :     2.190483
      py      :     2.122818
      dz2     :     1.978440  d :     9.868643
      dxz     :     1.972694
      dyz     :     1.961616
      dx2y2   :     1.964463
      dxy     :     1.991429
      f0      :     0.001141  f :     0.005745
      f+1     :     0.000594
      f-1     :     0.000704
      f+2     :     0.000731
      f-2     :     0.000913
      f+3     :     0.000904
      f-3     :     0.000758
 14 Fes       :     6.263670  s :     6.263670
      pz      :     4.191772  p :    12.591856
      px      :     4.197142
      py      :     4.202943
      dz2     :     1.506599  d :     7.829417
      dxz     :     1.753625
      dyz     :     1.457097
      dx2y2   :     1.669986
      dxy     :     1.442110
      f0      :     0.000096  f :     0.000589
      f+1     :     0.000100
      f-1     :     0.000066
      f+2     :     0.000095
      f-2     :     0.000052
      f+3     :     0.000073
      f-3     :     0.000108

SPIN
  0 Aus       :    -0.038394  s :    -0.038394
      pz      :    -0.005471  p :    -0.039640
      px      :    -0.024372
      py      :    -0.009798
      dz2     :    -0.007898  d :    -0.002678
      dxz     :    -0.009310
      dyz     :     0.013227
      dx2y2   :     0.005015
      dxy     :    -0.003712
      f0      :     0.000009  f :     0.000074
      f+1     :    -0.000019
      f-1     :     0.000034
      f+2     :     0.000063
      f-2     :     0.000014
      f+3     :    -0.000016
      f-3     :    -0.000012
  1 Aus       :    -0.044179  s :    -0.044179
      pz      :    -0.013316  p :    -0.035806
      px      :    -0.001722
      py      :    -0.020768
      dz2     :     0.002779  d :    -0.011414
      dxz     :    -0.009890
      dyz     :    -0.002529
      dx2y2   :    -0.008168
      dxy     :     0.006394
      f0      :     0.000013  f :     0.000048
      f+1     :     0.000025
      f-1     :    -0.000004
      f+2     :    -0.000029
      f-2     :    -0.000017
      f+3     :    -0.000004
      f-3     :     0.000064
  2 Aus       :    -0.025945  s :    -0.025945
      pz      :    -0.008795  p :    -0.020356
      px      :    -0.007009
      py      :    -0.004552
      dz2     :    -0.005220  d :    -0.024308
      dxz     :    -0.012154
      dyz     :     0.000316
      dx2y2   :    -0.001868
      dxy     :    -0.005381
      f0      :    -0.000011  f :    -0.000063
      f+1     :    -0.000024
      f-1     :    -0.000013
      f+2     :     0.000000
      f-2     :     0.000002
      f+3     :    -0.000012
      f-3     :    -0.000006
  3 Aus       :     0.019956  s :     0.019956
      pz      :     0.004906  p :    -0.003220
      px      :    -0.011353
      py      :     0.003227
      dz2     :    -0.009114  d :    -0.024240
      dxz     :    -0.000729
      dyz     :    -0.004239
      dx2y2   :    -0.004182
      dxy     :    -0.005977
      f0      :    -0.000018  f :    -0.000074
      f+1     :    -0.000023
      f-1     :    -0.000003
      f+2     :    -0.000006
      f-2     :    -0.000003
      f+3     :    -0.000008
      f-3     :    -0.000012
  4 Aus       :    -0.043087  s :    -0.043087
      pz      :    -0.011944  p :    -0.036035
      px      :     0.002062
      py      :    -0.026154
      dz2     :     0.001183  d :    -0.012239
      dxz     :    -0.008735
      dyz     :    -0.002703
      dx2y2   :     0.001635
      dxy     :    -0.003618
      f0      :     0.000003  f :     0.000047
      f+1     :     0.000035
      f-1     :    -0.000006
      f+2     :    -0.000007
      f-2     :    -0.000042
      f+3     :     0.000024
      f-3     :     0.000039
  5 Aus       :    -0.032557  s :    -0.032557
      pz      :     0.004267  p :    -0.049968
      px      :    -0.015811
      py      :    -0.038424
      dz2     :     0.003128  d :    -0.002333
      dxz     :     0.003980
      dyz     :    -0.010092
      dx2y2   :    -0.000024
      dxy     :     0.000675
      f0      :     0.000032  f :     0.000062
      f+1     :     0.000045
      f-1     :     0.000004
      f+2     :    -0.000003
      f-2     :     0.000002
      f+3     :    -0.000009
      f-3     :    -0.000008
  6 Aus       :    -0.029697  s :    -0.029697
      pz      :    -0.008717  p :    -0.049167
      px      :    -0.030773
      py      :    -0.009678
      dz2     :    -0.004073  d :    -0.006777
      dxz     :    -0.009378
      dyz     :     0.004117
      dx2y2   :     0.009284
      dxy     :    -0.006727
      f0      :     0.000020  f :     0.000083
      f+1     :    -0.000006
      f-1     :     0.000014
      f+2     :     0.000030
      f-2     :    -0.000017
      f+3     :    -0.000007
      f-3     :     0.000049
  7 Aus       :     0.019219  s :     0.019219
      pz      :     0.005235  p :    -0.003607
      px      :    -0.012423
      py      :     0.003581
      dz2     :    -0.012016  d :    -0.023973
      dxz     :    -0.000197
      dyz     :    -0.003181
      dx2y2   :    -0.004985
      dxy     :    -0.003594
      f0      :    -0.000018  f :    -0.000073
      f+1     :    -0.000017
      f-1     :    -0.000010
      f+2     :    -0.000002
      f-2     :    -0.000003
      f+3     :    -0.000022
      f-3     :    -0.000001
  8 Aus       :    -0.045002  s :    -0.045002
      pz      :     0.014034  p :    -0.016752
      px      :    -0.013123
      py      :    -0.017663
      dz2     :     0.021200  d :     0.022644
      dxz     :     0.005549
      dyz     :     0.000476
      dx2y2   :    -0.001218
      dxy     :    -0.003364
      f0      :     0.000092  f :     0.000161
      f+1     :     0.000077
      f-1     :     0.000069
      f+2     :    -0.000035
      f-2     :    -0.000010
      f+3     :    -0.000011
      f-3     :    -0.000020
  9 Aus       :    -0.041402  s :    -0.041402
      pz      :    -0.018780  p :    -0.049186
      px      :     0.000430
      py      :    -0.030836
      dz2     :     0.002885  d :     0.002737
      dxz     :    -0.005996
      dyz     :    -0.003793
      dx2y2   :     0.007553
      dxy     :     0.002089
      f0      :     0.000007  f :     0.000155
      f+1     :     0.000041
      f-1     :     0.000004
      f+2     :    -0.000003
      f-2     :    -0.000024
      f+3     :     0.000040
      f-3     :     0.000089
 10 Aus       :    -0.028732  s :    -0.028732
      pz      :    -0.005010  p :    -0.049302
      px      :    -0.026508
      py      :    -0.017784
      dz2     :    -0.007267  d :    -0.008012
      dxz     :    -0.008089
      dyz     :     0.008350
      dx2y2   :     0.000365
      dxy     :    -0.001371
      f0      :     0.000022  f :     0.000075
      f+1     :    -0.000009
      f-1     :     0.000011
      f+2     :     0.000022
      f-2     :     0.000014
      f+3     :     0.000012
      f-3     :     0.000002
 11 Aus       :    -0.041371  s :    -0.041371
      pz      :    -0.020719  p :    -0.048621
      px      :    -0.006096
      py      :    -0.021805
      dz2     :     0.003313  d :     0.001893
      dxz     :    -0.008273
      dyz     :    -0.004609
      dx2y2   :    -0.004540
      dxy     :     0.016003
      f0      :    -0.000001  f :     0.000147
      f+1     :     0.000027
      f-1     :     0.000024
      f+2     :    -0.000030
      f-2     :    -0.000002
      f+3     :     0.000024
      f-3     :     0.000104
 12 Aus       :     0.006078  s :     0.006078
      pz      :     0.004301  p :     0.005443
      px      :     0.000437
      py      :     0.000704
      dz2     :    -0.003435  d :    -0.020322
      dxz     :     0.011333
      dyz     :    -0.003723
      dx2y2   :    -0.011216
      dxy     :    -0.013282
      f0      :    -0.000028  f :    -0.000023
      f+1     :     0.000033
      f-1     :    -0.000015
      f+2     :     0.000029
      f-2     :     0.000002
      f+3     :    -0.000020
      f-3     :    -0.000024
 13 Aus       :    -0.039695  s :    -0.039695
      pz      :    -0.006660  p :    -0.039704
      px      :    -0.027795
      py      :    -0.005250
      dz2     :    -0.007796  d :    -0.002986
      dxz     :    -0.009550
      dyz     :     0.009551
      dx2y2   :     0.007283
      dxy     :    -0.002476
      f0      :     0.000018  f :     0.000077
      f+1     :    -0.000011
      f-1     :     0.000014
      f+2     :     0.000058
      f-2     :     0.000001
      f+3     :    -0.000026
      f-3     :     0.000024
 14 Fes       :     0.009866  s :     0.009866
      pz      :     0.004658  p :     0.015018
      px      :     0.003432
      py      :     0.006928
      dz2     :     0.694575  d :     2.887130
      dxz     :     0.357237
      dyz     :     0.715718
      dx2y2   :     0.452014
      dxy     :     0.667585
      f0      :     0.000006  f :     0.000027
      f+1     :    -0.000003
      f-1     :     0.000002
      f+2     :     0.000013
      f-2     :    -0.000000
      f+3     :     0.000007
      f-3     :     0.000002


                      *****************************
                      * MAYER POPULATION ANALYSIS *
                      *****************************

  NA   - Mulliken gross atomic population
  ZA   - Total nuclear charge
  QA   - Mulliken gross atomic charge
  VA   - Mayer's total valence
  BVA  - Mayer's bonded valence
  FA   - Mayer's free valence

  ATOM       NA         ZA         QA         VA         BVA        FA
  0 Au    18.6436    19.0000     0.3564     1.5987     1.5905     0.0082
  1 Au    19.1520    19.0000    -0.1520     2.0574     2.0429     0.0146
  2 Au    18.6344    19.0000     0.3656     1.4675     1.4617     0.0058
  3 Au    18.8721    19.0000     0.1279     1.7768     1.7738     0.0029
  4 Au    19.1527    19.0000    -0.1527     2.0588     2.0448     0.0140
  5 Au    18.6437    19.0000     0.3563     1.5651     1.5576     0.0075
  6 Au    18.8435    19.0000     0.1565     1.8125     1.8055     0.0070
  7 Au    18.8704    19.0000     0.1296     1.7763     1.7735     0.0028
  8 Au    18.8457    19.0000     0.1543     1.7532     1.7362     0.0170
  9 Au    18.6913    19.0000     0.3087     1.5636     1.5533     0.0103
 10 Au    18.8439    19.0000     0.1561     1.8125     1.8058     0.0067
 11 Au    18.6916    19.0000     0.3084     1.5661     1.5558     0.0103
 12 Au    18.7477    19.0000     0.2523     1.6159     1.6127     0.0032
 13 Au    18.6439    19.0000     0.3561     1.5984     1.5899     0.0085
 14 Fe    28.7233    26.0000    -2.7233     7.9035     5.6523     2.2512

  Mayer bond orders larger than 0.100000
B(  0-Au,  4-Au) :   0.1879 B(  0-Au,  5-Au) :   0.1685 B(  0-Au,  6-Au) :   0.1775 
B(  0-Au, 11-Au) :   0.1586 B(  0-Au, 12-Au) :   0.2050 B(  0-Au, 14-Fe) :   0.4751 
B(  1-Au,  2-Au) :   0.2990 B(  1-Au,  3-Au) :   0.2718 B(  1-Au,  4-Au) :   0.2484 
B(  1-Au,  5-Au) :   0.1739 B(  1-Au, 10-Au) :   0.1872 B(  1-Au, 13-Au) :   0.1836 
B(  1-Au, 14-Fe) :   0.5001 B(  2-Au,  3-Au) :   0.2496 B(  2-Au,  4-Au) :   0.3005 
B(  2-Au,  7-Au) :   0.2501 B(  3-Au,  7-Au) :   0.2572 B(  3-Au,  8-Au) :   0.2871 
B(  3-Au, 10-Au) :   0.3464 B(  3-Au, 14-Fe) :   0.1351 B(  4-Au,  5-Au) :   0.1703 
B(  4-Au,  6-Au) :   0.1877 B(  4-Au,  7-Au) :   0.2699 B(  4-Au, 14-Fe) :   0.5007 
B(  5-Au, 12-Au) :   0.2147 B(  5-Au, 13-Au) :   0.1684 B(  5-Au, 14-Fe) :   0.4368 
B(  6-Au,  7-Au) :   0.3446 B(  6-Au,  8-Au) :   0.1944 B(  6-Au, 11-Au) :   0.2078 
B(  6-Au, 14-Fe) :   0.4762 B(  7-Au,  8-Au) :   0.2891 B(  7-Au, 14-Fe) :   0.1361 
B(  8-Au, 10-Au) :   0.1948 B(  8-Au, 14-Fe) :   0.5149 B(  9-Au, 10-Au) :   0.2078 
B(  9-Au, 11-Au) :   0.2558 B(  9-Au, 12-Au) :   0.1279 B(  9-Au, 13-Au) :   0.1544 
B(  9-Au, 14-Fe) :   0.5014 B( 10-Au, 13-Au) :   0.1798 B( 10-Au, 14-Fe) :   0.4727 
B( 11-Au, 12-Au) :   0.1349 B( 11-Au, 14-Fe) :   0.4952 B( 12-Au, 13-Au) :   0.2081 
B( 12-Au, 14-Fe) :   0.4391 B( 13-Au, 14-Fe) :   0.4773 

-------
TIMINGS
-------

Total SCF time: 0 days 0 hours 2 min 23 sec 

Total time                  ....     143.207 sec
Sum of individual times     ....     139.429 sec  ( 97.4%)

Fock matrix formation       ....     130.375 sec  ( 91.0%)
  Split-RI-J                ....      46.967 sec  ( 36.0% of F)
  XC integration            ....      82.781 sec  ( 63.5% of F)
    Basis function eval.    ....       7.238 sec  (  8.7% of XC)
    Density eval.           ....      32.303 sec  ( 39.0% of XC)
    XC-Functional eval.     ....       0.750 sec  (  0.9% of XC)
    XC-Potential eval.      ....      36.856 sec  ( 44.5% of XC)
Diagonalization             ....       3.030 sec  (  2.1%)
Density matrix formation    ....       0.533 sec  (  0.4%)
Population analysis         ....       0.139 sec  (  0.1%)
Initial guess               ....       0.209 sec  (  0.1%)
Orbital Transformation      ....       2.511 sec  (  1.8%)
Orbital Orthonormalization  ....       0.173 sec  (  0.1%)
DIIS solution               ....       1.347 sec  (  0.9%)
Grid generation             ....       1.275 sec  (  0.9%)

Maximum memory used throughout the entire SCF-calculation: 110.6 MB

-------------------------   --------------------
FINAL SINGLE POINT ENERGY     -3165.062650081377
-------------------------   --------------------


                            ***************************************
                            *     ORCA property calculations      *
                            ***************************************

                                    ---------------------
                                    Active property flags
                                    ---------------------
   (+) Dipole Moment


------------------------------------------------------------------------------
                       ORCA ELECTRIC PROPERTIES CALCULATION
------------------------------------------------------------------------------

Dipole Moment Calculation                       ... on
Quadrupole Moment Calculation                   ... off
Polarizability Calculation                      ... off
GBWName                                         ... pbeSP_job2.gbw
Electron density                                ... pbeSP_job2.scfp
The origin for moment calculation is the CENTER OF MASS  = (13.733968, 14.655569 13.526806)

-------------
DIPOLE MOMENT
-------------
                                X             Y             Z
Electronic contribution:    -21.46811       2.45882     -12.71499
Nuclear contribution   :     21.63164      -2.46525      12.99218
                        -----------------------------------------
Total Dipole Moment    :      0.16353      -0.00643       0.27719
                        -----------------------------------------
Magnitude (a.u.)       :      0.32190
Magnitude (Debye)      :      0.81820



--------------------
Rotational spectrum 
--------------------
 
Rotational constants in cm-1:     0.001317     0.000964     0.000921 
Rotational constants in MHz :    39.475956    28.890274    27.599067 

 Dipole components along the rotational axes: 
x,y,z [a.u.] :    -0.299435     0.002672     0.118110 
x,y,z [Debye]:    -0.761103     0.006792     0.300212 

 

Timings for individual modules:

Sum of individual times         ...      152.506 sec (=   2.542 min)
GTO integral calculation        ...        9.172 sec (=   0.153 min)   6.0 %
SCF iterations                  ...      143.334 sec (=   2.389 min)  94.0 %



                             ****ORCA TERMINATED NORMALLY****
TOTAL RUN TIME: 0 days 0 hours 5 minutes 50 seconds 944 msec
