
                                 *****************
                                 * O   R   C   A *
                                 *****************

                                            #,                                       
                                            ###                                      
                                            ####                                     
                                            #####                                    
                                            ######                                   
                                           ########,                                 
                                     ,,################,,,,,                         
                               ,,#################################,,                 
                          ,,##########################################,,             
                       ,#########################################, ''#####,          
                    ,#############################################,,   '####,        
                  ,##################################################,,,,####,       
                ,###########''''           ''''###############################       
              ,#####''   ,,,,##########,,,,          '''####'''          '####       
            ,##' ,,,,###########################,,,                        '##       
           ' ,,###''''                  '''############,,,                           
         ,,##''                                '''############,,,,        ,,,,,,###''
      ,#''                                            '''#######################'''  
     '                                                          ''''####''''         
             ,#######,   #######,   ,#######,      ##                                
            ,#'     '#,  ##    ##  ,#'     '#,    #''#        ######   ,####,        
            ##       ##  ##   ,#'  ##            #'  '#       #        #'  '#        
            ##       ##  #######   ##           ,######,      #####,   #    #        
            '#,     ,#'  ##    ##  '#,     ,#' ,#      #,         ##   #,  ,#        
             '#######'   ##     ##  '#######'  #'      '#     #####' # '####'        



                  #######################################################
                  #                        -***-                        #
                  #          Department of theory and spectroscopy      #
                  #    Directorship and core code : Frank Neese         #
                  #        Max Planck Institute fuer Kohlenforschung    #
                  #                Kaiser Wilhelm Platz 1               #
                  #                 D-45470 Muelheim/Ruhr               #
                  #                      Germany                        #
                  #                                                     #
                  #                  All rights reserved                #
                  #                        -***-                        #
                  #######################################################


                         Program Version 5.0.3 -  RELEASE  -


 With contributions from (in alphabetic order):
   Daniel Aravena         : Magnetic Suceptibility
   Michael Atanasov       : Ab Initio Ligand Field Theory (pilot matlab implementation)
   Alexander A. Auer      : GIAO ZORA, VPT2 properties, NMR spectrum
   Ute Becker             : Parallelization
   Giovanni Bistoni       : ED, misc. LED, open-shell LED, HFLD
   Martin Brehm           : Molecular dynamics
   Dmytro Bykov           : SCF Hessian
   Vijay G. Chilkuri      : MRCI spin determinant printing, contributions to CSF-ICE
   Dipayan Datta          : RHF DLPNO-CCSD density
   Achintya Kumar Dutta   : EOM-CC, STEOM-CC
   Dmitry Ganyushin       : Spin-Orbit,Spin-Spin,Magnetic field MRCI
   Miquel Garcia          : C-PCM and meta-GGA Hessian, CC/C-PCM, Gaussian charge scheme
   Yang Guo               : DLPNO-NEVPT2, F12-NEVPT2, CIM, IAO-localization
   Andreas Hansen         : Spin unrestricted coupled pair/coupled cluster methods
   Benjamin Helmich-Paris : MC-RPA, TRAH-SCF, COSX integrals
   Lee Huntington         : MR-EOM, pCC
   Robert Izsak           : Overlap fitted RIJCOSX, COSX-SCS-MP3, EOM
   Marcus Kettner         : VPT2
   Christian Kollmar      : KDIIS, OOCD, Brueckner-CCSD(T), CCSD density, CASPT2, CASPT2-K
   Simone Kossmann        : Meta GGA functionals, TD-DFT gradient, OOMP2, MP2 Hessian
   Martin Krupicka        : Initial AUTO-CI
   Lucas Lang             : DCDCAS
   Marvin Lechner         : AUTO-CI (C++ implementation), FIC-MRCC
   Dagmar Lenk            : GEPOL surface, SMD
   Dimitrios Liakos       : Extrapolation schemes; Compound Job, initial MDCI parallelization
   Dimitrios Manganas     : Further ROCIS development; embedding schemes
   Dimitrios Pantazis     : SARC Basis sets
   Anastasios Papadopoulos: AUTO-CI, single reference methods and gradients
   Taras Petrenko         : DFT Hessian,TD-DFT gradient, ASA, ECA, R-Raman, ABS, FL, XAS/XES, NRVS
   Peter Pinski           : DLPNO-MP2, DLPNO-MP2 Gradient
   Christoph Reimann      : Effective Core Potentials
   Marius Retegan         : Local ZFS, SOC
   Christoph Riplinger    : Optimizer, TS searches, QM/MM, DLPNO-CCSD(T), (RO)-DLPNO pert. Triples
   Tobias Risthaus        : Range-separated hybrids, TD-DFT gradient, RPA, STAB
   Michael Roemelt        : Original ROCIS implementation
   Masaaki Saitow         : Open-shell DLPNO-CCSD energy and density
   Barbara Sandhoefer     : DKH picture change effects
   Avijit Sen             : IP-ROCIS
   Kantharuban Sivalingam : CASSCF convergence, NEVPT2, FIC-MRCI
   Bernardo de Souza      : ESD, SOC TD-DFT
   Georgi Stoychev        : AutoAux, RI-MP2 NMR, DLPNO-MP2 response
   Willem Van den Heuvel  : Paramagnetic NMR
   Boris Wezisla          : Elementary symmetry handling
   Frank Wennmohs         : Technical directorship


 We gratefully acknowledge several colleagues who have allowed us to
 interface, adapt or use parts of their codes:
   Stefan Grimme, W. Hujo, H. Kruse, P. Pracht,  : VdW corrections, initial TS optimization,
                  C. Bannwarth, S. Ehlert          DFT functionals, gCP, sTDA/sTD-DF
   Ed Valeev, F. Pavosevic, A. Kumar             : LibInt (2-el integral package), F12 methods
   Garnet Chan, S. Sharma, J. Yang, R. Olivares  : DMRG
   Ulf Ekstrom                                   : XCFun DFT Library
   Mihaly Kallay                                 : mrcc  (arbitrary order and MRCC methods)
   Jiri Pittner, Ondrej Demel                    : Mk-CCSD
   Frank Weinhold                                : gennbo (NPA and NBO analysis)
   Christopher J. Cramer and Donald G. Truhlar   : smd solvation model
   Lars Goerigk                                  : TD-DFT with DH, B97 family of functionals
   V. Asgeirsson, H. Jonsson                     : NEB implementation
   FAccTs GmbH                                   : IRC, NEB, NEB-TS, DLPNO-Multilevel, CI-OPT
                                                   MM, QMMM, 2- and 3-layer-ONIOM, Crystal-QMMM,
                                                   LR-CPCM, SF, NACMEs, symmetry and pop. for TD-DFT,
                                                   nearIR, NL-DFT gradient (VV10), updates on ESD,
                                                   ML-optimized integration grids
   S Lehtola, MJT Oliveira, MAL Marques          : LibXC Library
   Liviu Ungur et al                             : ANISO software


 Your calculation uses the libint2 library for the computation of 2-el integrals
 For citations please refer to: http://libint.valeyev.net

 Your ORCA version has been built with support for libXC version: 5.1.0
 For citations please refer to: https://tddft.org/programs/libxc/

 This ORCA versions uses:
   CBLAS   interface :  Fast vector & matrix operations
   LAPACKE interface :  Fast linear algebra routines
   SCALAPACK package :  Parallel linear algebra routines
   Shared memory     :  Shared parallel matrices
   BLAS/LAPACK       :  OpenBLAS 0.3.15  USE64BITINT DYNAMIC_ARCH NO_AFFINITY Haswell SINGLE_THREADED
        Core in use  :  Haswell
   Copyright (c) 2011-2014, The OpenBLAS Project




***************************************
The coordinates will be read from file: 1.xyz
***************************************


================================================================================

cite the ECPs for Au [Def2-ECP] as follows:
Ce-Yb(ecp-28): M. Dolg, H. Stoll, H.Preuss, J. Chem. Phys., 1989, 90, 1730-1734.
Y-Cd(ecp-28), Hf-Hg(ecp-46): D. Andrae,U. Haeussermann, M. Dolg, H. Stoll, H. Preuss, Theor. Chim. Acta, 1990, 77, 123-141.
In-Sb(ecp-28), Tl-Bi(ecp-46): B. Metz, H. Stoll, M. Dolg, J. Chem. Phys., 2000, 113, 2563-2569.
Te-Xe(ecp-28), Po-Rn(ecp-46): K. A. Peterson, D. Figgen, E. Goll, H. Stoll, M. Dolg, J. Chem. Phys., 2003, 119, 11113-11123.
Rb(ecp-28), Cs(ecp-46): T. Leininger, A. Nicklass, W. Kuechle, H. Stoll, M. Dolg, A. Bergner, Chem. Phys. Lett., 1996, 255, 274-280.
Sr(ecp-28), Ba(ecp-46): M. Kaupp, P. V. Schleyer, H. Stoll and H. Preuss, J. Chem. Phys., 1991, 94, 1360-1366.
La(ecp-46): M. Dolg, H. Stoll, A. Savin, H. Preuss, Theor. Chim. Acta, 1989, 75, 173-194.
Lu(ecp-28): X. Cao, M. Dolg, J. Chem. Phys., 2001, 115, 7348-7355.

ECP parameters for Au [Def2-ECP] have been obtained from:
TURBOMOLE (7.0.2)

----- Orbital basis set information -----
Your calculation utilizes the basis: def2-TZVP
   F. Weigend and R. Ahlrichs, Phys. Chem. Chem. Phys. 7, 3297 (2005).

----- AuxJ basis set information -----
Your calculation utilizes the auxiliary basis: def2/J
   F. Weigend, Phys. Chem. Chem. Phys. 8, 1057 (2006).

================================================================================
                                        WARNINGS
                       Please study these warnings very carefully!
================================================================================


WARNING: your system is open-shell and RHF/RKS was chosen
  ===> : WILL SWITCH to UHF/UKS


WARNING: Geometry Optimization
  ===> : Switching off AutoStart
         For restart on a previous wavefunction, please use MOREAD

INFO   : the flag for use of the SHARK integral package has been found!

================================================================================
                                       INPUT FILE
================================================================================
NAME = pbe.inp
|  1> %pal nprocs 1 end 
|  2> 
|  3> !PBE def2-TZVP OPT UNO
|  4> !SLOWCONV KDIIS 
|  5> 
|  6> %geom maxiter 300 end
|  7> 
|  8> *xyzfile 0 5 1.xyz                           ****END OF INPUT****
================================================================================

                       *****************************
                       * Geometry Optimization Run *
                       *****************************

Geometry optimization settings:
Update method            Update   .... BFGS
Choice of coordinates    CoordSys .... Z-matrix Internals
Initial Hessian          InHess   .... Almoef's Model

Convergence Tolerances:
Energy Change            TolE     ....  5.0000e-06 Eh
Max. Gradient            TolMAXG  ....  3.0000e-04 Eh/bohr
RMS Gradient             TolRMSG  ....  1.0000e-04 Eh/bohr
Max. Displacement        TolMAXD  ....  4.0000e-03 bohr
RMS Displacement         TolRMSD  ....  2.0000e-03 bohr
Strict Convergence                ....  False
------------------------------------------------------------------------------
                        ORCA OPTIMIZATION COORDINATE SETUP
------------------------------------------------------------------------------

The optimization will be done in new redundant internal coordinates
Making redundant internal coordinates   ...  (new redundants) done
Evaluating the initial hessian          ...  (Almloef) done
Evaluating the coordinates              ...  done
Calculating the B-matrix                .... done
Calculating the G-matrix                .... done
Diagonalizing the G-matrix              .... done
The first mode is                       ....  143
The number of degrees of freedom        ....   33

    -----------------------------------------------------------------
                    Redundant Internal Coordinates


    -----------------------------------------------------------------
         Definition                    Initial Value    Approx d2E/dq
    -----------------------------------------------------------------
      1. B(Au  1,Au  0)                  2.7808         0.007311   
      2. B(Au  4,Au  2)                  2.7312         0.008772   
      3. B(Au  4,Au  1)                  2.7810         0.007305   
      4. B(Au  4,Au  0)                  2.9194         0.004395   
      5. B(Au  5,Au  1)                  2.8671         0.005324   
      6. B(Au  5,Au  4)                  2.8200         0.006332   
      7. B(Au  9,Au  0)                  2.8183         0.006370   
      8. B(Au  9,Au  1)                  2.8680         0.005306   
      9. B(Au 10,Au  0)                  2.7309         0.008783   
     10. B(Cr 12,Au  9)                  2.6916         0.073755   
     11. B(Cr 12,Au  8)                  2.5521         0.123124   
     12. B(Cr 12,Au  5)                  2.6926         0.073500   
     13. B(Cr 12,Au  7)                  2.5397         0.128898   
     14. B(Cr 12,Au 11)                  2.5531         0.122685   
     15. B(Cr 12,Au 10)                  2.6131         0.098431   
     16. B(Cr 12,Au  6)                  2.8134         0.047151   
     17. B(Cr 12,Au  3)                  2.5394         0.129018   
     18. B(Cr 12,Au  2)                  2.6137         0.098191   
     19. A(Au  4,Au  0,Au 10)           92.6558         0.136128   
     20. A(Au  1,Au  0,Au  9)           61.6208         0.138175   
     21. A(Au  1,Au  0,Au  4)           58.3423         0.134211   
     22. A(Au  9,Au  0,Au 10)           64.5223         0.140259   
     23. A(Au  1,Au  0,Au 10)          116.1521         0.141882   
     24. A(Au  4,Au  0,Au  9)           91.7106         0.132824   
     25. A(Au  4,Au  1,Au  9)           93.5834         0.136175   
     26. A(Au  5,Au  1,Au  9)           65.0749         0.132915   
     27. A(Au  0,Au  1,Au  5)           93.5793         0.136219   
     28. A(Au  4,Au  1,Au  5)           59.8808         0.136211   
     29. A(Au  0,Au  1,Au  9)           59.8329         0.136183   
     30. A(Au  0,Au  1,Au  4)           63.3221         0.139723   
     31. A(Au  4,Au  2,Cr 12)          101.9945         0.195739   
     32. A(Au  1,Au  4,Au  2)          116.1168         0.141859   
     33. A(Au  0,Au  4,Au  2)           92.5851         0.136115   
     34. A(Au  0,Au  4,Au  5)           91.6494         0.132763   
     35. A(Au  0,Au  4,Au  1)           58.3356         0.134204   
     36. A(Au  2,Au  4,Au  5)           64.5455         0.140174   
     37. A(Au  1,Au  4,Au  5)           61.5757         0.138099   
     38. A(Au  1,Au  5,Cr 12)          108.1725         0.178286   
     39. A(Au  4,Au  5,Cr 12)           97.7815         0.181856   
     40. A(Au  1,Au  5,Au  4)           58.5435         0.134707   
     41. A(Au  0,Au  9,Cr 12)           97.7972         0.182057   
     42. A(Au  1,Au  9,Cr 12)          108.1722         0.178287   
     43. A(Au  0,Au  9,Au  1)           58.5463         0.134734   
     44. A(Au  0,Au 10,Cr 12)          101.9707         0.195828   
     45. A(Au  3,Cr 12,Au 11)           78.1634         0.320356   
     46. A(Au  7,Cr 12,Au  8)           78.5790         0.320495   
     47. A(Au  2,Cr 12,Au 11)           62.6724         0.306492   
     48. A(Au  5,Cr 12,Au 11)          106.3797         0.292691   
     49. A(Au  9,Cr 12,Au 10)           67.8931         0.282938   
     50. A(Au  6,Cr 12,Au  8)           63.2436         0.273368   
     51. A(Au  2,Cr 12,Au  7)          170.2778         0.308937   
     52. A(Au  8,Cr 12,Au 10)           62.6499         0.306788   
     53. A(Au  7,Cr 12,Au 10)          101.2461         0.309059   
     54. A(Au  5,Cr 12,Au  8)          171.0701         0.292856   
     55. A(Au  6,Cr 12,Au 10)          125.7206         0.264261   
     56. A(Au  5,Cr 12,Au 10)          108.5930         0.282786   
     57. A(Au  3,Cr 12,Au  8)          127.0051         0.320544   
     58. A(Au  5,Cr 12,Au  6)          125.6095         0.253049   
     59. A(Au  3,Cr 12,Au  5)           61.7762         0.295025   
     60. A(Au  3,Cr 12,Au 10)          170.3287         0.309105   
     61. A(Au  2,Cr 12,Au 10)           74.6472         0.295915   
     62. A(Au  2,Cr 12,Au  8)          106.5528         0.306668   
     63. A(Au  8,Cr 12,Au  9)          106.5263         0.293016   
     64. A(Au  7,Cr 12,Au  9)           61.7746         0.295143   
     65. A(Au  6,Cr 12,Au  7)           63.8529         0.275291   
     66. A(Au  3,Cr 12,Au  6)           63.8635         0.275330   
     67. A(Au  6,Cr 12,Au  9)          125.6057         0.253178   
     68. A(Au 10,Cr 12,Au 11)          106.7483         0.306612   
     69. A(Au  5,Cr 12,Au  9)           69.9067         0.270532   
     70. A(Au  5,Cr 12,Au  7)          105.8835         0.294982   
     71. A(Au  9,Cr 12,Au 11)          171.1034         0.292851   
     72. A(Au  8,Cr 12,Au 11)           75.9061         0.317921   
     73. A(Au  3,Cr 12,Au  9)          106.1096         0.295187   
     74. A(Au  7,Cr 12,Au 11)          127.0138         0.320307   
     75. A(Au  6,Cr 12,Au 11)           63.2349         0.273219   
     76. A(Au  2,Cr 12,Au  9)          108.5675         0.282831   
     77. A(Au  3,Cr 12,Au  7)           81.5749         0.322958   
     78. A(Au  2,Cr 12,Au  6)          125.7527         0.264164   
     79. A(Au  2,Cr 12,Au  5)           67.9228         0.282679   
     80. A(Au  2,Cr 12,Au  3)          101.0749         0.308984   
     81. D(Au  5,Au  1,Au  0,Au  9)     58.3477         0.001502   
     82. D(Au  5,Au  1,Au  0,Au  4)    -53.5506         0.001502   
     83. D(Au  9,Au  1,Au  0,Au 10)    -35.9097         0.001502   
     84. D(Au  9,Au  1,Au  0,Au  4)   -111.8983         0.001502   
     85. D(Au  4,Au  1,Au  0,Au 10)     75.9886         0.001502   
     86. D(Au  4,Au  1,Au  0,Au  9)    111.8983         0.001502   
     87. D(Au  5,Au  1,Au  0,Au 10)     22.4380         0.001502   
     88. D(Au  1,Au  4,Au  0,Au 10)   -119.3248         0.001501   
     89. D(Au  5,Au  4,Au  0,Au  1)     54.7434         0.001501   
     90. D(Au  2,Au  4,Au  0,Au  1)    119.3323         0.001501   
     91. D(Au  1,Au  4,Au  0,Au  9)    -54.7561         0.001501   
     92. D(Au  1,Au  4,Au  2,Cr 12)      4.7916         0.001502   
     93. D(Au  2,Au  4,Au  0,Au 10)      0.0075         0.001501   
     94. D(Au  5,Au  4,Au  0,Au  9)     -0.0127         0.001501   
     95. D(Au  2,Au  4,Au  1,Au  0)    -75.9156         0.001502   
     96. D(Au  5,Au  4,Au  1,Au  0)   -111.8556         0.001502   
     97. D(Au  0,Au  4,Au  2,Cr 12)    -50.9382         0.001502   
     98. D(Au  2,Au  4,Au  1,Au  5)     35.9400         0.001502   
     99. D(Au  2,Au  4,Au  1,Au  9)    -22.4254         0.001502   
    100. D(Au  5,Au  4,Au  1,Au  9)    -58.3654         0.001502   
    101. D(Au  5,Au  4,Au  0,Au 10)    -64.5814         0.001501   
    102. D(Au  0,Au  4,Au  1,Au  9)     53.4901         0.001502   
    103. D(Au  5,Au  4,Au  2,Cr 12)     39.6588         0.001502   
    104. D(Au  0,Au  4,Au  1,Au  5)    111.8556         0.001502   
    105. D(Au  2,Au  4,Au  0,Au  9)     64.5762         0.001501   
    106. D(Cr 12,Au  5,Au  1,Au  0)    -31.8699         0.001501   
    107. D(Cr 12,Au  5,Au  1,Au  9)     22.3773         0.001501   
    108. D(Au  4,Au  5,Au  1,Au  9)    110.4429         0.001501   
    109. D(Cr 12,Au  5,Au  1,Au  4)    -88.0656         0.001501   
    110. D(Cr 12,Au  5,Au  4,Au  0)     54.3708         0.001501   
    111. D(Au  4,Au  5,Au  1,Au  0)     56.1956         0.001501   
    112. D(Au  1,Au  5,Au  4,Au  2)   -144.2910         0.001501   
    113. D(Au  1,Au  5,Au  4,Au  0)    -52.2126         0.001501   
    114. D(Cr 12,Au  5,Au  4,Au  1)    106.5833         0.001501   
    115. D(Cr 12,Au  5,Au  4,Au  2)    -37.7076         0.001501   
    116. D(Au  0,Au  9,Au  1,Au  4)    -56.1704         0.001501   
    117. D(Cr 12,Au  9,Au  1,Au  4)     31.9155         0.001501   
    118. D(Au  1,Au  9,Au  0,Au  4)     52.1981         0.001501   
    119. D(Au  1,Au  9,Au  0,Au 10)    144.3255         0.001501   
    120. D(Cr 12,Au  9,Au  0,Au  1)   -106.5735         0.001501   
    121. D(Cr 12,Au  9,Au  1,Au  0)     88.0859         0.001501   
    122. D(Cr 12,Au  9,Au  0,Au  4)    -54.3753         0.001501   
    123. D(Cr 12,Au  9,Au  0,Au 10)     37.7520         0.001501   
    124. D(Cr 12,Au  9,Au  1,Au  5)    -22.3856         0.001501   
    125. D(Au  0,Au  9,Au  1,Au  5)   -110.4715         0.001501   
    126. D(Cr 12,Au 10,Au  0,Au  1)     -4.8331         0.001502   
    127. D(Cr 12,Au 10,Au  0,Au  4)     50.9344         0.001502   
    128. D(Cr 12,Au 10,Au  0,Au  9)    -39.6958         0.001502   
    129. D(Au  6,Cr 12,Au  5,Au  1)   -143.0967         0.001525   
    130. D(Au  6,Cr 12,Au  5,Au  4)    157.5335         0.001525   
    131. D(Au  3,Cr 12,Au  5,Au  1)   -145.1798         0.001525   
    132. D(Au  2,Cr 12,Au  5,Au  1)     97.8867         0.001525   
    133. D(Au  2,Cr 12,Au  5,Au  4)     38.5168         0.001525   
    134. D(Au 11,Cr 12,Au  2,Au  4)   -164.1515         0.001541   
    135. D(Au 10,Cr 12,Au  2,Au  4)     77.2772         0.001541   
    136. D(Au  9,Cr 12,Au  2,Au  4)     17.5368         0.001541   
    137. D(Au  8,Cr 12,Au  2,Au  4)    131.9230         0.001541   
    138. D(Au  3,Cr 12,Au  5,Au  4)    155.4504         0.001525   
    139. D(Au  7,Cr 12,Au  2,Au  4)     11.1622         0.001541   
    140. D(Au  6,Cr 12,Au  2,Au  4)   -159.4684         0.001541   
    141. D(Au  5,Cr 12,Au  2,Au  4)    -40.6379         0.001541   
    142. D(Au  7,Cr 12,Au  5,Au  4)   -133.5524         0.001525   
    143. D(Au  3,Cr 12,Au  2,Au  4)    -93.8103         0.001541   
    144. D(Au 11,Cr 12,Au 10,Au  0)   -131.7997         0.001541   
    145. D(Au  8,Cr 12,Au 10,Au  0)    164.4293         0.001541   
    146. D(Au  7,Cr 12,Au 10,Au  0)     93.7073         0.001541   
    147. D(Au  6,Cr 12,Au 10,Au  0)    159.4756         0.001541   
    148. D(Au  3,Cr 12,Au 10,Au  0)    -12.4076         0.001541   
    149. D(Au  2,Cr 12,Au 10,Au  0)    -77.2348         0.001541   
    150. D(Au 11,Cr 12,Au  9,Au  1)    -43.6609         0.001525   
    151. D(Au 10,Cr 12,Au  9,Au  1)    -97.9468         0.001525   
    152. D(Au 10,Cr 12,Au  9,Au  0)    -38.5693         0.001525   
    153. D(Au  8,Cr 12,Au  9,Au  1)   -148.3208         0.001525   
    154. D(Au  8,Cr 12,Au  9,Au  0)    -88.9432         0.001525   
    155. D(Au  7,Cr 12,Au  9,Au  1)    144.8635         0.001525   
    156. D(Au  7,Cr 12,Au  9,Au  0)   -155.7590         0.001525   
    157. D(Au  6,Cr 12,Au  9,Au  1)    143.0935         0.001525   
    158. D(Au  6,Cr 12,Au  9,Au  0)   -157.5289         0.001525   
    159. D(Au  5,Cr 12,Au  9,Au  1)     23.0534         0.001525   
    160. D(Au  5,Cr 12,Au  9,Au  0)     82.4309         0.001525   
    161. D(Au  3,Cr 12,Au  9,Au  1)     74.0178         0.001525   
    162. D(Au  3,Cr 12,Au  9,Au  0)    133.3953         0.001525   
    163. D(Au  2,Cr 12,Au  9,Au  1)    -33.9172         0.001525   
    164. D(Au  2,Cr 12,Au  9,Au  0)     25.4604         0.001525   
    165. D(Au 11,Cr 12,Au  5,Au  1)    148.4240         0.001525   
    166. D(Au 11,Cr 12,Au  9,Au  0)     15.7167         0.001525   
    167. D(Au 11,Cr 12,Au  5,Au  4)     89.0542         0.001525   
    168. D(Au 10,Cr 12,Au  5,Au  1)     33.8557         0.001525   
    169. D(Au 10,Cr 12,Au  5,Au  4)    -25.5141         0.001525   
    170. D(Au  5,Cr 12,Au 10,Au  0)    -17.4725         0.001541   
    171. D(Au  9,Cr 12,Au  5,Au  1)    -23.0613         0.001525   
    172. D(Au  9,Cr 12,Au  5,Au  4)    -82.4311         0.001525   
    173. D(Au  8,Cr 12,Au  5,Au  1)     44.8028         0.001525   
    174. D(Au  9,Cr 12,Au 10,Au  0)     40.6654         0.001541   
    175. D(Au  8,Cr 12,Au  5,Au  4)    -14.5670         0.001525   
    176. D(Au  7,Cr 12,Au  5,Au  1)    -74.1825         0.001525   
    -----------------------------------------------------------------

Number of atoms                         .... 13
Number of degrees of freedom            .... 176

         *************************************************************
         *                GEOMETRY OPTIMIZATION CYCLE   1            *
         *************************************************************
---------------------------------
CARTESIAN COORDINATES (ANGSTROEM)
---------------------------------
  Au     7.020629   11.546614    7.252635
  Au     9.320428   10.740927    5.912973
  Au     5.886851    7.660788    6.690163
  Au     9.182962    5.880351    8.030236
  Au     6.924576    9.603946    5.075600
  Au     8.818456    7.953128    6.356299
  Au     7.921542    5.606889   10.560759
  Au     9.299661    8.089869   10.502687
  Au     6.109018    7.753785   10.823906
  Au     8.918310   10.006474    8.656058
  Au     5.991637    9.769863    9.053198
  Au     6.012081    5.662984    8.483497
  Cr     7.541919    7.694080    8.712838

----------------------------
CARTESIAN COORDINATES (A.U.)
----------------------------
  NO LB      ZA    FRAG     MASS         X           Y           Z
   0 Au   19.0000*   0   196.966   13.267067   21.819938   13.705494
   1 Au   19.0000*   0   196.966   17.613056   20.297411   11.173900
   2 Au   19.0000*   0   196.966   11.124537   14.476792   12.642575
   3 Au   19.0000*   0   196.966   17.353283   11.112253   15.174946
   4 Au   19.0000*   0   196.966   13.085553   18.148828    9.591494
   5 Au   19.0000*   0   196.966   16.664466   15.029234   12.011664
   6 Au   19.0000*   0   196.966   14.969545   10.595484   19.956942
   7 Au   19.0000*   0   196.966   17.573812   15.287637   19.847202
   8 Au   19.0000*   0   196.966   11.544371   14.652530   20.454218
   9 Au   19.0000*   0   196.966   16.853164   18.909496   16.357579
  10 Au   19.0000*   0   196.966   11.322554   18.462366   17.108064
  11 Au   19.0000*   0   196.966   11.361187   10.701488   16.031486
  12 Cr   24.0000    0    52.000   14.252162   14.539703   16.464877
* core charge reduced due to ECP

--------------------------------
INTERNAL COORDINATES (ANGSTROEM)
--------------------------------
 Au     0   0   0     0.000000000000     0.00000000     0.00000000
 Au     1   0   0     2.780809294413     0.00000000     0.00000000
 Au     1   2   0     4.086743379571    83.54907816     0.00000000
 Au     3   1   2     3.978705731739    98.58652934    49.67966829
 Au     3   1   2     2.731217353553    45.53037615   311.68622339
 Au     4   3   1     2.689114447631    48.17312506   313.80879380
 Au     4   3   1     2.840688138677    88.58137337    95.56258715
 Au     7   4   3     2.840382789295    71.46913271   270.24122058
 Au     7   4   3     2.821994218122   107.15992761   330.80154304
 Au     8   7   4     2.688650878473   124.63715858    55.94674868
 Au     9   7   4     2.685843921656   122.52403805   352.51811085
 Au     3   1   2     2.687555597988   127.01627066    99.81075591
 Cr     4   3   1     2.539405061282    40.14281961    48.46392987

---------------------------
INTERNAL COORDINATES (A.U.)
---------------------------
 Au     0   0   0     0.000000000000     0.00000000     0.00000000
 Au     1   0   0     5.254967997104     0.00000000     0.00000000
 Au     1   2   0     7.722825767004    83.54907816     0.00000000
 Au     3   1   2     7.518664200450    98.58652934    49.67966829
 Au     3   1   2     5.161252810429    45.53037615   311.68622339
 Au     4   3   1     5.081689848793    48.17312506   313.80879380
 Au     4   3   1     5.368122613979    88.58137337    95.56258715
 Au     7   4   3     5.367545587271    71.46913271   270.24122058
 Au     7   4   3     5.332796223759   107.15992761   330.80154304
 Au     8   7   4     5.080813830042   124.63715858    55.94674868
 Au     9   7   4     5.075509450387   122.52403805   352.51811085
 Au     3   1   2     5.078744049884   127.01627066    99.81075591
 Cr     4   3   1     4.798780108916    40.14281961    48.46392987

---------------------
BASIS SET INFORMATION
---------------------
There are 2 groups of distinct atoms

 Group   1 Type Au  : 8s7p6d1f contracted to 6s4p3d1f pattern {311111/4111/411/1}
 Group   2 Type Cr  : 17s11p7d1f contracted to 6s4p4d1f pattern {842111/6311/4111/1}

Atom   0Au   basis set group =>   1
Atom   1Au   basis set group =>   1
Atom   2Au   basis set group =>   1
Atom   3Au   basis set group =>   1
Atom   4Au   basis set group =>   1
Atom   5Au   basis set group =>   1
Atom   6Au   basis set group =>   1
Atom   7Au   basis set group =>   1
Atom   8Au   basis set group =>   1
Atom   9Au   basis set group =>   1
Atom  10Au   basis set group =>   1
Atom  11Au   basis set group =>   1
Atom  12Cr   basis set group =>   2
---------------------------------
AUXILIARY/J BASIS SET INFORMATION
---------------------------------
There are 2 groups of distinct atoms

 Group   1 Type Au  : 11s5p5d3f3g contracted to 8s5p5d2f3g pattern {41111111/11111/11111/21/111}
 Group   2 Type Cr  : 19s5p5d3f3g contracted to 8s5p5d2f3g pattern {121111111/11111/11111/21/111}

Atom   0Au   basis set group =>   1
Atom   1Au   basis set group =>   1
Atom   2Au   basis set group =>   1
Atom   3Au   basis set group =>   1
Atom   4Au   basis set group =>   1
Atom   5Au   basis set group =>   1
Atom   6Au   basis set group =>   1
Atom   7Au   basis set group =>   1
Atom   8Au   basis set group =>   1
Atom   9Au   basis set group =>   1
Atom  10Au   basis set group =>   1
Atom  11Au   basis set group =>   1
Atom  12Cr   basis set group =>   2
-------------------------
ECP PARAMETER INFORMATION
-------------------------

 Group 1, Type Au ECP Def2-ECP (replacing 60 core electrons, lmax=3)

Atom   0Au   ECP group =>   1
Atom   1Au   ECP group =>   1
Atom   2Au   ECP group =>   1
Atom   3Au   ECP group =>   1
Atom   4Au   ECP group =>   1
Atom   5Au   ECP group =>   1
Atom   6Au   ECP group =>   1
Atom   7Au   ECP group =>   1
Atom   8Au   ECP group =>   1
Atom   9Au   ECP group =>   1
Atom  10Au   ECP group =>   1
Atom  11Au   ECP group =>   1

------------------------------------------------------------------------------
                           ORCA GTO INTEGRAL CALCULATION
                           -- RI-GTO INTEGRALS CHOSEN --
------------------------------------------------------------------------------
------------------------------------------------------------------------------
                   ___                                                        
                  /   \      - P O W E R E D   B Y -                         
                 /     \                                                     
                 |  |  |   _    _      __       _____    __    __             
                 |  |  |  | |  | |    /  \     |  _  \  |  |  /  |          
                  \  \/   | |  | |   /    \    | | | |  |  | /  /          
                 / \  \   | |__| |  /  /\  \   | |_| |  |  |/  /          
                |  |  |   |  __  | /  /__\  \  |    /   |      \           
                |  |  |   | |  | | |   __   |  |    \   |  |\   \          
                \     /   | |  | | |  |  |  |  | |\  \  |  | \   \       
                 \___/    |_|  |_| |__|  |__|  |_| \__\ |__|  \__/        
                                                                              
                      - O R C A' S   B I G   F R I E N D -                    
                                      &                                       
                       - I N T E G R A L  F E E D E R -                       
                                                                              
 v1 FN, 2020, v2 2021                                                         
------------------------------------------------------------------------------


Reading SHARK input file pbe.SHARKINP.tmp ... ok
----------------------
SHARK INTEGRAL PACKAGE
----------------------

Number of atoms                             ...     13
Number of basis functions                   ...    525
Number of shells                            ...    183
Maximum angular momentum                    ...      3
Integral batch strategy                     ... SHARK/LIBINT Hybrid
RI-J (if used) integral strategy            ... SPLIT-RIJ (Revised 2003 algorithm where possible)
Printlevel                                  ...      1
Contraction scheme used                     ... SEGMENTED contraction
Coulomb Range Separation                    ... NOT USED
Exchange Range Separation                   ... NOT USED
Finite Nucleus Model                        ... NOT USED
Auxiliary Coulomb fitting basis             ... AVAILABLE
   # of basis functions in Aux-J            ...   1157
   # of shells in Aux-J                     ...    299
   Maximum angular momentum in Aux-J        ...      4
Auxiliary J/K fitting basis                 ... NOT available
Auxiliary Correlation fitting basis         ... NOT available
Auxiliary 'external' fitting basis          ... NOT available
Integral threshold                          ...     2.500000e-11
Primitive cut-off                           ...     2.500000e-12
Primitive pair pre-selection threshold      ...     2.500000e-12

Calculating pre-screening integrals         ... done (  0.3 sec) Dimension = 183
Organizing shell pair data                  ... done (  0.3 sec)
Shell pair information
Total number of shell pairs                 ...     16836
Shell pairs after pre-screening             ...     13711
Total number of primitive shell pairs       ...     45389
Primitive shell pairs kept                  ...     27014
          la=0 lb=0:   2155 shell pairs
          la=1 lb=0:   3145 shell pairs
          la=1 lb=1:   1177 shell pairs
          la=2 lb=0:   2695 shell pairs
          la=2 lb=1:   1900 shell pairs
          la=2 lb=2:    784 shell pairs
          la=3 lb=0:    742 shell pairs
          la=3 lb=1:    564 shell pairs
          la=3 lb=2:    470 shell pairs
          la=3 lb=3:     79 shell pairs

Calculating one electron integrals          ... done (  0.1 sec)
Calculating ECP integrals                   ... done (  6.6 sec)
Calculating RI/J V-Matrix + Cholesky decomp.... done (  0.0 sec)
Calculating Nuclear repulsion               ... done (  0.0 sec) ENN=   4250.950899173140 Eh

SHARK setup successfully completed in   7.7 seconds

Maximum memory used throughout the entire GTOINT-calculation: 400.2 MB
-------------------------------------------------------------------------------
                                 ORCA SCF
-------------------------------------------------------------------------------

------------
SCF SETTINGS
------------
Hamiltonian:
 Density Functional     Method          .... DFT(GTOs)
 Exchange Functional    Exchange        .... PBE
   PBE kappa parameter   XKappa         ....  0.804000
   PBE mue parameter    XMuePBE         ....  0.219520
 Correlation Functional Correlation     .... PBE
   PBE beta parameter  CBetaPBE         ....  0.066725
 LDA part of GGA corr.  LDAOpt          .... PW91-LDA
 Gradients option       PostSCFGGA      .... off
   Density functional embedding theory  .... OFF
   NL short-range parameter             ....  6.400000
 RI-approximation to the Coulomb term is turned on
   Number of AuxJ basis functions       .... 1157


General Settings:
 Integral files         IntName         .... pbe
 Hartree-Fock type      HFTyp           .... UHF
 Total Charge           Charge          ....    0
 Multiplicity           Mult            ....    5
 Number of Electrons    NEL             ....  252
 Basis Dimension        Dim             ....  525
 Nuclear Repulsion      ENuc            ....   4250.9508991731 Eh

Convergence Acceleration:
 DIIS                   CNVDIIS         .... off
 Trust-Rad. Augm. Hess. CNVTRAH         .... auto
   Auto Start mean grad. ratio tolernc. ....  1.125000
   Auto Start start iteration           ....    20
   Auto Start num. interpolation iter.  ....    10
   Max. Number of Micro iterations      ....    16
   Max. Number of Macro iterations      .... Maxiter - #DIIS iter
   Number of Davidson start vectors     ....     2
   Converg. threshold I  (grad. norm)   ....   1.000e-05
   Converg. threshold II (energy diff.) ....   1.000e-08
   Grad. Scal. Fac. for Micro threshold ....   0.100
   Minimum threshold for Micro iter.    ....   0.010
   NR start threshold (gradient norm)   ....   0.001
   Initial trust radius                 ....   0.400
   Minimum AH scaling param. (alpha)    ....   1.000
   Maximum AH scaling param. (alpha)    .... 1000.000
   Orbital update algorithm             .... Taylor
   White noise on init. David. guess    .... on
   Maximum white noise                  ....   0.010
   Quad. conv. algorithm                .... NR
 SOSCF                  CNVSOSCF        .... off
 Level Shifting         CNVShift        .... off
 Zerner damping         CNVZerner       .... off
 Static damping         CNVDamp         .... off
 Fernandez-Rico         CNVRico         .... off

SCF Procedure:
 Maximum # iterations   MaxIter         ....   125
 SCF integral mode      SCFMode         .... Direct
   Integral package                     .... SHARK and LIBINT hybrid scheme
 Reset frequency        DirectResetFreq ....    20
 Integral Threshold     Thresh          ....  2.500e-11 Eh
 Primitive CutOff       TCut            ....  2.500e-12 Eh

Convergence Tolerance:
 Convergence Check Mode ConvCheckMode   .... Total+1el-Energy
 Convergence forced     ConvForced      .... 0
 Energy Change          TolE            ....  1.000e-08 Eh
 1-El. energy change                    ....  1.000e-05 Eh


Diagonalization of the overlap matrix:
Smallest eigenvalue                        ... 1.458e-04
Time for diagonalization                   ...    0.034 sec
Threshold for overlap eigenvalues          ... 1.000e-08
Number of eigenvalues below threshold      ... 0
Time for construction of square roots      ...    0.018 sec
Total time needed                          ...    0.053 sec

Time for model grid setup =    0.963 sec

------------------------------
INITIAL GUESS: MODEL POTENTIAL
------------------------------
Loading Hartree-Fock densities                     ... done
  calling /media/Programs/ORCA501/orca pbe_atom79.inp > pbe_atom79.out in order to generate an atomic fitting density for atom 0 (Au with ECP) on-the-fly... 
    atom 0 (Au), assumed electronic state with S=2: 1s2 2s2 2p6 3s2 3p6 4s2 3d10 4p6 5s2 4d10 5p6 6s1 4f14 5d10           ... done
Calculating cut-offs                               ... done
Initializing the effective Hamiltonian             ... done
Setting up the integral package (SHARK)            ... done
Starting the Coulomb interaction                   ... done (   1.5 sec)
Reading the grid                                   ... done
Mapping shells                                     ... done
Starting the XC term evaluation                    ... done (   1.9 sec)
  promolecular density results
     # of electrons  =    972.013506258
     EX              =  -4437.080825930
     EC              =    -59.130373999
     EX+EC           =  -4496.211199928
Transforming the Hamiltonian                       ... done (   0.0 sec)
Diagonalizing the Hamiltonian                      ... done (   0.0 sec)
Back transforming the eigenvectors                 ... done (   0.0 sec)
Now organizing SCF variables                       ... done
                      ------------------
                      INITIAL GUESS DONE (   5.0 sec)
                      ------------------
-------------------
DFT GRID GENERATION
-------------------

General Integration Accuracy     IntAcc      ... 4.388
Radial Grid Type                 RadialGrid  ... OptM3 with GC (2021)
Angular Grid (max. ang.)         AngularGrid ... 4 (Lebedev-302)
Angular grid pruning method      GridPruning ... 4 (adaptive)
Weight generation scheme         WeightScheme... Becke
Basis function cutoff            BFCut       ... 1.0000e-11
Integration weight cutoff        WCut        ... 1.0000e-14
Angular grids for H and He will be reduced by one unit
Partially contracted basis set               ... off
Rotationally invariant grid construction     ... off

Total number of grid points                  ...   144788
Total number of batches                      ...     2269
Average number of points per batch           ...       63
Average number of grid points per atom       ...    11138
Time for grid setup =    2.315 sec

--------------
SCF ITERATIONS
--------------
ITER       Energy         Delta-E        Max-DP      RMS-DP      [F,P]   Gradient Norm
               ***  Starting incremental Fock matrix formation  ***
                             ****Resetting KDIIS****
                             ****Turning on KDIIS(Cayley)****
  0  -2672.5389642816   0.000000000000 0.44747301  0.00208489  0.3900529   0.210730333
  1  -2673.3988521927  -0.859887911045 0.58700703  0.00198372  0.3488663   0.165767307
  2  -2673.8072487528  -0.408396560116 0.09605419  0.00129827  0.2754461   0.124564387
  3  -2674.0147045208  -0.207455768006 0.21727546  0.00161327  0.1610057   0.071789985
  4  -2674.0717426269  -0.057038106109 0.07221095  0.00061602  0.0321601   0.020891602
  5  -2674.1066048438  -0.034862216939 0.11310863  0.00048968  0.0162059   0.005335461
  6  -2674.1132799257  -0.006675081920 0.05717344  0.00039512  0.0187821   0.004861272
  7  -2674.1178383528  -0.004558427064 0.14133677  0.00046627  0.0099018   0.004513481
  8  -2674.1105689286   0.007269424183 0.09787124  0.00036404  0.0168274   0.010534016
  9  -2674.1215583740  -0.010989445359 0.06109705  0.00020802  0.0056951   0.001772097
 10  -2674.1220888438  -0.000530469787 0.04362124  0.00012589  0.0043459   0.002941880
 11  -2674.1227438056  -0.000654961861 0.00885901  0.00007452  0.0031613   0.001254692
 12  -2674.1227147881   0.000029017540 0.00596262  0.00005766  0.0040494   0.001744731
 13  -2674.1229739304  -0.000259142319 0.00495560  0.00008329  0.0024412   0.000839331
 14  -2674.1232669213  -0.000292990845 0.00310105  0.00003011  0.0009614   0.000531249
 15  -2674.1232348841   0.000032037127 0.00491547  0.00004009  0.0019766   0.000779129
 16  -2674.1233284054  -0.000093521235 0.00137009  0.00001631  0.0007354   0.000434751
 17  -2674.1233343371  -0.000005931732 0.00309506  0.00001967  0.0010659   0.000336838
 18  -2674.1233593720  -0.000025034881 0.00268123  0.00001433  0.0005938   0.000313033
 19  -2674.1233610710  -0.000001699067 0.00091383  0.00001114  0.0009812   0.000296076
               *** Restarting incremental Fock matrix formation ***
                             ****Resetting KDIIS****
 20  -2674.1233749848  -0.000013913733 0.00011867  0.00000139  0.0005785   0.000138973
 21  -2674.1233768522  -0.000001867400 0.00034503  0.00000205  0.0005615   0.000106051
 22  -2674.1233794071  -0.000002554890 0.00023190  0.00000365  0.0005419   0.000094377

 WARNING: the maximum gradient error descreased on average only by a factor   1.1
          during the last 20 iterations

                      *** Initiating the TRAH-SCF procedure ***

                    *** KDIIS BlockDiag ( 0.069 sec) ***

TRAH GRID
---------

General Integration Accuracy     IntAcc      ... 3.467
Radial Grid Type                 RadialGrid  ... OptM3 with GC (2021)
Angular Grid (max. ang.)         AngularGrid ... 1 (Lebedev-50)
Angular grid pruning method      GridPruning ... 4 (adaptive)
Weight generation scheme         WeightScheme... Becke
Basis function cutoff            BFCut       ... 1.0000e-11
Integration weight cutoff        WCut        ... 1.0000e-14
Angular grids for H and He will be reduced by one unit
Partially contracted basis set               ... off
Rotationally invariant grid construction     ... off

Total number of grid points                  ...    62473
Total number of batches                      ...      983
Average number of points per batch           ...       63
Average number of grid points per atom       ...     4806

 --------------------------------------------------------------------------------------------
   Iter.        energy            ||Error||_2        Shift      TRadius  Mac/Mic        Rej.
 --------------------------------------------------------------------------------------------
    0      -2674.123384155340     1.345997e-03                     0.400 (TRAH MAcro)   No
WARNING : small    HOMO - LUMO gap : (op = alpha) 0.000132
WARNING : small    HOMO - LUMO gap : (op =  beta) 0.003336
    0     dE    -2.984053e-07     3.337122e-03    -2.9841e-07      0.000 (TRAH MIcro)
    0     dE    -7.914242e-06     3.812162e-03    -7.9085e-06      0.027 (TRAH MIcro)
    0     dE    -3.560642e-05     4.650174e-03    -3.5555e-05      0.038 (TRAH MIcro)
    0     dE    -4.488762e-05     2.604512e-03    -4.4779e-05      0.049 (TRAH MIcro)
    0     dE    -4.800986e-05     1.788825e-03    -4.7873e-05      0.053 (TRAH MIcro)
    0     dE    -5.079952e-05     1.709037e-03    -5.0606e-05      0.062 (TRAH MIcro)
    0     dE    -6.123060e-05     6.100491e-03    -6.0037e-05      0.141 (TRAH MIcro)
    0     dE    -1.065912e-04     4.592867e-03    -1.3112e-03      0.199 (TRAH MIcro)
    0     dE    -3.137287e-04     6.643915e-03    -1.5868e-03      0.400 (TRAH MIcro)
    0     dE    -4.873166e-05     7.912281e-04    -3.2347e-03      0.047 (TRAH MIcro)
    0     dE    -4.910044e-05     4.889448e-04    -3.2743e-03      0.046 (TRAH MIcro)
    0     dE    -4.912528e-05     3.004149e-04    -3.2853e-03      0.045 (TRAH MIcro)
    0     dE    -4.915856e-05     1.279583e-04    -3.2894e-03      0.045 (TRAH MIcro)
    1      -2674.123433150617     2.681200e-04                           (NR   MAcro)
WARNING : small    HOMO - LUMO gap : (op = alpha) 0.000163
WARNING : small    HOMO - LUMO gap : (op =  beta) 0.003407
    1     dE    -3.135138e-07     7.028366e-04                           (NR   MIcro)
    1     dE    -3.804077e-06     2.983729e-03                           (NR   MIcro)
    1     dE    -1.265100e-05     7.563834e-03                           (NR   MIcro)
    1     dE     8.569559e-06     3.725967e-03                           (NR   MIcro)
    1     dE     2.152067e-06     1.091375e-03                           (NR   MIcro)
    1     dE     1.334881e-06     7.603677e-04                           (NR   MIcro)
    1     dE     9.165359e-07     3.473117e-04                           (NR   MIcro)
    1     dE     8.454353e-07     1.839116e-04                           (NR   MIcro)
    1     dE     8.167564e-07     1.308672e-04                           (NR   MIcro)
    1     dE     8.072303e-07     6.844779e-05                           (NR   MIcro)
    1     dE     8.040020e-07     3.440193e-05                           (NR   MIcro)
    1     dE     8.033769e-07     1.435788e-05                           (NR   MIcro)
    1     dE     8.032605e-07     7.359658e-06                           (NR   MIcro)
    1     dE     8.032222e-07     4.621220e-06                           (NR   MIcro)
    1     dE     8.032102e-07     2.346016e-06                           (NR   MIcro)
    2      -2674.123432319114     8.764746e-05                           (NR   MAcro)
WARNING : small    HOMO - LUMO gap : (op = alpha) 0.000163
WARNING : small    HOMO - LUMO gap : (op =  beta) 0.003391
    2     dE    -1.180338e-09     7.258484e-05                           (NR   MIcro)
    2     dE    -2.074377e-09     6.129335e-05                           (NR   MIcro)
    2     dE    -3.654369e-09     3.813822e-05                           (NR   MIcro)
    2     dE    -4.678685e-09     3.066269e-05                           (NR   MIcro)
    2     dE    -6.416559e-09     7.752510e-05                           (NR   MIcro)
    2     dE    -2.632562e-09     5.893877e-05                           (NR   MIcro)
    2     dE    -3.600834e-09     2.000428e-05                           (NR   MIcro)
    2     dE    -3.795303e-09     1.007187e-05                           (NR   MIcro)
    2     dE    -3.865980e-09     5.897385e-06                           (NR   MIcro)
    2     dE    -3.884449e-09     2.600912e-06                           (NR   MIcro)
    2     dE    -3.887594e-09     9.929720e-07                           (NR   MIcro)
    3      -2674.123432323021     9.968904e-07                           (NR   MAcro)
WARNING : small    HOMO - LUMO gap : (op = alpha) 0.000156
WARNING : small    HOMO - LUMO gap : (op =  beta) 0.003386

               *****************************************************
               *                     SUCCESS                       *
               *           SCF CONVERGED AFTER  66 CYCLES          *
               *****************************************************


----------------
TOTAL SCF ENERGY
----------------

Total Energy       :        -2674.12343232 Eh          -72766.59798 eV

Components:
Nuclear Repulsion  :         4250.95089917 Eh          115674.25473 eV
Electronic Energy  :        -6925.07433150 Eh         -188440.85271 eV
One Electron Energy:       -12793.60939064 Eh         -348131.81020 eV
Two Electron Energy:         5868.53505914 Eh          159690.95749 eV

Virial components:
Potential Energy   :        -4266.33210903 Eh         -116092.79873 eV
Kinetic Energy     :         1592.20867671 Eh           43326.20075 eV
Virial Ratio       :            2.67950563


DFT components:
N(Alpha)           :      128.000025671223 electrons
N(Beta)            :      124.000023537061 electrons
N(Total)           :      252.000049208284 electrons
E(X)               :     -192.016613948934 Eh       
E(C)               :      -10.944010082525 Eh       
E(XC)              :     -202.960624031459 Eh       
DFET-embed. en.    :        0.000000000000 Eh       

---------------
SCF CONVERGENCE
---------------

  Last Energy change         ...   -3.9067e-09  Tolerance :   1.0000e-08
  Last Orbital Gradient      ...    9.9689e-07  Tolerance :   1.0000e-05
  Last Orbital Rotation      ...    4.3515e-04

             **** THE GBW FILE WAS UPDATED (pbe.gbw) ****
             **** DENSITY pbe.scfp WAS UPDATED ****
             **** ENERGY FILE WAS UPDATED (pbe.en.tmp) ****
----------------------
UHF SPIN CONTAMINATION
----------------------

Warning: in a DFT calculation there is little theoretical justification to 
         calculate <S**2> as in Hartree-Fock theory. We will do it anyways
         but you should keep in mind that the values have only limited relevance

Expectation value of <S**2>     :     6.171997
Ideal value S*(S+1) for S=2.0   :     6.000000
Deviation                       :     0.171997

             **** THE GBW FILE WAS UPDATED (pbe.gbw) ****
             **** DENSITY pbe.scfp WAS UPDATED ****
----------------
ORBITAL ENERGIES
----------------
                 SPIN UP ORBITALS
  NO   OCC          E(Eh)            E(eV) 
   0   1.0000    -214.497408     -5836.7712 
   1   1.0000     -24.303195      -661.3236 
   2   1.0000     -20.670282      -562.4670 
   3   1.0000     -20.666505      -562.3642 
   4   1.0000     -20.663351      -562.2784 
   5   1.0000      -4.027841      -109.6031 
   6   1.0000      -4.027666      -109.5984 
   7   1.0000      -4.023037      -109.4724 
   8   1.0000      -4.022264      -109.4514 
   9   1.0000      -4.022195      -109.4495 
  10   1.0000      -4.022110      -109.4472 
  11   1.0000      -4.021611      -109.4336 
  12   1.0000      -4.021318      -109.4256 
  13   1.0000      -4.020079      -109.3919 
  14   1.0000      -4.020023      -109.3904 
  15   1.0000      -4.017774      -109.3292 
  16   1.0000      -4.017715      -109.3276 
  17   1.0000      -2.801204       -76.2246 
  18   1.0000      -2.246023       -61.1174 
  19   1.0000      -2.245826       -61.1120 
  20   1.0000      -2.242322       -61.0167 
  21   1.0000      -2.242116       -61.0111 
  22   1.0000      -2.240564       -60.9688 
  23   1.0000      -2.240091       -60.9560 
  24   1.0000      -2.239953       -60.9522 
  25   1.0000      -2.239166       -60.9308 
  26   1.0000      -2.238779       -60.9203 
  27   1.0000      -2.238452       -60.9114 
  28   1.0000      -2.238383       -60.9095 
  29   1.0000      -2.238084       -60.9014 
  30   1.0000      -2.237061       -60.8735 
  31   1.0000      -2.236903       -60.8692 
  32   1.0000      -2.236649       -60.8623 
  33   1.0000      -2.236147       -60.8487 
  34   1.0000      -2.236075       -60.8467 
  35   1.0000      -2.235463       -60.8300 
  36   1.0000      -2.235244       -60.8241 
  37   1.0000      -2.234607       -60.8067 
  38   1.0000      -2.234304       -60.7985 
  39   1.0000      -2.234203       -60.7958 
  40   1.0000      -2.233387       -60.7736 
  41   1.0000      -2.233090       -60.7655 
  42   1.0000      -2.232918       -60.7608 
  43   1.0000      -2.232826       -60.7583 
  44   1.0000      -2.231216       -60.7145 
  45   1.0000      -2.231035       -60.7095 
  46   1.0000      -2.228303       -60.6352 
  47   1.0000      -2.227899       -60.6242 
  48   1.0000      -2.227379       -60.6101 
  49   1.0000      -2.226897       -60.5969 
  50   1.0000      -2.226863       -60.5960 
  51   1.0000      -2.225652       -60.5631 
  52   1.0000      -2.225440       -60.5573 
  53   1.0000      -2.225233       -60.5517 
  54   1.0000      -1.795106       -48.8473 
  55   1.0000      -1.791383       -48.7460 
  56   1.0000      -1.785741       -48.5925 
  57   1.0000      -0.410473       -11.1695 
  58   1.0000      -0.380691       -10.3591 
  59   1.0000      -0.368108       -10.0167 
  60   1.0000      -0.367040        -9.9877 
  61   1.0000      -0.361893        -9.8476 
  62   1.0000      -0.361338        -9.8325 
  63   1.0000      -0.351305        -9.5595 
  64   1.0000      -0.350236        -9.5304 
  65   1.0000      -0.349674        -9.5151 
  66   1.0000      -0.347713        -9.4618 
  67   1.0000      -0.344976        -9.3873 
  68   1.0000      -0.343139        -9.3373 
  69   1.0000      -0.339409        -9.2358 
  70   1.0000      -0.337300        -9.1784 
  71   1.0000      -0.333448        -9.0736 
  72   1.0000      -0.332144        -9.0381 
  73   1.0000      -0.326246        -8.8776 
  74   1.0000      -0.321412        -8.7461 
  75   1.0000      -0.320300        -8.7158 
  76   1.0000      -0.319439        -8.6924 
  77   1.0000      -0.316160        -8.6031 
  78   1.0000      -0.314354        -8.5540 
  79   1.0000      -0.313255        -8.5241 
  80   1.0000      -0.312871        -8.5136 
  81   1.0000      -0.309906        -8.4330 
  82   1.0000      -0.309274        -8.4158 
  83   1.0000      -0.305290        -8.3074 
  84   1.0000      -0.300366        -8.1734 
  85   1.0000      -0.297072        -8.0837 
  86   1.0000      -0.295706        -8.0466 
  87   1.0000      -0.292823        -7.9681 
  88   1.0000      -0.292707        -7.9650 
  89   1.0000      -0.292102        -7.9485 
  90   1.0000      -0.286073        -7.7844 
  91   1.0000      -0.284655        -7.7459 
  92   1.0000      -0.283379        -7.7111 
  93   1.0000      -0.283229        -7.7071 
  94   1.0000      -0.278977        -7.5913 
  95   1.0000      -0.275870        -7.5068 
  96   1.0000      -0.274497        -7.4694 
  97   1.0000      -0.274386        -7.4664 
  98   1.0000      -0.273217        -7.4346 
  99   1.0000      -0.272658        -7.4194 
 100   1.0000      -0.270944        -7.3728 
 101   1.0000      -0.268144        -7.2966 
 102   1.0000      -0.266770        -7.2592 
 103   1.0000      -0.265568        -7.2265 
 104   1.0000      -0.262380        -7.1397 
 105   1.0000      -0.259807        -7.0697 
 106   1.0000      -0.257937        -7.0188 
 107   1.0000      -0.256720        -6.9857 
 108   1.0000      -0.255134        -6.9425 
 109   1.0000      -0.254211        -6.9174 
 110   1.0000      -0.252888        -6.8814 
 111   1.0000      -0.250827        -6.8253 
 112   1.0000      -0.249714        -6.7951 
 113   1.0000      -0.247880        -6.7452 
 114   1.0000      -0.246167        -6.6985 
 115   1.0000      -0.245961        -6.6929 
 116   1.0000      -0.244414        -6.6508 
 117   1.0000      -0.243109        -6.6153 
 118   1.0000      -0.237529        -6.4635 
 119   1.0000      -0.234653        -6.3852 
 120   1.0000      -0.232661        -6.3310 
 121   1.0000      -0.220947        -6.0123 
 122   1.0000      -0.212068        -5.7707 
 123   1.0000      -0.210514        -5.7284 
 124   1.0000      -0.209508        -5.7010 
 125   1.0000      -0.205887        -5.6025 
 126   1.0000      -0.198283        -5.3956 
 127   1.0000      -0.181466        -4.9379 
 128   0.0000      -0.181311        -4.9337 
 129   0.0000      -0.156265        -4.2522 
 130   0.0000      -0.135927        -3.6988 
 131   0.0000      -0.128034        -3.4840 
 132   0.0000      -0.122879        -3.3437 
 133   0.0000      -0.118828        -3.2335 
 134   0.0000      -0.109199        -2.9715 
 135   0.0000      -0.082605        -2.2478 
 136   0.0000      -0.063156        -1.7186 
 137   0.0000      -0.052467        -1.4277 
 138   0.0000      -0.049499        -1.3469 
 139   0.0000      -0.045848        -1.2476 
 140   0.0000      -0.043223        -1.1762 
 141   0.0000      -0.030321        -0.8251 
 142   0.0000      -0.022258        -0.6057 
 143   0.0000      -0.018675        -0.5082 
 144   0.0000      -0.005334        -0.1451 
 145   0.0000       0.010608         0.2887 
 146   0.0000       0.014479         0.3940 
 147   0.0000       0.018626         0.5068 
 148   0.0000       0.020755         0.5648 
 149   0.0000       0.031758         0.8642 
 150   0.0000       0.044158         1.2016 
 151   0.0000       0.044801         1.2191 
 152   0.0000       0.048835         1.3289 
 153   0.0000       0.054015         1.4698 
 154   0.0000       0.055918         1.5216 
 155   0.0000       0.061565         1.6753 
 156   0.0000       0.062154         1.6913 
 157   0.0000       0.065964         1.7950 
 158   0.0000       0.068152         1.8545 
 159   0.0000       0.075838         2.0636 
 160   0.0000       0.082121         2.2346 
 161   0.0000       0.083248         2.2653 
 162   0.0000       0.092788         2.5249 
 163   0.0000       0.095178         2.5899 
 164   0.0000       0.102051         2.7769 
 165   0.0000       0.105281         2.8648 
 166   0.0000       0.109629         2.9832 
 167   0.0000       0.113023         3.0755 
 168   0.0000       0.126639         3.4460 
 169   0.0000       0.131179         3.5696 
 170   0.0000       0.132196         3.5972 
 171   0.0000       0.139581         3.7982 
 172   0.0000       0.144761         3.9391 
 173   0.0000       0.145765         3.9665 
 174   0.0000       0.153660         4.1813 
 175   0.0000       0.162193         4.4135 
 176   0.0000       0.164053         4.4641 
 177   0.0000       0.167818         4.5665 
 178   0.0000       0.175491         4.7754 
 179   0.0000       0.188102         5.1185 
 180   0.0000       0.201618         5.4863 
 181   0.0000       0.207461         5.6453 
 182   0.0000       0.212756         5.7894 
 183   0.0000       0.218245         5.9388 
 184   0.0000       0.226076         6.1518 
 185   0.0000       0.226665         6.1679 
 186   0.0000       0.234721         6.3871 
 187   0.0000       0.236609         6.4385 
 188   0.0000       0.239405         6.5146 
 189   0.0000       0.241228         6.5641 
 190   0.0000       0.245454         6.6791 
 191   0.0000       0.256725         6.9859 
 192   0.0000       0.263452         7.1689 
 193   0.0000       0.265524         7.2253 
 194   0.0000       0.265669         7.2292 
 195   0.0000       0.273946         7.4545 
 196   0.0000       0.277310         7.5460 
 197   0.0000       0.278409         7.5759 
 198   0.0000       0.288857         7.8602 
 199   0.0000       0.295691         8.0462 
 200   0.0000       0.300703         8.1826 
 201   0.0000       0.303928         8.2703 
 202   0.0000       0.307528         8.3683 
 203   0.0000       0.312954         8.5159 
 204   0.0000       0.313745         8.5374 
 205   0.0000       0.318300         8.6614 
 206   0.0000       0.324825         8.8389 
 207   0.0000       0.329618         8.9694 
 208   0.0000       0.336276         9.1505 
 209   0.0000       0.342351         9.3158 
 210   0.0000       0.347261         9.4495 
 211   0.0000       0.351872         9.5749 
 212   0.0000       0.355601         9.6764 
 213   0.0000       0.355733         9.6800 
 214   0.0000       0.367564        10.0019 
 215   0.0000       0.374380        10.1874 
 216   0.0000       0.379130        10.3167 
 217   0.0000       0.380475        10.3533 
 218   0.0000       0.382063        10.3965 
 219   0.0000       0.385429        10.4881 
 220   0.0000       0.390524        10.6267 
 221   0.0000       0.392631        10.6840 
 222   0.0000       0.397486        10.8161 
 223   0.0000       0.404582        11.0092 
 224   0.0000       0.412725        11.2308 
 225   0.0000       0.430218        11.7068 
 226   0.0000       0.430788        11.7223 
 227   0.0000       0.432966        11.7816 
 228   0.0000       0.435150        11.8410 
 229   0.0000       0.442803        12.0493 
 230   0.0000       0.443113        12.0577 
 231   0.0000       0.449970        12.2443 
 232   0.0000       0.467525        12.7220 
 233   0.0000       0.472173        12.8485 
 234   0.0000       0.472508        12.8576 
 235   0.0000       0.477312        12.9883 
 236   0.0000       0.481299        13.0968 
 237   0.0000       0.484955        13.1963 
 238   0.0000       0.490518        13.3477 
 239   0.0000       0.492085        13.3903 
 240   0.0000       0.497399        13.5349 
 241   0.0000       0.500095        13.6083 
 242   0.0000       0.506377        13.7792 
 243   0.0000       0.510084        13.8801 
 244   0.0000       0.513157        13.9637 
 245   0.0000       0.518720        14.1151 
 246   0.0000       0.525605        14.3024 
 247   0.0000       0.537139        14.6163 
 248   0.0000       0.537979        14.6391 
 249   0.0000       0.544047        14.8043 
 250   0.0000       0.552589        15.0367 
 251   0.0000       0.552714        15.0401 
 252   0.0000       0.565881        15.3984 
 253   0.0000       0.568382        15.4665 
 254   0.0000       0.585875        15.9425 
 255   0.0000       0.592326        16.1180 
 256   0.0000       0.593341        16.1456 
 257   0.0000       0.616092        16.7647 
 258   0.0000       0.652506        17.7556 
 259   0.0000       0.691682        18.8216 
 260   0.0000       0.701167        19.0797 
 261   0.0000       0.704510        19.1707 
 262   0.0000       0.714803        19.4508 
 263   0.0000       0.716449        19.4956 
 264   0.0000       0.728683        19.8285 
 265   0.0000       0.736432        20.0393 
 266   0.0000       0.738221        20.0880 
 267   0.0000       0.761632        20.7251 
 268   0.0000       0.778616        21.1872 
 269   0.0000       0.785177        21.3658 
 270   0.0000       0.792290        21.5593 
 271   0.0000       0.792323        21.5602 
 272   0.0000       0.802711        21.8429 
 273   0.0000       0.813971        22.1493 
 274   0.0000       0.819576        22.3018 
 275   0.0000       0.838817        22.8254 
 276   0.0000       0.843874        22.9630 
 277   0.0000       0.867712        23.6116 
 278   0.0000       0.869064        23.6484 
 279   0.0000       0.880646        23.9636 
 280   0.0000       0.893432        24.3115 
 281   0.0000       0.903252        24.5787 
 282   0.0000       0.904392        24.6097 
 283   0.0000       0.926358        25.2075 
 284   0.0000       0.927129        25.2285 
 285   0.0000       0.958907        26.0932 
 286   0.0000       0.966934        26.3116 
 287   0.0000       0.997149        27.1338 
 288   0.0000       1.010421        27.4949 
 289   0.0000       1.021870        27.8065 
 290   0.0000       1.100793        29.9541 
 291   0.0000       1.113140        30.2901 
 292   0.0000       1.126650        30.6577 
 293   0.0000       1.222258        33.2593 
 294   0.0000       1.226405        33.3722 
 295   0.0000       1.247146        33.9366 
 296   0.0000       1.247411        33.9438 
 297   0.0000       1.266504        34.4633 
 298   0.0000       1.270343        34.5678 
 299   0.0000       1.282750        34.9054 
 300   0.0000       1.284017        34.9399 
 301   0.0000       1.294765        35.2323 
 302   0.0000       1.300104        35.3776 
 303   0.0000       1.307896        35.5896 
 304   0.0000       1.322718        35.9930 
 305   0.0000       1.326301        36.0905 
 306   0.0000       1.334442        36.3120 
 307   0.0000       1.349662        36.7262 
 308   0.0000       1.350758        36.7560 
 309   0.0000       1.366041        37.1719 
 310   0.0000       1.369715        37.2718 
 311   0.0000       1.378179        37.5022 
 312   0.0000       1.379718        37.5440 
 313   0.0000       1.386624        37.7319 
 314   0.0000       1.394501        37.9463 
 315   0.0000       1.398875        38.0653 
 316   0.0000       1.401143        38.1270 
 317   0.0000       1.410692        38.3869 
 318   0.0000       1.416119        38.5346 
 319   0.0000       1.426419        38.8148 
 320   0.0000       1.427098        38.8333 
 321   0.0000       1.432383        38.9771 
 322   0.0000       1.432578        38.9824 
 323   0.0000       1.435646        39.0659 
 324   0.0000       1.438830        39.1526 
 325   0.0000       1.442421        39.2503 
 326   0.0000       1.448495        39.4155 
 327   0.0000       1.449788        39.4507 
 328   0.0000       1.452826        39.5334 
 329   0.0000       1.453056        39.5397 
 330   0.0000       1.456349        39.6293 
 331   0.0000       1.458587        39.6902 
 332   0.0000       1.461343        39.7652 
 333   0.0000       1.464302        39.8457 
 334   0.0000       1.464586        39.8534 
 335   0.0000       1.468656        39.9642 
 336   0.0000       1.474755        40.1301 
 337   0.0000       1.477906        40.2159 
 338   0.0000       1.480714        40.2923 
 339   0.0000       1.481674        40.3184 
 340   0.0000       1.483521        40.3687 
 341   0.0000       1.483854        40.3777 
 342   0.0000       1.485616        40.4257 
 343   0.0000       1.487301        40.4715 
 344   0.0000       1.488645        40.5081 
 345   0.0000       1.490212        40.5507 
 346   0.0000       1.491091        40.5747 
 347   0.0000       1.493574        40.6422 
 348   0.0000       1.495955        40.7070 
 349   0.0000       1.499040        40.7909 
 350   0.0000       1.499120        40.7931 
 351   0.0000       1.501785        40.8657 
 352   0.0000       1.503531        40.9132 
 353   0.0000       1.505677        40.9715 
 354   0.0000       1.507167        41.0121 
 355   0.0000       1.509953        41.0879 
 356   0.0000       1.511284        41.1241 
 357   0.0000       1.515028        41.2260 
 358   0.0000       1.515135        41.2289 
 359   0.0000       1.517624        41.2966 
 360   0.0000       1.520143        41.3652 
 361   0.0000       1.522790        41.4372 
 362   0.0000       1.524268        41.4774 
 363   0.0000       1.525823        41.5198 
 364   0.0000       1.527163        41.5562 
 365   0.0000       1.528688        41.5977 
 366   0.0000       1.532269        41.6951 
 367   0.0000       1.532685        41.7065 
 368   0.0000       1.535063        41.7712 
 369   0.0000       1.536903        41.8213 
 370   0.0000       1.538189        41.8562 
 371   0.0000       1.539250        41.8851 
 372   0.0000       1.543009        41.9874 
 373   0.0000       1.543438        41.9991 
 374   0.0000       1.546842        42.0917 
 375   0.0000       1.548671        42.1415 
 376   0.0000       1.550323        42.1864 
 377   0.0000       1.551200        42.2103 
 378   0.0000       1.553486        42.2725 
 379   0.0000       1.553717        42.2788 
 380   0.0000       1.556897        42.3653 
 381   0.0000       1.557939        42.3937 
 382   0.0000       1.564100        42.5613 
 383   0.0000       1.565371        42.5959 
 384   0.0000       1.569697        42.7136 
 385   0.0000       1.569822        42.7170 
 386   0.0000       1.571257        42.7561 
 387   0.0000       1.573012        42.8038 
 388   0.0000       1.579419        42.9782 
 389   0.0000       1.582101        43.0512 
 390   0.0000       1.583583        43.0915 
 391   0.0000       1.587723        43.2041 
 392   0.0000       1.588772        43.2327 
 393   0.0000       1.590751        43.2865 
 394   0.0000       1.594538        43.3896 
 395   0.0000       1.600463        43.5508 
 396   0.0000       1.604040        43.6482 
 397   0.0000       1.607181        43.7336 
 398   0.0000       1.607728        43.7485 
 399   0.0000       1.609333        43.7922 
 400   0.0000       1.613733        43.9119 
 401   0.0000       1.614052        43.9206 
 402   0.0000       1.618973        44.0545 
 403   0.0000       1.626388        44.2563 
 404   0.0000       1.631998        44.4089 
 405   0.0000       1.633441        44.4482 
 406   0.0000       1.635675        44.5090 
 407   0.0000       1.643920        44.7333 
 408   0.0000       1.649842        44.8945 
 409   0.0000       1.657446        45.1014 
 410   0.0000       1.662331        45.2343 
 411   0.0000       1.667695        45.3803 
 412   0.0000       1.680891        45.7394 
 413   0.0000       1.682703        45.7887 
 414   0.0000       1.685267        45.8585 
 415   0.0000       1.687551        45.9206 
 416   0.0000       1.706797        46.4443 
 417   0.0000       1.713573        46.6287 
 418   0.0000       1.722905        46.8826 
 419   0.0000       1.731325        47.1118 
 420   0.0000       1.752921        47.6994 
 421   0.0000       1.760838        47.9149 
 422   0.0000       1.761974        47.9457 
 423   0.0000       1.765729        48.0479 
 424   0.0000       1.770407        48.1752 
 425   0.0000       1.795212        48.8502 
 426   0.0000       1.805809        49.1386 
 427   0.0000       1.816336        49.4250 
 428   0.0000       1.817314        49.4516 
 429   0.0000       1.825877        49.6846 
 430   0.0000       1.826344        49.6973 
 431   0.0000       1.846243        50.2388 
 432   0.0000       1.862657        50.6855 
 433   0.0000       1.912973        52.0547 
 434   0.0000       1.926479        52.4222 
 435   0.0000       1.946034        52.9543 
 436   0.0000       1.981488        53.9190 
 437   0.0000       1.984959        54.0135 
 438   0.0000       2.001120        54.4532 
 439   0.0000       2.106637        57.3245 
 440   0.0000       2.140022        58.2329 
 441   0.0000       2.228223        60.6330 
 442   0.0000       2.246309        61.1252 
 443   0.0000       2.252923        61.3051 
 444   0.0000       2.263820        61.6017 
 445   0.0000       2.335170        63.5432 
 446   0.0000       2.364839        64.3506 
 447   0.0000       2.372480        64.5585 
 448   0.0000       2.374191        64.6050 
 449   0.0000       2.409162        65.5566 
 450   0.0000       2.437330        66.3231 
 451   0.0000       2.462129        66.9979 
 452   0.0000       2.474689        67.3397 
 453   0.0000       2.520484        68.5858 
 454   0.0000       2.567464        69.8642 
 455   0.0000       2.602744        70.8243 
 456   0.0000       2.779224        75.6265 
 457   0.0000       2.820383        76.7465 
 458   0.0000       2.840916        77.3053 
 459   0.0000       2.849677        77.5437 
 460   0.0000       2.853025        77.6348 
 461   0.0000       2.890692        78.6597 
 462   0.0000       2.892462        78.7079 
 463   0.0000       2.941801        80.0505 
 464   0.0000       2.983756        81.1921 
 465   0.0000      23.685165       644.5061 
 466   0.0000      23.940838       651.4633 
 467   0.0000      24.050707       654.4530 
 468   0.0000      24.254394       659.9956 
 469   0.0000      24.364274       662.9856 
 470   0.0000      24.636365       670.3896 
 471   0.0000      24.655834       670.9194 
 472   0.0000      24.887056       677.2112 
 473   0.0000      25.220851       686.2943 
 474   0.0000      25.222964       686.3517 
 475   0.0000      25.354108       689.9204 
 476   0.0000      25.541610       695.0225 
 477   0.0000      25.595996       696.5025 
 478   0.0000      25.692052       699.1163 
 479   0.0000      25.833135       702.9553 
 480   0.0000      25.997221       707.4204 
 481   0.0000      26.030137       708.3160 
 482   0.0000      26.162512       711.9181 
 483   0.0000      26.176462       712.2978 
 484   0.0000      26.406865       718.5673 
 485   0.0000      26.445897       719.6294 
 486   0.0000      26.482093       720.6144 
 487   0.0000      26.532475       721.9853 
 488   0.0000      26.727271       727.2860 
 489   0.0000      26.922963       732.6111 
 490   0.0000      26.996710       734.6178 
 491   0.0000      27.215132       740.5614 
 492   0.0000      27.249965       741.5093 
 493   0.0000      27.314894       743.2761 
 494   0.0000      27.528057       749.0765 
 495   0.0000      27.666498       752.8437 
 496   0.0000      27.761524       755.4295 
 497   0.0000      28.399649       772.7937 
 498   0.0000      29.061143       790.7939 
 499   0.0000      29.100423       791.8628 
 500   0.0000      29.745190       809.4078 
 501   0.0000      43.884293      1194.1523 
 502   0.0000      43.959788      1196.2066 
 503   0.0000      43.996620      1197.2089 
 504   0.0000      44.003257      1197.3895 
 505   0.0000      44.057306      1198.8603 
 506   0.0000      44.078299      1199.4315 
 507   0.0000      44.092837      1199.8271 
 508   0.0000      44.117802      1200.5064 
 509   0.0000      44.135910      1200.9992 
 510   0.0000      44.199665      1202.7340 
 511   0.0000      44.217074      1203.2078 
 512   0.0000      44.249186      1204.0816 
 513   0.0000     205.086811      5580.6959 
 514   0.0000     205.117269      5581.5246 
 515   0.0000     205.131638      5581.9157 
 516   0.0000     205.134521      5581.9941 
 517   0.0000     205.158458      5582.6455 
 518   0.0000     205.165238      5582.8300 
 519   0.0000     205.173109      5583.0441 
 520   0.0000     205.183493      5583.3267 
 521   0.0000     205.190438      5583.5157 
 522   0.0000     205.211818      5584.0975 
 523   0.0000     205.223133      5584.4053 
 524   0.0000     205.238654      5584.8277 

                 SPIN DOWN ORBITALS
  NO   OCC          E(Eh)            E(eV) 
   0   1.0000    -214.496977     -5836.7595 
   1   1.0000     -24.260635      -660.1654 
   2   1.0000     -20.640609      -561.6595 
   3   1.0000     -20.632322      -561.4340 
   4   1.0000     -20.629591      -561.3597 
   5   1.0000      -4.026153      -109.5572 
   6   1.0000      -4.025981      -109.5525 
   7   1.0000      -4.021770      -109.4379 
   8   1.0000      -4.021679      -109.4355 
   9   1.0000      -4.021175      -109.4217 
  10   1.0000      -4.021065      -109.4187 
  11   1.0000      -4.020206      -109.3954 
  12   1.0000      -4.019883      -109.3866 
  13   1.0000      -4.018571      -109.3509 
  14   1.0000      -4.018528      -109.3497 
  15   1.0000      -4.016594      -109.2971 
  16   1.0000      -4.016535      -109.2955 
  17   1.0000      -2.686988       -73.1166 
  18   1.0000      -2.244179       -61.0672 
  19   1.0000      -2.243986       -61.0620 
  20   1.0000      -2.240925       -60.9787 
  21   1.0000      -2.240719       -60.9731 
  22   1.0000      -2.238434       -60.9109 
  23   1.0000      -2.238053       -60.9005 
  24   1.0000      -2.237868       -60.8955 
  25   1.0000      -2.237478       -60.8849 
  26   1.0000      -2.237297       -60.8800 
  27   1.0000      -2.236765       -60.8655 
  28   1.0000      -2.236516       -60.8587 
  29   1.0000      -2.236417       -60.8560 
  30   1.0000      -2.235694       -60.8363 
  31   1.0000      -2.235624       -60.8344 
  32   1.0000      -2.235275       -60.8249 
  33   1.0000      -2.234942       -60.8159 
  34   1.0000      -2.234797       -60.8119 
  35   1.0000      -2.234429       -60.8019 
  36   1.0000      -2.234262       -60.7974 
  37   1.0000      -2.233615       -60.7798 
  38   1.0000      -2.233106       -60.7659 
  39   1.0000      -2.232940       -60.7614 
  40   1.0000      -2.231805       -60.7305 
  41   1.0000      -2.231683       -60.7272 
  42   1.0000      -2.231500       -60.7222 
  43   1.0000      -2.231434       -60.7204 
  44   1.0000      -2.230115       -60.6845 
  45   1.0000      -2.229907       -60.6788 
  46   1.0000      -2.227407       -60.6108 
  47   1.0000      -2.227017       -60.6002 
  48   1.0000      -2.226121       -60.5758 
  49   1.0000      -2.225892       -60.5696 
  50   1.0000      -2.225589       -60.5614 
  51   1.0000      -2.224267       -60.5254 
  52   1.0000      -2.224181       -60.5230 
  53   1.0000      -2.223968       -60.5173 
  54   1.0000      -1.692166       -46.0462 
  55   1.0000      -1.673635       -45.5419 
  56   1.0000      -1.669185       -45.4208 
  57   1.0000      -0.402574       -10.9546 
  58   1.0000      -0.376895       -10.2558 
  59   1.0000      -0.365421        -9.9436 
  60   1.0000      -0.361654        -9.8411 
  61   1.0000      -0.357474        -9.7274 
  62   1.0000      -0.357348        -9.7239 
  63   1.0000      -0.346964        -9.4414 
  64   1.0000      -0.345588        -9.4039 
  65   1.0000      -0.343389        -9.3441 
  66   1.0000      -0.343087        -9.3359 
  67   1.0000      -0.340313        -9.2604 
  68   1.0000      -0.337906        -9.1949 
  69   1.0000      -0.334617        -9.1054 
  70   1.0000      -0.333044        -9.0626 
  71   1.0000      -0.329237        -8.9590 
  72   1.0000      -0.327847        -8.9212 
  73   1.0000      -0.324583        -8.8323 
  74   1.0000      -0.319327        -8.6893 
  75   1.0000      -0.318414        -8.6645 
  76   1.0000      -0.317335        -8.6351 
  77   1.0000      -0.313696        -8.5361 
  78   1.0000      -0.311824        -8.4851 
  79   1.0000      -0.309945        -8.4340 
  80   1.0000      -0.308493        -8.3945 
  81   1.0000      -0.305514        -8.3135 
  82   1.0000      -0.303094        -8.2476 
  83   1.0000      -0.303020        -8.2456 
  84   1.0000      -0.298884        -8.1330 
  85   1.0000      -0.295253        -8.0342 
  86   1.0000      -0.293745        -7.9932 
  87   1.0000      -0.291819        -7.9408 
  88   1.0000      -0.291009        -7.9188 
  89   1.0000      -0.289825        -7.8865 
  90   1.0000      -0.284733        -7.7480 
  91   1.0000      -0.283444        -7.7129 
  92   1.0000      -0.282349        -7.6831 
  93   1.0000      -0.281464        -7.6590 
  94   1.0000      -0.276898        -7.5348 
  95   1.0000      -0.273715        -7.4482 
  96   1.0000      -0.272682        -7.4201 
  97   1.0000      -0.272526        -7.4158 
  98   1.0000      -0.271251        -7.3811 
  99   1.0000      -0.271066        -7.3761 
 100   1.0000      -0.269370        -7.3299 
 101   1.0000      -0.267494        -7.2789 
 102   1.0000      -0.265354        -7.2207 
 103   1.0000      -0.264326        -7.1927 
 104   1.0000      -0.261151        -7.1063 
 105   1.0000      -0.258318        -7.0292 
[...]
 140( 0) :    -0.034029 a.u.    -0.926 eV
 141( 0) :    -0.026563 a.u.    -0.723 eV
 142( 0) :    -0.026031 a.u.    -0.708 eV
 143( 0) :    -0.024813 a.u.    -0.675 eV
 144( 0) :    -0.007392 a.u.    -0.201 eV
 145( 0) :     0.001161 a.u.     0.032 eV
 146( 0) :     0.006030 a.u.     0.164 eV
 147( 0) :     0.026103 a.u.     0.710 eV
 148( 0) :     0.037042 a.u.     1.008 eV
 149( 0) :     0.040197 a.u.     1.094 eV
 150( 0) :     0.042941 a.u.     1.168 eV
 151( 0) :     0.045374 a.u.     1.235 eV
 152( 0) :     0.049463 a.u.     1.346 eV
 153( 0) :     0.054111 a.u.     1.472 eV
 154( 0) :     0.056895 a.u.     1.548 eV
 155( 0) :     0.062340 a.u.     1.696 eV
 156( 0) :     0.062492 a.u.     1.700 eV
 157( 0) :     0.067100 a.u.     1.826 eV
 158( 0) :     0.069716 a.u.     1.897 eV
 159( 0) :     0.075335 a.u.     2.050 eV
 160( 0) :     0.087365 a.u.     2.377 eV
 161( 0) :     0.087959 a.u.     2.393 eV
 162( 0) :     0.091844 a.u.     2.499 eV
 163( 0) :     0.096793 a.u.     2.634 eV
 164( 0) :     0.102575 a.u.     2.791 eV
 165( 0) :     0.104366 a.u.     2.840 eV
 166( 0) :     0.111478 a.u.     3.033 eV
 167( 0) :     0.115254 a.u.     3.136 eV
 168( 0) :     0.120400 a.u.     3.276 eV
 169( 0) :     0.126510 a.u.     3.443 eV
 170( 0) :     0.128698 a.u.     3.502 eV
 171( 0) :     0.133984 a.u.     3.646 eV
 172( 0) :     0.142782 a.u.     3.885 eV
 173( 0) :     0.142958 a.u.     3.890 eV
 174( 0) :     0.155369 a.u.     4.228 eV
 175( 0) :     0.157445 a.u.     4.284 eV
 176( 0) :     0.162310 a.u.     4.417 eV
 177( 0) :     0.167178 a.u.     4.549 eV
 178( 0) :     0.181106 a.u.     4.928 eV
 179( 0) :     0.182853 a.u.     4.976 eV
 180( 0) :     0.200702 a.u.     5.461 eV
 181( 0) :     0.202947 a.u.     5.522 eV
 182( 0) :     0.211720 a.u.     5.761 eV
 183( 0) :     0.214113 a.u.     5.826 eV
 184( 0) :     0.214492 a.u.     5.837 eV
 185( 0) :     0.218644 a.u.     5.950 eV
 186( 0) :     0.232282 a.u.     6.321 eV
 187( 0) :     0.238714 a.u.     6.496 eV
 188( 0) :     0.243638 a.u.     6.630 eV
 189( 0) :     0.248612 a.u.     6.765 eV
 190( 0) :     0.251831 a.u.     6.853 eV
 191( 0) :     0.253243 a.u.     6.891 eV
 192( 0) :     0.260621 a.u.     7.092 eV
 193( 0) :     0.261554 a.u.     7.117 eV
 194( 0) :     0.263478 a.u.     7.170 eV
 195( 0) :     0.265974 a.u.     7.238 eV
 196( 0) :     0.268535 a.u.     7.307 eV
 197( 0) :     0.273888 a.u.     7.453 eV
 198( 0) :     0.277194 a.u.     7.543 eV
 199( 0) :     0.288893 a.u.     7.861 eV
 200( 0) :     0.292684 a.u.     7.964 eV
 201( 0) :     0.297530 a.u.     8.096 eV
 202( 0) :     0.303230 a.u.     8.251 eV
 203( 0) :     0.305190 a.u.     8.305 eV
 204( 0) :     0.313490 a.u.     8.530 eV
 205( 0) :     0.322059 a.u.     8.764 eV
 206( 0) :     0.332090 a.u.     9.037 eV
 207( 0) :     0.333023 a.u.     9.062 eV
 208( 0) :     0.335028 a.u.     9.117 eV
 209( 0) :     0.338047 a.u.     9.199 eV
 210( 0) :     0.342710 a.u.     9.326 eV
 211( 0) :     0.344581 a.u.     9.377 eV
 212( 0) :     0.350077 a.u.     9.526 eV
 213( 0) :     0.351376 a.u.     9.561 eV
 214( 0) :     0.358351 a.u.     9.751 eV
 215( 0) :     0.359947 a.u.     9.795 eV
 216( 0) :     0.363990 a.u.     9.905 eV
 217( 0) :     0.384405 a.u.    10.460 eV
 218( 0) :     0.386457 a.u.    10.516 eV
 219( 0) :     0.392219 a.u.    10.673 eV
 220( 0) :     0.394192 a.u.    10.726 eV
 221( 0) :     0.405164 a.u.    11.025 eV
 222( 0) :     0.410148 a.u.    11.161 eV
 223( 0) :     0.412532 a.u.    11.226 eV
 224( 0) :     0.414753 a.u.    11.286 eV
 225( 0) :     0.415687 a.u.    11.311 eV
 226( 0) :     0.433037 a.u.    11.784 eV
 227( 0) :     0.438150 a.u.    11.923 eV
 228( 0) :     0.444054 a.u.    12.083 eV
 229( 0) :     0.448964 a.u.    12.217 eV
 230( 0) :     0.452858 a.u.    12.323 eV
 231( 0) :     0.457656 a.u.    12.453 eV
 232( 0) :     0.459830 a.u.    12.513 eV
 233( 0) :     0.462197 a.u.    12.577 eV
 234( 0) :     0.467349 a.u.    12.717 eV
 235( 0) :     0.467776 a.u.    12.729 eV
 236( 0) :     0.473385 a.u.    12.881 eV
 237( 0) :     0.475205 a.u.    12.931 eV
 238( 0) :     0.483927 a.u.    13.168 eV
 239( 0) :     0.485047 a.u.    13.199 eV
 240( 0) :     0.497984 a.u.    13.551 eV
 241( 0) :     0.505772 a.u.    13.763 eV
 242( 0) :     0.508242 a.u.    13.830 eV
 243( 0) :     0.512700 a.u.    13.951 eV
 244( 0) :     0.513497 a.u.    13.973 eV
 245( 0) :     0.516998 a.u.    14.068 eV
 246( 0) :     0.528736 a.u.    14.388 eV
 247( 0) :     0.530235 a.u.    14.428 eV
 248( 0) :     0.537912 a.u.    14.637 eV
 249( 0) :     0.541683 a.u.    14.740 eV
 250( 0) :     0.554182 a.u.    15.080 eV
 251( 0) :     0.560589 a.u.    15.254 eV
 252( 0) :     0.562241 a.u.    15.299 eV
 253( 0) :     0.566837 a.u.    15.424 eV
 254( 0) :     0.569499 a.u.    15.497 eV
 255( 0) :     0.572724 a.u.    15.585 eV
 256( 0) :     0.590422 a.u.    16.066 eV
 257( 0) :     0.638652 a.u.    17.379 eV
 258( 0) :     0.643482 a.u.    17.510 eV
 259( 0) :     0.661855 a.u.    18.010 eV
 260( 0) :     0.674709 a.u.    18.360 eV
 261( 0) :     0.679493 a.u.    18.490 eV
 262( 0) :     0.684683 a.u.    18.631 eV
 263( 0) :     0.689177 a.u.    18.753 eV
 264( 0) :     0.699893 a.u.    19.045 eV
 265( 0) :     0.732344 a.u.    19.928 eV
 266( 0) :     0.743244 a.u.    20.225 eV
 267( 0) :     0.744579 a.u.    20.261 eV
 268( 0) :     0.755554 a.u.    20.560 eV
 269( 0) :     0.770493 a.u.    20.966 eV
 270( 0) :     0.774404 a.u.    21.073 eV
 271( 0) :     0.778405 a.u.    21.181 eV
 272( 0) :     0.796031 a.u.    21.661 eV
 273( 0) :     0.801453 a.u.    21.809 eV
 274( 0) :     0.810676 a.u.    22.060 eV
 275( 0) :     0.827520 a.u.    22.518 eV
 276( 0) :     0.834068 a.u.    22.696 eV
 277( 0) :     0.863483 a.u.    23.497 eV
 278( 0) :     0.868597 a.u.    23.636 eV
 279( 0) :     0.888559 a.u.    24.179 eV
 280( 0) :     0.905252 a.u.    24.633 eV
 281( 0) :     0.911679 a.u.    24.808 eV
 282( 0) :     0.914873 a.u.    24.895 eV
 283( 0) :     0.925002 a.u.    25.171 eV
 284( 0) :     0.925978 a.u.    25.197 eV
 285( 0) :     0.950772 a.u.    25.872 eV
 286( 0) :     0.988078 a.u.    26.887 eV
 287( 0) :     1.007162 a.u.    27.406 eV
 288( 0) :     1.022350 a.u.    27.820 eV
 289( 0) :     1.031845 a.u.    28.078 eV
 290( 0) :     1.088106 a.u.    29.609 eV
 291( 0) :     1.146342 a.u.    31.194 eV
 292( 0) :     1.160935 a.u.    31.591 eV
 293( 0) :     1.193475 a.u.    32.476 eV
 294( 0) :     1.233558 a.u.    33.567 eV
 295( 0) :     1.234915 a.u.    33.604 eV
 296( 0) :     1.244026 a.u.    33.852 eV
 297( 0) :     1.271822 a.u.    34.608 eV
 298( 0) :     1.272285 a.u.    34.621 eV
 299( 0) :     1.282982 a.u.    34.912 eV
 300( 0) :     1.298044 a.u.    35.322 eV
 301( 0) :     1.303246 a.u.    35.463 eV
 302( 0) :     1.303922 a.u.    35.482 eV
 303( 0) :     1.321734 a.u.    35.966 eV
 304( 0) :     1.329926 a.u.    36.189 eV
 305( 0) :     1.330272 a.u.    36.199 eV
 306( 0) :     1.331847 a.u.    36.241 eV
 307( 0) :     1.339637 a.u.    36.453 eV
 308( 0) :     1.354162 a.u.    36.849 eV
 309( 0) :     1.366797 a.u.    37.192 eV
 310( 0) :     1.384085 a.u.    37.663 eV
 311( 0) :     1.387283 a.u.    37.750 eV
 312( 0) :     1.393382 a.u.    37.916 eV
 313( 0) :     1.395917 a.u.    37.985 eV
 314( 0) :     1.399603 a.u.    38.085 eV
 315( 0) :     1.402810 a.u.    38.172 eV
 316( 0) :     1.404820 a.u.    38.227 eV
 317( 0) :     1.412529 a.u.    38.437 eV
 318( 0) :     1.415122 a.u.    38.507 eV
 319( 0) :     1.421143 a.u.    38.671 eV
 320( 0) :     1.421572 a.u.    38.683 eV
 321( 0) :     1.424829 a.u.    38.772 eV
 322( 0) :     1.425930 a.u.    38.802 eV
 323( 0) :     1.428116 a.u.    38.861 eV
 324( 0) :     1.433540 a.u.    39.009 eV
 325( 0) :     1.437116 a.u.    39.106 eV
 326( 0) :     1.439864 a.u.    39.181 eV
 327( 0) :     1.444043 a.u.    39.294 eV
 328( 0) :     1.447295 a.u.    39.383 eV
 329( 0) :     1.448385 a.u.    39.413 eV
 330( 0) :     1.455797 a.u.    39.614 eV
 331( 0) :     1.459413 a.u.    39.713 eV
 332( 0) :     1.460394 a.u.    39.739 eV
 333( 0) :     1.462883 a.u.    39.807 eV
 334( 0) :     1.466220 a.u.    39.898 eV
 335( 0) :     1.473695 a.u.    40.101 eV
 336( 0) :     1.474460 a.u.    40.122 eV
 337( 0) :     1.474926 a.u.    40.135 eV
 338( 0) :     1.475728 a.u.    40.157 eV
 339( 0) :     1.480927 a.u.    40.298 eV
 340( 0) :     1.483055 a.u.    40.356 eV
 341( 0) :     1.483793 a.u.    40.376 eV
 342( 0) :     1.485819 a.u.    40.431 eV
 343( 0) :     1.488523 a.u.    40.505 eV
 344( 0) :     1.490106 a.u.    40.548 eV
 345( 0) :     1.493946 a.u.    40.652 eV
 346( 0) :     1.494654 a.u.    40.672 eV
 347( 0) :     1.496975 a.u.    40.735 eV
 348( 0) :     1.499365 a.u.    40.800 eV
 349( 0) :     1.500005 a.u.    40.817 eV
 350( 0) :     1.500977 a.u.    40.844 eV
 351( 0) :     1.501716 a.u.    40.864 eV
 352( 0) :     1.502444 a.u.    40.884 eV
 353( 0) :     1.507561 a.u.    41.023 eV
 354( 0) :     1.507733 a.u.    41.028 eV
 355( 0) :     1.510214 a.u.    41.095 eV
 356( 0) :     1.511245 a.u.    41.123 eV
 357( 0) :     1.513227 a.u.    41.177 eV
 358( 0) :     1.515317 a.u.    41.234 eV
 359( 0) :     1.519430 a.u.    41.346 eV
 360( 0) :     1.520299 a.u.    41.369 eV
 361( 0) :     1.521327 a.u.    41.397 eV
 362( 0) :     1.523190 a.u.    41.448 eV
 363( 0) :     1.525320 a.u.    41.506 eV
 364( 0) :     1.525752 a.u.    41.518 eV
 365( 0) :     1.526568 a.u.    41.540 eV
 366( 0) :     1.527785 a.u.    41.573 eV
 367( 0) :     1.529060 a.u.    41.608 eV
 368( 0) :     1.532320 a.u.    41.697 eV
 369( 0) :     1.534032 a.u.    41.743 eV
 370( 0) :     1.534744 a.u.    41.763 eV
 371( 0) :     1.537300 a.u.    41.832 eV
 372( 0) :     1.539664 a.u.    41.896 eV
 373( 0) :     1.543106 a.u.    41.990 eV
 374( 0) :     1.545119 a.u.    42.045 eV
 375( 0) :     1.546082 a.u.    42.071 eV
 376( 0) :     1.546503 a.u.    42.082 eV
 377( 0) :     1.551417 a.u.    42.216 eV
 378( 0) :     1.551896 a.u.    42.229 eV
 379( 0) :     1.555174 a.u.    42.318 eV
 380( 0) :     1.555767 a.u.    42.335 eV
 381( 0) :     1.557882 a.u.    42.392 eV
 382( 0) :     1.561506 a.u.    42.491 eV
 383( 0) :     1.566643 a.u.    42.631 eV
 384( 0) :     1.568306 a.u.    42.676 eV
 385( 0) :     1.569850 a.u.    42.718 eV
 386( 0) :     1.570974 a.u.    42.748 eV
 387( 0) :     1.573141 a.u.    42.807 eV
 388( 0) :     1.574801 a.u.    42.853 eV
 389( 0) :     1.577783 a.u.    42.934 eV
 390( 0) :     1.578883 a.u.    42.964 eV
 391( 0) :     1.586771 a.u.    43.178 eV
 392( 0) :     1.589812 a.u.    43.261 eV
 393( 0) :     1.591856 a.u.    43.317 eV
 394( 0) :     1.595545 a.u.    43.417 eV
 395( 0) :     1.600887 a.u.    43.562 eV
 396( 0) :     1.605077 a.u.    43.676 eV
 397( 0) :     1.606522 a.u.    43.716 eV
 398( 0) :     1.608494 a.u.    43.769 eV
 399( 0) :     1.613173 a.u.    43.897 eV
 400( 0) :     1.617759 a.u.    44.021 eV
 401( 0) :     1.620001 a.u.    44.082 eV
 402( 0) :     1.626179 a.u.    44.251 eV
 403( 0) :     1.627649 a.u.    44.291 eV
 404( 0) :     1.630655 a.u.    44.372 eV
 405( 0) :     1.633064 a.u.    44.438 eV
 406( 0) :     1.637844 a.u.    44.568 eV
 407( 0) :     1.642194 a.u.    44.686 eV
 408( 0) :     1.645723 a.u.    44.782 eV
 409( 0) :     1.651153 a.u.    44.930 eV
 410( 0) :     1.661920 a.u.    45.223 eV
 411( 0) :     1.670196 a.u.    45.448 eV
 412( 0) :     1.677547 a.u.    45.648 eV
 413( 0) :     1.679077 a.u.    45.690 eV
 414( 0) :     1.696863 a.u.    46.174 eV
 415( 0) :     1.709993 a.u.    46.531 eV
 416( 0) :     1.717100 a.u.    46.725 eV
 417( 0) :     1.722938 a.u.    46.884 eV
 418( 0) :     1.739530 a.u.    47.335 eV
 419( 0) :     1.742007 a.u.    47.402 eV
 420( 0) :     1.745072 a.u.    47.486 eV
 421( 0) :     1.760232 a.u.    47.898 eV
 422( 0) :     1.766716 a.u.    48.075 eV
 423( 0) :     1.769457 a.u.    48.149 eV
 424( 0) :     1.781896 a.u.    48.488 eV
 425( 0) :     1.787219 a.u.    48.633 eV
 426( 0) :     1.789379 a.u.    48.691 eV
 427( 0) :     1.801292 a.u.    49.016 eV
 428( 0) :     1.816775 a.u.    49.437 eV
 429( 0) :     1.820731 a.u.    49.545 eV
 430( 0) :     1.835710 a.u.    49.952 eV
 431( 0) :     1.843671 a.u.    50.169 eV
 432( 0) :     1.879429 a.u.    51.142 eV
 433( 0) :     1.884076 a.u.    51.268 eV
 434( 0) :     1.936078 a.u.    52.683 eV
 435( 0) :     1.937368 a.u.    52.718 eV
 436( 0) :     1.979117 a.u.    53.855 eV
 437( 0) :     2.020009 a.u.    54.967 eV
 438( 0) :     2.159399 a.u.    58.760 eV
 439( 0) :     2.201439 a.u.    59.904 eV
 440( 0) :     2.234075 a.u.    60.792 eV
 441( 0) :     2.237353 a.u.    60.881 eV
 442( 0) :     2.292846 a.u.    62.392 eV
 443( 0) :     2.340608 a.u.    63.691 eV
 444( 0) :     2.360003 a.u.    64.219 eV
 445( 0) :     2.370626 a.u.    64.508 eV
 446( 0) :     2.377776 a.u.    64.703 eV
 447( 0) :     2.400213 a.u.    65.313 eV
 448( 0) :     2.407717 a.u.    65.517 eV
 449( 0) :     2.437197 a.u.    66.319 eV
 450( 0) :     2.444445 a.u.    66.517 eV
 451( 0) :     2.481549 a.u.    67.526 eV
 452( 0) :     2.498641 a.u.    67.991 eV
 453( 0) :     2.516477 a.u.    68.477 eV
 454( 0) :     2.586521 a.u.    70.383 eV
 455( 0) :     2.597414 a.u.    70.679 eV
 456( 0) :     2.605877 a.u.    70.910 eV
 457( 0) :     2.827794 a.u.    76.948 eV
 458( 0) :     2.839054 a.u.    77.255 eV
 459( 0) :     2.850410 a.u.    77.564 eV
 460( 0) :     2.851539 a.u.    77.594 eV
 461( 0) :     2.864647 a.u.    77.951 eV
 462( 0) :     2.893379 a.u.    78.733 eV
 463( 0) :     2.899189 a.u.    78.891 eV
 464( 0) :     2.918705 a.u.    79.422 eV
 465( 0) :    23.897934 a.u.   650.296 eV
 466( 0) :    23.972634 a.u.   652.329 eV
 467( 0) :    24.148887 a.u.   657.125 eV
 468( 0) :    24.302505 a.u.   661.305 eV
 469( 0) :    24.533674 a.u.   667.595 eV
 470( 0) :    24.637260 a.u.   670.414 eV
 471( 0) :    24.719055 a.u.   672.640 eV
 472( 0) :    24.793010 a.u.   674.652 eV
 473( 0) :    24.952636 a.u.   678.996 eV
 474( 0) :    25.161069 a.u.   684.667 eV
 475( 0) :    25.292389 a.u.   688.241 eV
 476( 0) :    25.312527 a.u.   688.789 eV
 477( 0) :    25.555070 a.u.   695.389 eV
 478( 0) :    25.562047 a.u.   695.579 eV
 479( 0) :    25.798105 a.u.   702.002 eV
 480( 0) :    25.839392 a.u.   703.126 eV
 481( 0) :    25.961407 a.u.   706.446 eV
 482( 0) :    26.169121 a.u.   712.098 eV
 483( 0) :    26.286850 a.u.   715.302 eV
 484( 0) :    26.434409 a.u.   719.317 eV
 485( 0) :    26.642360 a.u.   724.975 eV
 486( 0) :    26.652396 a.u.   725.249 eV
 487( 0) :    26.832857 a.u.   730.159 eV
 488( 0) :    26.927017 a.u.   732.721 eV
 489( 0) :    27.058484 a.u.   736.299 eV
 490( 0) :    27.131152 a.u.   738.276 eV
 491( 0) :    27.281642 a.u.   742.371 eV
 492( 0) :    27.519838 a.u.   748.853 eV
 493( 0) :    27.759287 a.u.   755.369 eV
 494( 0) :    27.949758 a.u.   760.552 eV
 495( 0) :    28.061315 a.u.   763.587 eV
 496( 0) :    28.673554 a.u.   780.247 eV
 497( 0) :    28.794819 a.u.   783.547 eV
 498( 0) :    28.893973 a.u.   786.245 eV
 499( 0) :    29.081626 a.u.   791.351 eV
 500( 0) :    30.783711 a.u.   837.667 eV
 501( 0) :    43.894785 a.u.  1194.438 eV
 502( 0) :    43.972502 a.u.  1196.553 eV
 503( 0) :    43.999779 a.u.  1197.295 eV
 504( 0) :    44.020077 a.u.  1197.847 eV
 505( 0) :    44.074764 a.u.  1199.335 eV
 506( 0) :    44.099218 a.u.  1200.001 eV
 507( 0) :    44.105200 a.u.  1200.164 eV
 508( 0) :    44.124872 a.u.  1200.699 eV
 509( 0) :    44.135733 a.u.  1200.994 eV
 510( 0) :    44.142257 a.u.  1201.172 eV
 511( 0) :    44.183325 a.u.  1202.289 eV
 512( 0) :    44.265389 a.u.  1204.522 eV
 513( 0) :   205.089068 a.u.  5580.757 eV
 514( 0) :   205.121330 a.u.  5581.635 eV
 515( 0) :   205.132316 a.u.  5581.934 eV
 516( 0) :   205.140226 a.u.  5582.149 eV
 517( 0) :   205.167051 a.u.  5582.879 eV
 518( 0) :   205.174552 a.u.  5583.083 eV
 519( 0) :   205.178035 a.u.  5583.178 eV
 520( 0) :   205.184648 a.u.  5583.358 eV
 521( 0) :   205.188134 a.u.  5583.453 eV
 522( 0) :   205.190263 a.u.  5583.511 eV
 523( 0) :   205.207998 a.u.  5583.994 eV
 524( 0) :   205.230884 a.u.  5584.616 eV
-------
TIMINGS
-------

Total SCF time: 0 days 0 hours 5 min 37 sec 

Total time                  ....     337.548 sec
Sum of individual times     ....     325.901 sec  ( 96.5%)

Fock matrix formation       ....     319.983 sec  ( 94.8%)
  Split-RI-J                ....      90.297 sec  ( 28.2% of F)
  XC integration            ....     207.545 sec  ( 64.9% of F)
    Basis function eval.    ....      26.463 sec  ( 12.8% of XC)
    Density eval.           ....      80.264 sec  ( 38.7% of XC)
    XC-Functional eval.     ....       5.518 sec  (  2.7% of XC)
    XC-Potential eval.      ....      62.833 sec  ( 30.3% of XC)
Diagonalization             ....       1.878 sec  (  0.6%)
Density matrix formation    ....       0.400 sec  (  0.1%)
Population analysis         ....       0.589 sec  (  0.2%)
Initial guess               ....       0.148 sec  (  0.0%)
Orbital Transformation      ....       0.466 sec  (  0.1%)
Orbital Orthonormalization  ....       0.124 sec  (  0.0%)
DIIS solution               ....       0.000 sec  (  0.0%)
Grid generation             ....       2.433 sec  (  0.7%)

Maximum memory used throughout the entire SCF-calculation: 484.0 MB

-------------------------   --------------------
FINAL SINGLE POINT ENERGY     -2674.149620890023
-------------------------   --------------------

                                *** OPTIMIZATION RUN DONE ***

                            ***************************************
                            *     ORCA property calculations      *
                            ***************************************

                                    ---------------------
                                    Active property flags
                                    ---------------------
   (+) Dipole Moment


------------------------------------------------------------------------------
                       ORCA ELECTRIC PROPERTIES CALCULATION
------------------------------------------------------------------------------

Dipole Moment Calculation                       ... on
Quadrupole Moment Calculation                   ... off
Polarizability Calculation                      ... off
GBWName                                         ... pbe.gbw
Electron density                                ... pbe.scfp
The origin for moment calculation is the CENTER OF MASS  = (14.395761, 15.755095 15.394163)

-------------
DIPOLE MOMENT
-------------
                                X             Y             Z
Electronic contribution:      4.10497      20.07746     -10.16090
Nuclear contribution   :     -4.13038     -20.19841      10.22261
                        -----------------------------------------
Total Dipole Moment    :     -0.02541      -0.12095       0.06171
                        -----------------------------------------
Magnitude (a.u.)       :      0.13814
Magnitude (Debye)      :      0.35113



--------------------
Rotational spectrum 
--------------------
 
Rotational constants in cm-1:     0.001721     0.001155     0.000992 
Rotational constants in MHz :    51.581608    34.640620    29.725386 

 Dipole components along the rotational axes: 
x,y,z [a.u.] :    -0.138139     0.000161     0.000686 
x,y,z [Debye]:    -0.351122     0.000409     0.001745 

 

Timings for individual modules:

Sum of individual times         ...    36258.367 sec (= 604.306 min)
GTO integral calculation        ...      927.894 sec (=  15.465 min)   2.6 %
SCF iterations                  ...    29529.944 sec (= 492.166 min)  81.4 %
SCF Gradient evaluation         ...     5713.888 sec (=  95.231 min)  15.8 %
Geometry relaxation             ...       86.641 sec (=   1.444 min)   0.2 %
                             ****ORCA TERMINATED NORMALLY****
TOTAL RUN TIME: 0 days 10 hours 5 minutes 56 seconds 162 msec
