
                                 *****************
                                 * O   R   C   A *
                                 *****************

                                            #,                                       
                                            ###                                      
                                            ####                                     
                                            #####                                    
                                            ######                                   
                                           ########,                                 
                                     ,,################,,,,,                         
                               ,,#################################,,                 
                          ,,##########################################,,             
                       ,#########################################, ''#####,          
                    ,#############################################,,   '####,        
                  ,##################################################,,,,####,       
                ,###########''''           ''''###############################       
              ,#####''   ,,,,##########,,,,          '''####'''          '####       
            ,##' ,,,,###########################,,,                        '##       
           ' ,,###''''                  '''############,,,                           
         ,,##''                                '''############,,,,        ,,,,,,###''
      ,#''                                            '''#######################'''  
     '                                                          ''''####''''         
             ,#######,   #######,   ,#######,      ##                                
            ,#'     '#,  ##    ##  ,#'     '#,    #''#        ######   ,####,        
            ##       ##  ##   ,#'  ##            #'  '#       #        #'  '#        
            ##       ##  #######   ##           ,######,      #####,   #    #        
            '#,     ,#'  ##    ##  '#,     ,#' ,#      #,         ##   #,  ,#        
             '#######'   ##     ##  '#######'  #'      '#     #####' # '####'        



                  #######################################################
                  #                        -***-                        #
                  #          Department of theory and spectroscopy      #
                  #    Directorship and core code : Frank Neese         #
                  #        Max Planck Institute fuer Kohlenforschung    #
                  #                Kaiser Wilhelm Platz 1               #
                  #                 D-45470 Muelheim/Ruhr               #
                  #                      Germany                        #
                  #                                                     #
                  #                  All rights reserved                #
                  #                        -***-                        #
                  #######################################################


                         Program Version 5.0.3 -  RELEASE  -


 With contributions from (in alphabetic order):
   Daniel Aravena         : Magnetic Suceptibility
   Michael Atanasov       : Ab Initio Ligand Field Theory (pilot matlab implementation)
   Alexander A. Auer      : GIAO ZORA, VPT2 properties, NMR spectrum
   Ute Becker             : Parallelization
   Giovanni Bistoni       : ED, misc. LED, open-shell LED, HFLD
   Martin Brehm           : Molecular dynamics
   Dmytro Bykov           : SCF Hessian
   Vijay G. Chilkuri      : MRCI spin determinant printing, contributions to CSF-ICE
   Dipayan Datta          : RHF DLPNO-CCSD density
   Achintya Kumar Dutta   : EOM-CC, STEOM-CC
   Dmitry Ganyushin       : Spin-Orbit,Spin-Spin,Magnetic field MRCI
   Miquel Garcia          : C-PCM and meta-GGA Hessian, CC/C-PCM, Gaussian charge scheme
   Yang Guo               : DLPNO-NEVPT2, F12-NEVPT2, CIM, IAO-localization
   Andreas Hansen         : Spin unrestricted coupled pair/coupled cluster methods
   Benjamin Helmich-Paris : MC-RPA, TRAH-SCF, COSX integrals
   Lee Huntington         : MR-EOM, pCC
   Robert Izsak           : Overlap fitted RIJCOSX, COSX-SCS-MP3, EOM
   Marcus Kettner         : VPT2
   Christian Kollmar      : KDIIS, OOCD, Brueckner-CCSD(T), CCSD density, CASPT2, CASPT2-K
   Simone Kossmann        : Meta GGA functionals, TD-DFT gradient, OOMP2, MP2 Hessian
   Martin Krupicka        : Initial AUTO-CI
   Lucas Lang             : DCDCAS
   Marvin Lechner         : AUTO-CI (C++ implementation), FIC-MRCC
   Dagmar Lenk            : GEPOL surface, SMD
   Dimitrios Liakos       : Extrapolation schemes; Compound Job, initial MDCI parallelization
   Dimitrios Manganas     : Further ROCIS development; embedding schemes
   Dimitrios Pantazis     : SARC Basis sets
   Anastasios Papadopoulos: AUTO-CI, single reference methods and gradients
   Taras Petrenko         : DFT Hessian,TD-DFT gradient, ASA, ECA, R-Raman, ABS, FL, XAS/XES, NRVS
   Peter Pinski           : DLPNO-MP2, DLPNO-MP2 Gradient
   Christoph Reimann      : Effective Core Potentials
   Marius Retegan         : Local ZFS, SOC
   Christoph Riplinger    : Optimizer, TS searches, QM/MM, DLPNO-CCSD(T), (RO)-DLPNO pert. Triples
   Tobias Risthaus        : Range-separated hybrids, TD-DFT gradient, RPA, STAB
   Michael Roemelt        : Original ROCIS implementation
   Masaaki Saitow         : Open-shell DLPNO-CCSD energy and density
   Barbara Sandhoefer     : DKH picture change effects
   Avijit Sen             : IP-ROCIS
   Kantharuban Sivalingam : CASSCF convergence, NEVPT2, FIC-MRCI
   Bernardo de Souza      : ESD, SOC TD-DFT
   Georgi Stoychev        : AutoAux, RI-MP2 NMR, DLPNO-MP2 response
   Willem Van den Heuvel  : Paramagnetic NMR
   Boris Wezisla          : Elementary symmetry handling
   Frank Wennmohs         : Technical directorship


 We gratefully acknowledge several colleagues who have allowed us to
 interface, adapt or use parts of their codes:
   Stefan Grimme, W. Hujo, H. Kruse, P. Pracht,  : VdW corrections, initial TS optimization,
                  C. Bannwarth, S. Ehlert          DFT functionals, gCP, sTDA/sTD-DF
   Ed Valeev, F. Pavosevic, A. Kumar             : LibInt (2-el integral package), F12 methods
   Garnet Chan, S. Sharma, J. Yang, R. Olivares  : DMRG
   Ulf Ekstrom                                   : XCFun DFT Library
   Mihaly Kallay                                 : mrcc  (arbitrary order and MRCC methods)
   Jiri Pittner, Ondrej Demel                    : Mk-CCSD
   Frank Weinhold                                : gennbo (NPA and NBO analysis)
   Christopher J. Cramer and Donald G. Truhlar   : smd solvation model
   Lars Goerigk                                  : TD-DFT with DH, B97 family of functionals
   V. Asgeirsson, H. Jonsson                     : NEB implementation
   FAccTs GmbH                                   : IRC, NEB, NEB-TS, DLPNO-Multilevel, CI-OPT
                                                   MM, QMMM, 2- and 3-layer-ONIOM, Crystal-QMMM,
                                                   LR-CPCM, SF, NACMEs, symmetry and pop. for TD-DFT,
                                                   nearIR, NL-DFT gradient (VV10), updates on ESD,
                                                   ML-optimized integration grids
   S Lehtola, MJT Oliveira, MAL Marques          : LibXC Library
   Liviu Ungur et al                             : ANISO software


 Your calculation uses the libint2 library for the computation of 2-el integrals
 For citations please refer to: http://libint.valeyev.net

 Your ORCA version has been built with support for libXC version: 5.1.0
 For citations please refer to: https://tddft.org/programs/libxc/

 This ORCA versions uses:
   CBLAS   interface :  Fast vector & matrix operations
   LAPACKE interface :  Fast linear algebra routines
   SCALAPACK package :  Parallel linear algebra routines
   Shared memory     :  Shared parallel matrices
   BLAS/LAPACK       :  OpenBLAS 0.3.15  USE64BITINT DYNAMIC_ARCH NO_AFFINITY Haswell SINGLE_THREADED
        Core in use  :  Haswell
   Copyright (c) 2011-2014, The OpenBLAS Project




***************************************
The coordinates will be read from file: pbe.xyz
***************************************


================================================================================

cite the ECPs for Au [Def2-ECP] as follows:
Ce-Yb(ecp-28): M. Dolg, H. Stoll, H.Preuss, J. Chem. Phys., 1989, 90, 1730-1734.
Y-Cd(ecp-28), Hf-Hg(ecp-46): D. Andrae,U. Haeussermann, M. Dolg, H. Stoll, H. Preuss, Theor. Chim. Acta, 1990, 77, 123-141.
In-Sb(ecp-28), Tl-Bi(ecp-46): B. Metz, H. Stoll, M. Dolg, J. Chem. Phys., 2000, 113, 2563-2569.
Te-Xe(ecp-28), Po-Rn(ecp-46): K. A. Peterson, D. Figgen, E. Goll, H. Stoll, M. Dolg, J. Chem. Phys., 2003, 119, 11113-11123.
Rb(ecp-28), Cs(ecp-46): T. Leininger, A. Nicklass, W. Kuechle, H. Stoll, M. Dolg, A. Bergner, Chem. Phys. Lett., 1996, 255, 274-280.
Sr(ecp-28), Ba(ecp-46): M. Kaupp, P. V. Schleyer, H. Stoll and H. Preuss, J. Chem. Phys., 1991, 94, 1360-1366.
La(ecp-46): M. Dolg, H. Stoll, A. Savin, H. Preuss, Theor. Chim. Acta, 1989, 75, 173-194.
Lu(ecp-28): X. Cao, M. Dolg, J. Chem. Phys., 2001, 115, 7348-7355.

ECP parameters for Au [Def2-ECP] have been obtained from:
TURBOMOLE (7.0.2)

----- Orbital basis set information -----
Your calculation utilizes the basis: def2-TZVP
   F. Weigend and R. Ahlrichs, Phys. Chem. Chem. Phys. 7, 3297 (2005).

----- AuxJ basis set information -----
Your calculation utilizes the auxiliary basis: def2/J
   F. Weigend, Phys. Chem. Chem. Phys. 8, 1057 (2006).

================================================================================
                                        WARNINGS
                       Please study these warnings very carefully!
================================================================================


WARNING: your system is open-shell and RHF/RKS was chosen
  ===> : WILL SWITCH to UHF/UKS


INFO   : the flag for use of the SHARK integral package has been found!



***************************************
The coordinates will be read from file: pbe.xyz
***************************************


================================================================================

cite the ECPs for Au [Def2-ECP] as follows:
Ce-Yb(ecp-28): M. Dolg, H. Stoll, H.Preuss, J. Chem. Phys., 1989, 90, 1730-1734.
Y-Cd(ecp-28), Hf-Hg(ecp-46): D. Andrae,U. Haeussermann, M. Dolg, H. Stoll, H. Preuss, Theor. Chim. Acta, 1990, 77, 123-141.
In-Sb(ecp-28), Tl-Bi(ecp-46): B. Metz, H. Stoll, M. Dolg, J. Chem. Phys., 2000, 113, 2563-2569.
Te-Xe(ecp-28), Po-Rn(ecp-46): K. A. Peterson, D. Figgen, E. Goll, H. Stoll, M. Dolg, J. Chem. Phys., 2003, 119, 11113-11123.
Rb(ecp-28), Cs(ecp-46): T. Leininger, A. Nicklass, W. Kuechle, H. Stoll, M. Dolg, A. Bergner, Chem. Phys. Lett., 1996, 255, 274-280.
Sr(ecp-28), Ba(ecp-46): M. Kaupp, P. V. Schleyer, H. Stoll and H. Preuss, J. Chem. Phys., 1991, 94, 1360-1366.
La(ecp-46): M. Dolg, H. Stoll, A. Savin, H. Preuss, Theor. Chim. Acta, 1989, 75, 173-194.
Lu(ecp-28): X. Cao, M. Dolg, J. Chem. Phys., 2001, 115, 7348-7355.

ECP parameters for Au [Def2-ECP] have been obtained from:
TURBOMOLE (7.0.2)

----- Orbital basis set information -----
Your calculation utilizes the basis: def2-TZVP
   F. Weigend and R. Ahlrichs, Phys. Chem. Chem. Phys. 7, 3297 (2005).

----- AuxJ basis set information -----
Your calculation utilizes the auxiliary basis: def2/J
   F. Weigend, Phys. Chem. Chem. Phys. 8, 1057 (2006).

================================================================================
                                        WARNINGS
                       Please study these warnings very carefully!
================================================================================


INFO   : the flag for use of the SHARK integral package has been found!

================================================================================
                                       INPUT FILE
================================================================================
NAME = pbeSP.inp
|  1> !PBE def2-TZVP VERYSLOWCONV
|  2> 
|  3> %scf
|  4>   AutoTRAHIter 200
|  5>   maxiter 400
|  6> end
|  7> 
|  8> 
|  9> %pal nprocs 6 end 
| 10> 
| 11> *xyzfile 0 5 pbe.xyz
| 12> 
| 13> $new_job
| 14> 
| 15> !PBE def2-TZVP VERYSLOWCONV
| 16> 
| 17> %scf
| 18>   AutoTRAHIter 200
| 19>   maxiter 400
| 20> end
| 21>  
| 22> 
| 23> %pal nprocs 6 end 
| 24> 
| 25> *xyzfile 0 3 pbe.xyz
| 26> 
| 27> 
| 28> 
| 29> 
| 30> 
| 31>                          ****END OF INPUT****
================================================================================


                 $$$$$$$$$$$$$$$$$$$$$$$$$$$$$$$$$$$$$$$$$$$$$$ 
                 $ THERE ARE  2 JOBS TO BE PROCESSED THIS RUN $
                 $$$$$$$$$$$$$$$$$$$$$$$$$$$$$$$$$$$$$$$$$$$$$$ 




                 $$$$$$$$$$$$$$$$  JOB NUMBER  1 $$$$$$$$$$$$$$


                       ****************************
                       * Single Point Calculation *
                       ****************************

---------------------------------
CARTESIAN COORDINATES (ANGSTROEM)
---------------------------------
  Au     9.333145   10.793707    6.673820
  Au     7.760018    5.334774    7.079859
  Au     9.353804    7.916528    7.103730
  Au     5.426843    5.984503    8.523179
  Au     7.907753    6.995478    9.313570
  Au     8.643207    9.630636    9.138655
  Au     6.714626   11.020732    7.653510
  Au     4.559524    9.594267    6.703135
  Au     5.758053    8.786962    9.081485
  Au     7.560189    8.097144    3.205483
  Au     7.126545   10.003007    5.144445
  Au     9.815626    9.050737    4.585557
  Au     5.035708    8.384437    4.234636
  Au     9.021185    6.374820    4.864934
  Au     6.242590    5.919735    4.821859
  Au     3.987018    6.862124    6.329075
  Fe     6.533906    7.734321    6.756053

----------------------------
CARTESIAN COORDINATES (A.U.)
----------------------------
  NO LB      ZA    FRAG     MASS         X           Y           Z
   0 Au   19.0000*   0   196.966   17.637089   20.397149   12.611693
   1 Au   19.0000*   0   196.966   14.664308   10.081263   13.378994
   2 Au   19.0000*   0   196.966   17.676128   14.960069   13.424105
   3 Au   19.0000*   0   196.966   10.255247   11.309073   16.106474
   4 Au   19.0000*   0   196.966   14.943488   13.219538   17.600097
   5 Au   19.0000*   0   196.966   16.333294   18.199264   17.269555
   6 Au   19.0000*   0   196.966   12.688805   20.826164   14.463038
   7 Au   19.0000*   0   196.966    8.616252   18.130537   12.667089
   8 Au   19.0000*   0   196.966   10.881143   16.604952   17.161519
   9 Au   19.0000*   0   196.966   14.286687   15.301384    6.057485
  10 Au   19.0000*   0   196.966   13.467218   18.902944    9.721593
  11 Au   19.0000*   0   196.966   18.548845   17.103415    8.665448
  12 Au   19.0000*   0   196.966    9.516108   15.844289    8.002302
  13 Au   19.0000*   0   196.966   17.047568   12.046664    9.193392
  14 Au   19.0000*   0   196.966   11.796785   11.186679    9.111993
  15 Au   19.0000*   0   196.966    7.534373   12.967535   11.960219
  16 Fe   26.0000    0    55.850   12.347293   14.615749   12.767091
* core charge reduced due to ECP

--------------------------------
INTERNAL COORDINATES (ANGSTROEM)
--------------------------------
 Au     0   0   0     0.000000000000     0.00000000     0.00000000
 Au     1   0   0     5.695571715729     0.00000000     0.00000000
 Au     1   2   0     2.909193782041    16.96598520     0.00000000
 Au     2   1   3     2.819401749962    92.53269212   133.42889979
 Au     2   1   3     2.787333785415    58.09191967    81.85195792
 Au     5   2   1     2.741449165045   122.39757039     0.49569551
 Au     6   5   2     2.803113151946   109.02094800    64.77373549
 Au     7   6   5     2.753630594160   117.67331555     0.22436675
 Au     8   7   6     2.782940979192    61.20072170    30.42166725
 Au     3   1   2     4.294881553003    79.70678635    50.85611503
 Au     7   6   5     2.738767530087   101.39803120   290.38402891
 Au     1   2   3     2.762529910607    59.82855271    82.52794717
 Au    10   3   1     2.741295321078    92.76497437   272.68804254
 Au     3   1   2     2.738559586459   115.79145679    67.93966258
 Au     2   1   3     2.782683574972    83.75887146   218.28050330
 Au     4   2   1     2.767201054018    95.61075339    77.15061821
 Fe     9   8   7     2.667888725218    59.65439810   267.40481223

---------------------------
INTERNAL COORDINATES (A.U.)
---------------------------
 Au     0   0   0     0.000000000000     0.00000000     0.00000000
 Au     1   0   0    10.763070718836     0.00000000     0.00000000
 Au     1   2   0     5.497579518565    16.96598520     0.00000000
 Au     2   1   3     5.327897168926    92.53269212   133.42889979
 Au     2   1   3     5.267297498260    58.09191967    81.85195792
 Au     5   2   1     5.180588132002   122.39757039     0.49569551
 Au     6   5   2     5.297116179571   109.02094800    64.77373549
 Au     7   6   5     5.203607696950   117.67331555     0.22436675
 Au     8   7   6     5.258996297540    61.20072170    30.42166725
 Au     3   1   2     8.116149912806    79.70678635    50.85611503
 Au     7   6   5     5.175520576340   101.39803120   290.38402891
 Au     1   2   3     5.220424967812    59.82855271    82.52794717
 Au    10   3   1     5.180297409037    92.76497437   272.68804254
 Au     3   1   2     5.175127619832   115.79145679    67.93966258
 Au     2   1   3     5.258509874058    83.75887146   218.28050330
 Au     4   2   1     5.229252149591    95.61075339    77.15061821
 Fe     9   8   7     5.041579046438    59.65439810   267.40481223

---------------------
BASIS SET INFORMATION
---------------------
There are 2 groups of distinct atoms

 Group   1 Type Au  : 8s7p6d1f contracted to 6s4p3d1f pattern {311111/4111/411/1}
 Group   2 Type Fe  : 17s11p7d1f contracted to 6s4p4d1f pattern {842111/6311/4111/1}

Atom   0Au   basis set group =>   1
Atom   1Au   basis set group =>   1
Atom   2Au   basis set group =>   1
Atom   3Au   basis set group =>   1
Atom   4Au   basis set group =>   1
Atom   5Au   basis set group =>   1
Atom   6Au   basis set group =>   1
Atom   7Au   basis set group =>   1
Atom   8Au   basis set group =>   1
Atom   9Au   basis set group =>   1
Atom  10Au   basis set group =>   1
Atom  11Au   basis set group =>   1
Atom  12Au   basis set group =>   1
Atom  13Au   basis set group =>   1
Atom  14Au   basis set group =>   1
Atom  15Au   basis set group =>   1
Atom  16Fe   basis set group =>   2
---------------------------------
AUXILIARY/J BASIS SET INFORMATION
---------------------------------
There are 2 groups of distinct atoms

 Group   1 Type Au  : 11s5p5d3f3g contracted to 8s5p5d2f3g pattern {41111111/11111/11111/21/111}
 Group   2 Type Fe  : 19s5p5d3f3g contracted to 8s5p5d2f3g pattern {121111111/11111/11111/21/111}

Atom   0Au   basis set group =>   1
Atom   1Au   basis set group =>   1
Atom   2Au   basis set group =>   1
Atom   3Au   basis set group =>   1
Atom   4Au   basis set group =>   1
Atom   5Au   basis set group =>   1
Atom   6Au   basis set group =>   1
Atom   7Au   basis set group =>   1
Atom   8Au   basis set group =>   1
Atom   9Au   basis set group =>   1
Atom  10Au   basis set group =>   1
Atom  11Au   basis set group =>   1
Atom  12Au   basis set group =>   1
Atom  13Au   basis set group =>   1
Atom  14Au   basis set group =>   1
Atom  15Au   basis set group =>   1
Atom  16Fe   basis set group =>   2
-------------------------
ECP PARAMETER INFORMATION
-------------------------

 Group 1, Type Au ECP Def2-ECP (replacing 60 core electrons, lmax=3)

Atom   0Au   ECP group =>   1
Atom   1Au   ECP group =>   1
Atom   2Au   ECP group =>   1
Atom   3Au   ECP group =>   1
Atom   4Au   ECP group =>   1
Atom   5Au   ECP group =>   1
Atom   6Au   ECP group =>   1
Atom   7Au   ECP group =>   1
Atom   8Au   ECP group =>   1
Atom   9Au   ECP group =>   1
Atom  10Au   ECP group =>   1
Atom  11Au   ECP group =>   1
Atom  12Au   ECP group =>   1
Atom  13Au   ECP group =>   1
Atom  14Au   ECP group =>   1
Atom  15Au   ECP group =>   1



           ************************************************************
           *        Program running with 6 parallel MPI-processes     *
           *              working on a common directory               *
           ************************************************************
------------------------------------------------------------------------------
                           ORCA GTO INTEGRAL CALCULATION
                           -- RI-GTO INTEGRALS CHOSEN --
------------------------------------------------------------------------------
------------------------------------------------------------------------------
                   ___                                                        
                  /   \      - P O W E R E D   B Y -                         
                 /     \                                                     
                 |  |  |   _    _      __       _____    __    __             
                 |  |  |  | |  | |    /  \     |  _  \  |  |  /  |          
                  \  \/   | |  | |   /    \    | | | |  |  | /  /          
                 / \  \   | |__| |  /  /\  \   | |_| |  |  |/  /          
                |  |  |   |  __  | /  /__\  \  |    /   |      \           
                |  |  |   | |  | | |   __   |  |    \   |  |\   \          
                \     /   | |  | | |  |  |  |  | |\  \  |  | \   \       
                 \___/    |_|  |_| |__|  |__|  |_| \__\ |__|  \__/        
                                                                              
                      - O R C A' S   B I G   F R I E N D -                    
                                      &                                       
                       - I N T E G R A L  F E E D E R -                       
                                                                              
 v1 FN, 2020, v2 2021                                                         
------------------------------------------------------------------------------


Reading SHARK input file pbeSP.SHARKINP.tmp ... ok
----------------------
SHARK INTEGRAL PACKAGE
----------------------

Number of atoms                             ...     17
Number of basis functions                   ...    685
Number of shells                            ...    239
Maximum angular momentum                    ...      3
Integral batch strategy                     ... SHARK/LIBINT Hybrid
RI-J (if used) integral strategy            ... SPLIT-RIJ (Revised 2003 algorithm where possible)
Printlevel                                  ...      1
Contraction scheme used                     ... SEGMENTED contraction
Coulomb Range Separation                    ... NOT USED
Exchange Range Separation                   ... NOT USED
Finite Nucleus Model                        ... NOT USED
Auxiliary Coulomb fitting basis             ... AVAILABLE
   # of basis functions in Aux-J            ...   1513
   # of shells in Aux-J                     ...    391
   Maximum angular momentum in Aux-J        ...      4
Auxiliary J/K fitting basis                 ... NOT available
Auxiliary Correlation fitting basis         ... NOT available
Auxiliary 'external' fitting basis          ... NOT available
Integral threshold                          ...     1.000000e-10
Primitive cut-off                           ...     1.000000e-11
Primitive pair pre-selection threshold      ...     1.000000e-11

Calculating pre-screening integrals         ... done (  0.1 sec) Dimension = 239
Organizing shell pair data                  ... done (  0.4 sec)
Shell pair information
Total number of shell pairs                 ...     28680
Shell pairs after pre-screening             ...     22274
Total number of primitive shell pairs       ...     75765
Primitive shell pairs kept                  ...     42130
          la=0 lb=0:   3522 shell pairs
          la=1 lb=0:   5064 shell pairs
          la=1 lb=1:   1925 shell pairs
          la=2 lb=0:   4410 shell pairs
          la=2 lb=1:   3133 shell pairs
          la=2 lb=2:   1295 shell pairs
          la=3 lb=0:   1146 shell pairs
          la=3 lb=1:    876 shell pairs
          la=3 lb=2:    782 shell pairs
          la=3 lb=3:    121 shell pairs

Calculating one electron integrals          ... done (  0.0 sec)
Calculating ECP integrals                   ... done ( 11.7 sec)
Calculating RI/J V-Matrix + Cholesky decomp.... done (  0.1 sec)
Calculating Nuclear repulsion               ... done (  0.0 sec) ENN=   7116.156370953096 Eh

SHARK setup successfully completed in  12.6 seconds

Maximum memory used throughout the entire GTOINT-calculation: 41.0 MB


           ************************************************************
           *        Program running with 6 parallel MPI-processes     *
           *              working on a common directory               *
           ************************************************************
-------------------------------------------------------------------------------
                                 ORCA SCF
-------------------------------------------------------------------------------

------------
SCF SETTINGS
------------
Hamiltonian:
 Density Functional     Method          .... DFT(GTOs)
 Exchange Functional    Exchange        .... PBE
   PBE kappa parameter   XKappa         ....  0.804000
   PBE mue parameter    XMuePBE         ....  0.219520
 Correlation Functional Correlation     .... PBE
   PBE beta parameter  CBetaPBE         ....  0.066725
 LDA part of GGA corr.  LDAOpt          .... PW91-LDA
 Gradients option       PostSCFGGA      .... off
   Density functional embedding theory  .... OFF
   NL short-range parameter             ....  6.400000
 RI-approximation to the Coulomb term is turned on
   Number of AuxJ basis functions       .... 1513


General Settings:
 Integral files         IntName         .... pbeSP
 Hartree-Fock type      HFTyp           .... UHF
 Total Charge           Charge          ....    0
 Multiplicity           Mult            ....    5
 Number of Electrons    NEL             ....  330
 Basis Dimension        Dim             ....  685
 Nuclear Repulsion      ENuc            ....   7116.1563709531 Eh

Convergence Acceleration:
 DIIS                   CNVDIIS         .... on
   Start iteration      DIISMaxIt       ....     0
   Startup error        DIISStart       ....  0.200000
   # of expansion vecs  DIISMaxEq       ....     5
   Bias factor          DIISBfac        ....   1.050
   Max. coefficient     DIISMaxC        ....  10.000
 Trust-Rad. Augm. Hess. CNVTRAH         .... auto
   Auto Start mean grad. ratio tolernc. ....  1.125000
   Auto Start start iteration           ....   200
   Auto Start num. interpolation iter.  ....    10
   Max. Number of Micro iterations      ....    16
   Max. Number of Macro iterations      .... Maxiter - #DIIS iter
   Number of Davidson start vectors     ....     2
   Converg. threshold I  (grad. norm)   ....   5.000e-05
   Converg. threshold II (energy diff.) ....   1.000e-06
   Grad. Scal. Fac. for Micro threshold ....   0.100
   Minimum threshold for Micro iter.    ....   0.010
   NR start threshold (gradient norm)   ....   0.001
   Initial trust radius                 ....   0.400
   Minimum AH scaling param. (alpha)    ....   1.000
   Maximum AH scaling param. (alpha)    .... 1000.000
   Orbital update algorithm             .... Taylor
   White noise on init. David. guess    .... on
   Maximum white noise                  ....   0.010
   Quad. conv. algorithm                .... NR
 SOSCF                  CNVSOSCF        .... off
 Level Shifting         CNVShift        .... on
   Level shift para.    LevelShift      ....    0.2500
   Turn off err/grad.   ShiftErr        ....    0.0000
 Zerner damping         CNVZerner       .... off
 Static damping         CNVDamp         .... on
   Fraction old density DampFac         ....    0.9200
   Max. Damping (<1)    DampMax         ....    0.9800
   Min. Damping (>=0)   DampMin         ....    0.0000
   Turn off err/grad.   DampErr         ....    0.0030
 Fernandez-Rico         CNVRico         .... off

SCF Procedure:
 Maximum # iterations   MaxIter         ....   400
 SCF integral mode      SCFMode         .... Direct
   Integral package                     .... SHARK and LIBINT hybrid scheme
 Reset frequency        DirectResetFreq ....    20
 Integral Threshold     Thresh          ....  1.000e-10 Eh
 Primitive CutOff       TCut            ....  1.000e-11 Eh

Convergence Tolerance:
 Convergence Check Mode ConvCheckMode   .... Total+1el-Energy
 Convergence forced     ConvForced      .... 0
 Energy Change          TolE            ....  1.000e-06 Eh
 1-El. energy change                    ....  1.000e-03 Eh
 DIIS Error             TolErr          ....  1.000e-06


Diagonalization of the overlap matrix:
Smallest eigenvalue                        ... 3.644e-04
Time for diagonalization                   ...    0.062 sec
Threshold for overlap eigenvalues          ... 1.000e-08
Number of eigenvalues below threshold      ... 0
Time for construction of square roots      ...    0.040 sec
Total time needed                          ...    0.104 sec

Time for model grid setup =    0.472 sec

------------------------------
INITIAL GUESS: MODEL POTENTIAL
------------------------------
Loading Hartree-Fock densities                     ... done
  calling /media/Programs/ORCA501/orca pbeSP_atom79.inp > pbeSP_atom79.out in order to generate an atomic fitting density for atom 0 (Au with ECP) on-the-fly... 
    atom 0 (Au), assumed electronic state with S=2: 1s2 2s2 2p6 3s2 3p6 4s2 3d10 4p6 5s2 4d10 5p6 6s1 4f14 5d10           ... done
Calculating cut-offs                               ... done
Initializing the effective Hamiltonian             ... done
Setting up the integral package (SHARK)            ... done
Starting the Coulomb interaction                   ... done (   0.5 sec)
Reading the grid                                   ... done
Mapping shells                                     ... done
Starting the XC term evaluation                    ... done (   0.5 sec)
  promolecular density results
     # of electrons  =   1290.016223444
     EX              =  -5907.293262829
     EC              =    -78.692118461
     EX+EC           =  -5985.985381290
Transforming the Hamiltonian                       ... done (   0.0 sec)
Diagonalizing the Hamiltonian                      ... done (   0.1 sec)
Back transforming the eigenvectors                 ... done (   0.0 sec)
Now organizing SCF variables                       ... done
                      ------------------
                      INITIAL GUESS DONE (   2.1 sec)
                      ------------------
-------------------
DFT GRID GENERATION
-------------------

General Integration Accuracy     IntAcc      ... 4.388
Radial Grid Type                 RadialGrid  ... OptM3 with GC (2021)
Angular Grid (max. ang.)         AngularGrid ... 4 (Lebedev-302)
Angular grid pruning method      GridPruning ... 4 (adaptive)
Weight generation scheme         WeightScheme... Becke
Basis function cutoff            BFCut       ... 1.0000e-10
Integration weight cutoff        WCut        ... 1.0000e-14
Angular grids for H and He will be reduced by one unit
Partially contracted basis set               ... off
Rotationally invariant grid construction     ... off

Total number of grid points                  ...   186739
Total number of batches                      ...     2926
Average number of points per batch           ...       63
Average number of grid points per atom       ...    10985
Time for grid setup =    1.470 sec

--------------
SCF ITERATIONS
--------------
ITER       Energy         Delta-E        Max-DP      RMS-DP      [F,P]     Damp
               ***  Starting incremental Fock matrix formation  ***
  0  -3432.9487045590   0.000000000000 0.13010902  0.00072788  0.5721709 0.9200
  1  -3434.3889415748  -1.440237015755 0.11958895  0.00065213  0.3659988 0.9200
                               ***Turning on DIIS***
  2  -3435.1632025308  -0.774260955987 0.09505754  0.00052171  0.2410034 0.9200
  3  -3435.4999320906  -0.336729559809 0.06432820  0.00043209  0.2208657 0.9200
  4  -3435.6039411272  -0.104009036640 0.04586234  0.00037049  0.2024820 0.9200
  5  -3435.6222855389  -0.018344411659 0.02993896  0.00026256  0.1856193 0.9200
  6  -3435.7322497566  -0.109964217759 0.04092177  0.00022879  0.1702679 0.9200
  7  -3435.8216929220  -0.089443165429 0.03748730  0.00020575  0.1564042 0.9200
  8  -3435.8685928542  -0.046899932176 0.02954644  0.00018739  0.1438567 0.9200
  9  -3435.9301719076  -0.061579053383 0.02663507  0.00021062  0.1322689 0.9200
 10  -3435.9937197373  -0.063547829684 0.01797106  0.00017282  0.1215020 0.9200
 11  -3436.0347752304  -0.041055493139 0.02457134  0.00014991  0.1117426 0.9200
 12  -3436.0890134468  -0.054238216394 0.02753896  0.00015296  0.1026713 0.9200
 13  -3436.1412388328  -0.052225385976 0.02297205  0.00013923  0.0942869 0.9200
 14  -3436.1794504685  -0.038211635670 0.01851115  0.00012828  0.0866750 0.9200
 15  -3436.2205397321  -0.041089263621 0.01424566  0.00012657  0.0796583 0.9200
 16  -3436.2621121676  -0.041572435496 0.01403103  0.00011739  0.0732047 0.9200
 17  -3436.2972709359  -0.035158768300 0.01630435  0.00010750  0.0673318 0.9200
 18  -3436.3310437135  -0.033772777623 0.01656636  0.00010362  0.0618976 0.9200
 19  -3436.3621581513  -0.031114437839 0.01681907  0.00009656  0.0568433 0.9200
               *** Restarting incremental Fock matrix formation ***
                                   *** Resetting DIIS ***
 20  -3436.3902935092  -0.028135357848 0.01366591  0.00009054  0.0522627 0.9200
 21  -3436.4178256355  -0.027532126260 0.01250473  0.00008568  0.0479896 0.9200
 22  -3436.4438260478  -0.026000412324 0.01199219  0.00008017  0.0440806 0.9200
 23  -3436.4676222064  -0.023796158596 0.01402992  0.00007578  0.0405021 0.9200
 24  -3436.4894088056  -0.021786599272 0.01377700  0.00007183  0.0372373 0.9200
 25  -3436.5097485152  -0.020339709530 0.01216345  0.00006804  0.0342530 0.9200
 26  -3436.5288097896  -0.019061274387 0.01130412  0.00006433  0.0314999 0.9200
 27  -3436.5464696562  -0.017659866636 0.01117991  0.00006038  0.0289724 0.9200
 28  -3436.5627015388  -0.016231882549 0.01079063  0.00005656  0.0266387 0.9200
 29  -3436.5776625317  -0.014960992997 0.00994673  0.00005298  0.0244943 0.9200
 30  -3436.5916036985  -0.013941166744 0.00903550  0.00004973  0.0225283 0.9200
 31  -3436.6045606678  -0.012956969268 0.00850591  0.00004644  0.0207200 0.9200
 32  -3436.6165147012  -0.011954033440 0.00803723  0.00004324  0.0190574 0.9200
 33  -3436.6275258635  -0.011011162251 0.00755500  0.00004025  0.0175246 0.9200
 34  -3436.6377051693  -0.010179305872 0.00697932  0.00003751  0.0161153 0.9200
 35  -3436.6471515485  -0.009446379207 0.00648882  0.00003499  0.0148219 0.9200
 36  -3436.6558864767  -0.008734928207 0.00609747  0.00003250  0.0136335 0.9200
 37  -3436.6639378764  -0.008051399614 0.00567409  0.00003015  0.0125386 0.9200
 38  -3436.6713605967  -0.007422720368 0.00526355  0.00002799  0.0115300 0.9200
 39  -3436.6782225813  -0.006861984625 0.00410345  0.00002592  0.0106036 0.9200
               *** Restarting incremental Fock matrix formation ***
                                   *** Resetting DIIS ***
 40  -3436.6845689738  -0.006346392418 0.00317419  0.00002373  0.0097532 0.9200
 41  -3436.6904331087  -0.005864134942 0.00291221  0.00002178  0.0089598 0.9200
 42  -3436.6958351296  -0.005402020910 0.00332161  0.00002016  0.0082316 0.9200
 43  -3436.7008098095  -0.004974679893 0.00351537  0.00001881  0.0075646 0.9200
 44  -3436.7053955650  -0.004585755498 0.00339546  0.00001758  0.0069559 0.9200
 45  -3436.7096286422  -0.004233077232 0.00304650  0.00001643  0.0063990 0.9200
 46  -3436.7135338775  -0.003905235281 0.00291093  0.00001531  0.0058870 0.9200
 47  -3436.7171317979  -0.003597920424 0.00275680  0.00001426  0.0054145 0.9200
 48  -3436.7204453909  -0.003313592976 0.00255294  0.00001325  0.0049785 0.9200
 49  -3436.7235006246  -0.003055233699 0.00231293  0.00001231  0.0045781 0.9200
 50  -3436.7263191309  -0.002818506304 0.00214341  0.00001147  0.0042111 0.9200
 51  -3436.7289163281  -0.002597197187 0.00202968  0.00001066  0.0038739 0.9200
 52  -3436.7313083775  -0.002392049439 0.00188327  0.00000991  0.0035629 0.9200
 53  -3436.7335114070  -0.002203029434 0.00170591  0.00000919  0.0032762 0.9200
 54  -3436.7355420901  -0.002030683137 0.00155816  0.00000854  0.0030130 0.9200
 55  -3436.7374134724  -0.001871382276 0.01852285  0.00009946  0.0027715 0.0000
 56  -3436.7590884071  -0.021674934725 0.00216827  0.00001123  0.0013034 0.0000
 57  -3436.7590415499   0.000046857180 0.00006418  0.00000035  0.0030295 0.9200
 58  -3436.7590463176  -0.000004767658 0.00088279  0.00000608  0.0028977 0.0000
 59  -3436.7590969350  -0.000050617368 0.00159200  0.00000420  0.0008243 0.0000
               *** Restarting incremental Fock matrix formation ***
                                   *** Resetting DIIS ***
 60  -3436.7591021552  -0.000005220197 0.00172904  0.00000578  0.0003616 0.0000
 61  -3436.7590930686   0.000009086576 0.00088327  0.00000288  0.0014841 0.0000
 62  -3436.7591024157  -0.000009347089 0.00027086  0.00000198  0.0008230 0.0000
 63  -3436.7591063034  -0.000003887748 0.00025609  0.00000172  0.0005588 0.0000
 64  -3436.7591087287  -0.000002425321 0.00033928  0.00000170  0.0003961 0.0000
 65  -3436.7591105007  -0.000001771939 0.00063664  0.00000204  0.0002734 0.0000
 66  -3436.7591121092  -0.000001608548 0.00027799  0.00000161  0.0001280 0.0000
 67  -3436.7591132553  -0.000001146077 0.00023233  0.00000148  0.0001217 0.0000
 68  -3436.7591143525  -0.000001097155 0.00021326  0.00000141  0.0001170 0.0000
 69  -3436.7591152803  -0.000000927846 0.00021213  0.00000141  0.0001138 0.0000
 70  -3436.7591161154  -0.000000835080 0.00024505  0.00000199  0.0001115 0.0000
                 **** Energy Check signals convergence ****

               *****************************************************
               *                     SUCCESS                       *
               *           SCF CONVERGED AFTER  71 CYCLES          *
               *****************************************************


----------------
TOTAL SCF ENERGY
----------------

Total Energy       :        -3436.75911695 Eh          -93518.96998 eV

Components:
Nuclear Repulsion  :         7116.15637095 Eh          193640.45934 eV
Electronic Energy  :       -10552.91548790 Eh         -287159.42933 eV
One Electron Energy:       -19782.33007990 Eh         -538304.56835 eV
Two Electron Energy:         9229.41459200 Eh          251145.13902 eV

Virial components:
Potential Energy   :        -5430.87522483 Eh         -147781.62794 eV
Kinetic Energy     :         1994.11610788 Eh           54262.65796 eV
Virial Ratio       :            2.72344985


DFT components:
N(Alpha)           :      166.999929783158 electrons
N(Beta)            :      162.999925709563 electrons
N(Total)           :      329.999855492720 electrons
E(X)               :     -247.144882526477 Eh       
E(C)               :      -14.448517209960 Eh       
E(XC)              :     -261.593399736437 Eh       
DFET-embed. en.    :        0.000000000000 Eh       

---------------
SCF CONVERGENCE
---------------

  Last Energy change         ...   -8.2985e-07  Tolerance :   1.0000e-06
  Last MAX-Density change    ...    2.0643e-04  Tolerance :   1.0000e-05
  Last RMS-Density change    ...    1.3819e-06  Tolerance :   1.0000e-06
  Last DIIS Error            ...    2.2228e-04  Tolerance :   1.0000e-06

             **** THE GBW FILE WAS UPDATED (pbeSP.gbw) ****
             **** DENSITY pbeSP.scfp WAS UPDATED ****
             **** ENERGY FILE WAS UPDATED (pbeSP.en.tmp) ****
----------------------
UHF SPIN CONTAMINATION
----------------------

Warning: in a DFT calculation there is little theoretical justification to 
         calculate <S**2> as in Hartree-Fock theory. We will do it anyways
         but you should keep in mind that the values have only limited relevance

Expectation value of <S**2>     :     6.064774
Ideal value S*(S+1) for S=2.0   :     6.000000
Deviation                       :     0.064774

             **** THE GBW FILE WAS UPDATED (pbeSP.gbw) ****
             **** DENSITY pbeSP.scfp WAS UPDATED ****
----------------
ORBITAL ENERGIES
----------------
                 SPIN UP ORBITALS
  NO   OCC          E(Eh)            E(eV) 
   0   1.0000    -254.766265     -6932.5425 
   1   1.0000     -29.602829      -805.5339 
   2   1.0000     -25.549552      -695.2386 
   3   1.0000     -25.536339      -694.8791 
   4   1.0000     -25.527946      -694.6507 
   5   1.0000      -4.036789      -109.8466 
   6   1.0000      -4.036698      -109.8441 
   7   1.0000      -4.036504      -109.8389 
   8   1.0000      -4.036294      -109.8332 
   9   1.0000      -4.035180      -109.8028 
  10   1.0000      -4.035141      -109.8018 
  11   1.0000      -4.033439      -109.7555 
  12   1.0000      -4.033321      -109.7523 
  13   1.0000      -4.028772      -109.6285 
  14   1.0000      -4.028710      -109.6268 
  15   1.0000      -4.027594      -109.5964 
  16   1.0000      -4.027439      -109.5922 
  17   1.0000      -4.023469      -109.4842 
  18   1.0000      -4.023447      -109.4836 
  19   1.0000      -4.022748      -109.4645 
  20   1.0000      -4.022603      -109.4606 
  21   1.0000      -3.384555       -92.0984 
  22   1.0000      -2.252962       -61.3062 
  23   1.0000      -2.252777       -61.3012 
  24   1.0000      -2.252356       -61.2897 
  25   1.0000      -2.252264       -61.2872 
  26   1.0000      -2.251632       -61.2700 
  27   1.0000      -2.251527       -61.2672 
  28   1.0000      -2.250242       -61.2322 
  29   1.0000      -2.250171       -61.2303 
  30   1.0000      -2.249953       -61.2243 
  31   1.0000      -2.249830       -61.2210 
  32   1.0000      -2.248630       -61.1883 
  33   1.0000      -2.248583       -61.1870 
  34   1.0000      -2.248455       -61.1836 
  35   1.0000      -2.248427       -61.1828 
  36   1.0000      -2.246592       -61.1329 
  37   1.0000      -2.246539       -61.1314 
  38   1.0000      -2.246066       -61.1186 
  39   1.0000      -2.245675       -61.1079 
  40   1.0000      -2.245621       -61.1064 
  41   1.0000      -2.245448       -61.1018 
  42   1.0000      -2.244758       -61.0830 
  43   1.0000      -2.244652       -61.0801 
  44   1.0000      -2.244184       -61.0674 
  45   1.0000      -2.244047       -61.0636 
  46   1.0000      -2.243959       -61.0612 
  47   1.0000      -2.243829       -61.0577 
  48   1.0000      -2.242144       -61.0118 
  49   1.0000      -2.241964       -61.0070 
  50   1.0000      -2.241913       -61.0056 
  51   1.0000      -2.241877       -61.0046 
  52   1.0000      -2.241585       -60.9966 
  53   1.0000      -2.240191       -60.9587 
  54   1.0000      -2.239393       -60.9370 
  55   1.0000      -2.238848       -60.9221 
  56   1.0000      -2.238583       -60.9149 
  57   1.0000      -2.238119       -60.9023 
  58   1.0000      -2.237964       -60.8981 
  59   1.0000      -2.237932       -60.8972 
  60   1.0000      -2.237865       -60.8954 
  61   1.0000      -2.237199       -60.8773 
  62   1.0000      -2.236613       -60.8613 
  63   1.0000      -2.235917       -60.8424 
  64   1.0000      -2.234989       -60.8172 
  65   1.0000      -2.234978       -60.8168 
  66   1.0000      -2.233360       -60.7728 
  67   1.0000      -2.233271       -60.7704 
  68   1.0000      -2.232970       -60.7622 
  69   1.0000      -2.232627       -60.7529 
  70   1.0000      -2.221485       -60.4497 
  71   1.0000      -2.195318       -59.7377 
  72   1.0000      -2.177719       -59.2587 
  73   1.0000      -0.437855       -11.9147 
  74   1.0000      -0.396894       -10.8000 
  75   1.0000      -0.395583       -10.7644 
  76   1.0000      -0.390523       -10.6267 
  77   1.0000      -0.383752       -10.4424 
  78   1.0000      -0.379698       -10.3321 
  79   1.0000      -0.374881       -10.2010 
  80   1.0000      -0.372870       -10.1463 
  81   1.0000      -0.371748       -10.1158 
  82   1.0000      -0.368402       -10.0247 
  83   1.0000      -0.365844        -9.9551 
  84   1.0000      -0.364535        -9.9195 
  85   1.0000      -0.362162        -9.8549 
  86   1.0000      -0.360820        -9.8184 
  87   1.0000      -0.360241        -9.8027 
  88   1.0000      -0.356057        -9.6888 
  89   1.0000      -0.355215        -9.6659 
  90   1.0000      -0.353176        -9.6104 
  91   1.0000      -0.352878        -9.6023 
  92   1.0000      -0.349290        -9.5047 
  93   1.0000      -0.347402        -9.4533 
  94   1.0000      -0.346509        -9.4290 
  95   1.0000      -0.345528        -9.4023 
  96   1.0000      -0.344137        -9.3644 
  97   1.0000      -0.340323        -9.2607 
  98   1.0000      -0.338859        -9.2208 
  99   1.0000      -0.338178        -9.2023 
 100   1.0000      -0.336955        -9.1690 
 101   1.0000      -0.334028        -9.0894 
 102   1.0000      -0.329472        -8.9654 
 103   1.0000      -0.328747        -8.9457 
 104   1.0000      -0.326402        -8.8819 
 105   1.0000      -0.326182        -8.8759 
 106   1.0000      -0.322059        -8.7637 
 107   1.0000      -0.319697        -8.6994 
 108   1.0000      -0.318924        -8.6784 
 109   1.0000      -0.317228        -8.6322 
 110   1.0000      -0.311348        -8.4722 
 111   1.0000      -0.310596        -8.4517 
 112   1.0000      -0.309070        -8.4102 
 113   1.0000      -0.306028        -8.3274 
 114   1.0000      -0.304935        -8.2977 
 115   1.0000      -0.300343        -8.1728 
 116   1.0000      -0.296942        -8.0802 
 117   1.0000      -0.295426        -8.0390 
 118   1.0000      -0.294459        -8.0126 
 119   1.0000      -0.292450        -7.9580 
 120   1.0000      -0.292231        -7.9520 
 121   1.0000      -0.291963        -7.9447 
 122   1.0000      -0.288809        -7.8589 
 123   1.0000      -0.288037        -7.8379 
 124   1.0000      -0.285992        -7.7822 
 125   1.0000      -0.281328        -7.6553 
 126   1.0000      -0.280617        -7.6360 
 127   1.0000      -0.277286        -7.5453 
 128   1.0000      -0.277116        -7.5407 
 129   1.0000      -0.275652        -7.5009 
 130   1.0000      -0.273974        -7.4552 
 131   1.0000      -0.273346        -7.4381 
 132   1.0000      -0.273105        -7.4316 
 133   1.0000      -0.270288        -7.3549 
 134   1.0000      -0.269088        -7.3222 
 135   1.0000      -0.267181        -7.2704 
 136   1.0000      -0.266503        -7.2519 
 137   1.0000      -0.265784        -7.2324 
 138   1.0000      -0.264026        -7.1845 
 139   1.0000      -0.263363        -7.1665 
 140   1.0000      -0.262793        -7.1510 
 141   1.0000      -0.262642        -7.1468 
 142   1.0000      -0.261953        -7.1281 
 143   1.0000      -0.261887        -7.1263 
 144   1.0000      -0.258221        -7.0265 
 145   1.0000      -0.257896        -7.0177 
 146   1.0000      -0.257846        -7.0163 
 147   1.0000      -0.255638        -6.9563 
 148   1.0000      -0.254526        -6.9260 
 149   1.0000      -0.253932        -6.9098 
 150   1.0000      -0.252845        -6.8803 
 151   1.0000      -0.252501        -6.8709 
 152   1.0000      -0.251384        -6.8405 
 153   1.0000      -0.248765        -6.7692 
 154   1.0000      -0.248035        -6.7494 
 155   1.0000      -0.247621        -6.7381 
 156   1.0000      -0.246385        -6.7045 
 157   1.0000      -0.244212        -6.6453 
 158   1.0000      -0.242077        -6.5873 
 159   1.0000      -0.240200        -6.5362 
 160   1.0000      -0.239839        -6.5264 
 161   1.0000      -0.234822        -6.3898 
 162   1.0000      -0.219169        -5.9639 
 163   1.0000      -0.218703        -5.9512 
 164   1.0000      -0.217059        -5.9065 
 165   1.0000      -0.205216        -5.5842 
 166   1.0000      -0.204478        -5.5641 
 167   0.0000      -0.158520        -4.3136 
 168   0.0000      -0.148175        -4.0320 
 169   0.0000      -0.136261        -3.7079 
 170   0.0000      -0.129640        -3.5277 
 171   0.0000      -0.129187        -3.5153 
 172   0.0000      -0.123225        -3.3531 
 173   0.0000      -0.119096        -3.2408 
 174   0.0000      -0.117292        -3.1917 
 175   0.0000      -0.083124        -2.2619 
 176   0.0000      -0.079216        -2.1556 
 177   0.0000      -0.078021        -2.1231 
 178   0.0000      -0.051711        -1.4071 
 179   0.0000      -0.044225        -1.2034 
 180   0.0000      -0.033183        -0.9030 
 181   0.0000      -0.029775        -0.8102 
 182   0.0000      -0.025860        -0.7037 
 183   0.0000      -0.025216        -0.6862 
 184   0.0000      -0.022627        -0.6157 
 185   0.0000      -0.014127        -0.3844 
 186   0.0000      -0.005829        -0.1586 
 187   0.0000      -0.005560        -0.1513 
 188   0.0000      -0.000235        -0.0064 
 189   0.0000       0.005521         0.1502 
 190   0.0000       0.014865         0.4045 
 191   0.0000       0.025189         0.6854 
 192   0.0000       0.030969         0.8427 
 193   0.0000       0.050525         1.3748 
 194   0.0000       0.051235         1.3942 
 195   0.0000       0.058685         1.5969 
 196   0.0000       0.059178         1.6103 
 197   0.0000       0.062923         1.7122 
 198   0.0000       0.063380         1.7247 
 199   0.0000       0.064229         1.7477 
 200   0.0000       0.064262         1.7486 
 201   0.0000       0.064518         1.7556 
 202   0.0000       0.067476         1.8361 
 203   0.0000       0.070514         1.9188 
 204   0.0000       0.072776         1.9803 
 205   0.0000       0.078945         2.1482 
 206   0.0000       0.081208         2.2098 
 207   0.0000       0.087509         2.3813 
 208   0.0000       0.088700         2.4137 
 209   0.0000       0.092512         2.5174 
 210   0.0000       0.093409         2.5418 
 211   0.0000       0.104185         2.8350 
 212   0.0000       0.107517         2.9257 
 213   0.0000       0.115482         3.1424 
 214   0.0000       0.127718         3.4754 
 215   0.0000       0.132721         3.6115 
 216   0.0000       0.138109         3.7581 
 217   0.0000       0.140395         3.8203 
 218   0.0000       0.144178         3.9233 
 219   0.0000       0.145363         3.9555 
 220   0.0000       0.149446         4.0666 
 221   0.0000       0.152390         4.1468 
 222   0.0000       0.153364         4.1732 
 223   0.0000       0.159526         4.3409 
 224   0.0000       0.161223         4.3871 
 225   0.0000       0.162528         4.4226 
 226   0.0000       0.165581         4.5057 
 227   0.0000       0.172589         4.6964 
 228   0.0000       0.175788         4.7834 
 229   0.0000       0.177727         4.8362 
 230   0.0000       0.178503         4.8573 
 231   0.0000       0.185285         5.0419 
 232   0.0000       0.191418         5.2087 
 233   0.0000       0.197621         5.3776 
 234   0.0000       0.198410         5.3990 
 235   0.0000       0.207470         5.6455 
 236   0.0000       0.208287         5.6678 
 237   0.0000       0.216784         5.8990 
 238   0.0000       0.218388         5.9426 
 239   0.0000       0.225691         6.1414 
 240   0.0000       0.230569         6.2741 
 241   0.0000       0.231885         6.3099 
 242   0.0000       0.233149         6.3443 
 243   0.0000       0.240557         6.5459 
 244   0.0000       0.243441         6.6244 
 245   0.0000       0.244130         6.6431 
 246   0.0000       0.247981         6.7479 
 247   0.0000       0.248736         6.7684 
 248   0.0000       0.259599         7.0641 
 249   0.0000       0.260725         7.0947 
 250   0.0000       0.270601         7.3634 
 251   0.0000       0.271933         7.3997 
 252   0.0000       0.277299         7.5457 
 253   0.0000       0.282353         7.6832 
 254   0.0000       0.288424         7.8484 
 255   0.0000       0.292998         7.9729 
 256   0.0000       0.296891         8.0788 
 257   0.0000       0.297675         8.1002 
 258   0.0000       0.303985         8.2719 
 259   0.0000       0.307830         8.3765 
 260   0.0000       0.312855         8.5132 
 261   0.0000       0.314781         8.5656 
 262   0.0000       0.319701         8.6995 
 263   0.0000       0.321823         8.7572 
 264   0.0000       0.325678         8.8621 
 265   0.0000       0.326005         8.8710 
 266   0.0000       0.328534         8.9399 
 267   0.0000       0.335340         9.1251 
 268   0.0000       0.340805         9.2738 
 269   0.0000       0.341355         9.2887 
 270   0.0000       0.341672         9.2974 
 271   0.0000       0.354768         9.6537 
 272   0.0000       0.362382         9.8609 
 273   0.0000       0.364817         9.9272 
 274   0.0000       0.374417        10.1884 
 275   0.0000       0.376182        10.2364 
 276   0.0000       0.383347        10.4314 
 277   0.0000       0.383702        10.4411 
 278   0.0000       0.387465        10.5435 
 279   0.0000       0.390388        10.6230 
 280   0.0000       0.392811        10.6889 
 281   0.0000       0.395197        10.7538 
 282   0.0000       0.396356        10.7854 
 283   0.0000       0.397998        10.8301 
 284   0.0000       0.404930        11.0187 
 285   0.0000       0.409129        11.1330 
 286   0.0000       0.412076        11.2132 
 287   0.0000       0.413629        11.2554 
 288   0.0000       0.422140        11.4870 
 289   0.0000       0.425539        11.5795 
 290   0.0000       0.425551        11.5798 
 291   0.0000       0.434936        11.8352 
 292   0.0000       0.440996        12.0001 
 293   0.0000       0.444248        12.0886 
 294   0.0000       0.447831        12.1861 
 295   0.0000       0.451904        12.2969 
 296   0.0000       0.460558        12.5324 
 297   0.0000       0.465285        12.6611 
 298   0.0000       0.465736        12.6733 
 299   0.0000       0.469937        12.7876 
 300   0.0000       0.470408        12.8004 
 301   0.0000       0.474570        12.9137 
 302   0.0000       0.485903        13.2221 
 303   0.0000       0.490619        13.3504 
 304   0.0000       0.492074        13.3900 
 305   0.0000       0.494787        13.4638 
 306   0.0000       0.495671        13.4879 
 307   0.0000       0.496362        13.5067 
 308   0.0000       0.499949        13.6043 
 309   0.0000       0.507941        13.8218 
 310   0.0000       0.509775        13.8717 
 311   0.0000       0.513563        13.9748 
 312   0.0000       0.517165        14.0728 
 313   0.0000       0.519995        14.1498 
 314   0.0000       0.520252        14.1568 
 315   0.0000       0.528230        14.3739 
 316   0.0000       0.531028        14.4500 
 317   0.0000       0.534845        14.5539 
 318   0.0000       0.535883        14.5821 
 319   0.0000       0.543660        14.7937 
 320   0.0000       0.547357        14.8943 
 321   0.0000       0.548637        14.9292 
 322   0.0000       0.560038        15.2394 
 323   0.0000       0.574666        15.6374 
 324   0.0000       0.575134        15.6502 
 325   0.0000       0.588846        16.0233 
 326   0.0000       0.599824        16.3221 
 327   0.0000       0.605225        16.4690 
 328   0.0000       0.658748        17.9254 
 329   0.0000       0.667129        18.1535 
 330   0.0000       0.692907        18.8550 
 331   0.0000       0.697021        18.9669 
 332   0.0000       0.712573        19.3901 
 333   0.0000       0.718904        19.5624 
 334   0.0000       0.719595        19.5812 
 335   0.0000       0.724200        19.7065 
 336   0.0000       0.738105        20.0849 
 337   0.0000       0.739447        20.1214 
 338   0.0000       0.745742        20.2927 
 339   0.0000       0.750304        20.4168 
 340   0.0000       0.759969        20.6798 
 341   0.0000       0.763416        20.7736 
 342   0.0000       0.766469        20.8567 
 343   0.0000       0.781447        21.2643 
 344   0.0000       0.785517        21.3750 
 345   0.0000       0.788396        21.4533 
 346   0.0000       0.790145        21.5009 
 347   0.0000       0.797477        21.7005 
 348   0.0000       0.803956        21.8767 
 349   0.0000       0.810154        22.0454 
 350   0.0000       0.816870        22.2282 
 351   0.0000       0.820072        22.3153 
 352   0.0000       0.825732        22.4693 
 353   0.0000       0.826036        22.4776 
 354   0.0000       0.840067        22.8594 
 355   0.0000       0.843411        22.9504 
 356   0.0000       0.856490        23.3063 
 357   0.0000       0.864708        23.5299 
 358   0.0000       0.878011        23.8919 
 359   0.0000       0.878053        23.8930 
 360   0.0000       0.888225        24.1698 
 361   0.0000       0.904791        24.6206 
 362   0.0000       0.908880        24.7319 
 363   0.0000       0.909569        24.7506 
 364   0.0000       0.913103        24.8468 
 365   0.0000       0.924946        25.1691 
 366   0.0000       0.929985        25.3062 
 367   0.0000       0.949310        25.8320 
 368   0.0000       0.964639        26.2492 
 369   0.0000       0.966586        26.3021 
 370   0.0000       0.971199        26.4277 
 371   0.0000       0.980425        26.6787 
 372   0.0000       0.983010        26.7491 
 373   0.0000       0.986018        26.8309 
 374   0.0000       1.004285        27.3280 
 375   0.0000       1.031523        28.0692 
 376   0.0000       1.102777        30.0081 
 377   0.0000       1.107836        30.1458 
 378   0.0000       1.147215        31.2173 
 379   0.0000       1.165285        31.7090 
 380   0.0000       1.175359        31.9831 
 381   0.0000       1.207074        32.8462 
 382   0.0000       1.218826        33.1660 
 383   0.0000       1.219206        33.1763 
 384   0.0000       1.237188        33.6656 
 385   0.0000       1.239007        33.7151 
 386   0.0000       1.250720        34.0338 
 387   0.0000       1.268850        34.5272 
 388   0.0000       1.275390        34.7051 
 389   0.0000       1.284872        34.9631 
 390   0.0000       1.293360        35.1941 
 391   0.0000       1.296029        35.2667 
 392   0.0000       1.298976        35.3469 
 393   0.0000       1.311608        35.6907 
 394   0.0000       1.318090        35.8671 
 395   0.0000       1.321395        35.9570 
 396   0.0000       1.324679        36.0463 
 397   0.0000       1.325318        36.0637 
 398   0.0000       1.335300        36.3354 
 399   0.0000       1.336303        36.3627 
 400   0.0000       1.337805        36.4035 
 401   0.0000       1.340626        36.4803 
 402   0.0000       1.353798        36.8387 
 403   0.0000       1.358713        36.9724 
 404   0.0000       1.362599        37.0782 
 405   0.0000       1.375945        37.4414 
 406   0.0000       1.376684        37.4615 
 407   0.0000       1.386701        37.7340 
 408   0.0000       1.390154        37.8280 
 409   0.0000       1.394929        37.9579 
 410   0.0000       1.404584        38.2207 
 411   0.0000       1.405179        38.2369 
 412   0.0000       1.409679        38.3593 
 413   0.0000       1.410682        38.3866 
 414   0.0000       1.417545        38.5734 
 415   0.0000       1.417639        38.5759 
 416   0.0000       1.421163        38.6718 
 417   0.0000       1.422680        38.7131 
 418   0.0000       1.428563        38.8732 
 419   0.0000       1.429879        38.9090 
 420   0.0000       1.431110        38.9425 
 421   0.0000       1.435475        39.0613 
 422   0.0000       1.436846        39.0986 
 423   0.0000       1.440837        39.2072 
 424   0.0000       1.446444        39.3597 
 425   0.0000       1.448916        39.4270 
 426   0.0000       1.454018        39.5658 
 427   0.0000       1.454370        39.5754 
 428   0.0000       1.455342        39.6019 
 429   0.0000       1.458762        39.6949 
 430   0.0000       1.463843        39.8332 
 431   0.0000       1.465628        39.8818 
 432   0.0000       1.466040        39.8930 
 433   0.0000       1.470895        40.0251 
 434   0.0000       1.472287        40.0630 
 435   0.0000       1.474805        40.1315 
 436   0.0000       1.476931        40.1893 
 437   0.0000       1.479117        40.2488 
 438   0.0000       1.480511        40.2867 
 439   0.0000       1.482221        40.3333 
 440   0.0000       1.484923        40.4068 
 441   0.0000       1.485535        40.4235 
 442   0.0000       1.487835        40.4861 
 443   0.0000       1.489000        40.5177 
 444   0.0000       1.489832        40.5404 
 445   0.0000       1.491980        40.5988 
 446   0.0000       1.493042        40.6277 
 447   0.0000       1.494857        40.6771 
 448   0.0000       1.495330        40.6900 
 449   0.0000       1.496926        40.7334 
 450   0.0000       1.497894        40.7598 
 451   0.0000       1.498968        40.7890 
 452   0.0000       1.501048        40.8456 
 453   0.0000       1.502411        40.8827 
 454   0.0000       1.504201        40.9314 
 455   0.0000       1.505854        40.9764 
 456   0.0000       1.506521        40.9945 
 457   0.0000       1.508375        41.0450 
 458   0.0000       1.510268        41.0965 
 459   0.0000       1.511780        41.1376 
 460   0.0000       1.512708        41.1629 
 461   0.0000       1.513123        41.1742 
 462   0.0000       1.514992        41.2250 
 463   0.0000       1.515337        41.2344 
 464   0.0000       1.517037        41.2807 
 465   0.0000       1.517906        41.3043 
 466   0.0000       1.519329        41.3431 
 467   0.0000       1.521346        41.3979 
 468   0.0000       1.522774        41.4368 
 469   0.0000       1.523110        41.4459 
 470   0.0000       1.523416        41.4543 
 471   0.0000       1.523882        41.4669 
 472   0.0000       1.526230        41.5308 
 473   0.0000       1.526771        41.5455 
 474   0.0000       1.528215        41.5848 
 475   0.0000       1.532512        41.7018 
 476   0.0000       1.534284        41.7500 
 477   0.0000       1.535349        41.7790 
 478   0.0000       1.539031        41.8792 
 479   0.0000       1.540939        41.9311 
 480   0.0000       1.541476        41.9457 
 481   0.0000       1.542851        41.9831 
 482   0.0000       1.543393        41.9979 
 483   0.0000       1.548993        42.1502 
 484   0.0000       1.549140        42.1542 
 485   0.0000       1.555812        42.3358 
 486   0.0000       1.556189        42.3461 
 487   0.0000       1.558111        42.3983 
 488   0.0000       1.560323        42.4585 
 489   0.0000       1.560773        42.4708 
 490   0.0000       1.563755        42.5519 
 491   0.0000       1.567004        42.6403 
 492   0.0000       1.567986        42.6671 
 493   0.0000       1.569291        42.7026 
 494   0.0000       1.571306        42.7574 
 495   0.0000       1.573934        42.8289 
 496   0.0000       1.576200        42.8906 
 497   0.0000       1.579690        42.9855 
 498   0.0000       1.582022        43.0490 
 499   0.0000       1.583796        43.0973 
 500   0.0000       1.583917        43.1006 
 501   0.0000       1.587790        43.2060 
 502   0.0000       1.588961        43.2378 
 503   0.0000       1.592581        43.3363 
 504   0.0000       1.593727        43.3675 
 505   0.0000       1.594032        43.3758 
 506   0.0000       1.596715        43.4488 
 507   0.0000       1.600267        43.5455 
 508   0.0000       1.601426        43.5770 
 509   0.0000       1.603234        43.6262 
 510   0.0000       1.607057        43.7302 
 511   0.0000       1.610343        43.8196 
 512   0.0000       1.613187        43.8970 
 513   0.0000       1.616114        43.9767 
 514   0.0000       1.616634        43.9909 
 515   0.0000       1.621215        44.1155 
 516   0.0000       1.623018        44.1646 
 517   0.0000       1.623150        44.1682 
 518   0.0000       1.629694        44.3462 
 519   0.0000       1.635262        44.4977 
 520   0.0000       1.636626        44.5349 
 521   0.0000       1.639963        44.6257 
 522   0.0000       1.642372        44.6912 
 523   0.0000       1.646055        44.7914 
 524   0.0000       1.649506        44.8853 
 525   0.0000       1.653331        44.9894 
 526   0.0000       1.660418        45.1823 
 527   0.0000       1.661108        45.2011 
 528   0.0000       1.666036        45.3352 
 529   0.0000       1.666454        45.3465 
 530   0.0000       1.676312        45.6148 
 531   0.0000       1.684603        45.8404 
 532   0.0000       1.691239        46.0210 
 533   0.0000       1.692665        46.0597 
 534   0.0000       1.712769        46.6068 
 535   0.0000       1.719446        46.7885 
 536   0.0000       1.722682        46.8766 
 537   0.0000       1.726002        46.9669 
 538   0.0000       1.732478        47.1431 
 539   0.0000       1.741213        47.3808 
 540   0.0000       1.748666        47.5836 
 541   0.0000       1.756090        47.7857 
 542   0.0000       1.760526        47.9063 
 543   0.0000       1.767084        48.0848 
 544   0.0000       1.770105        48.1670 
 545   0.0000       1.770621        48.1810 
 546   0.0000       1.781338        48.4727 
 547   0.0000       1.790189        48.7135 
 548   0.0000       1.792339        48.7720 
 549   0.0000       1.798240        48.9326 
 550   0.0000       1.802168        49.0395 
 551   0.0000       1.806838        49.1666 
 552   0.0000       1.811915        49.3047 
 553   0.0000       1.814871        49.3851 
 554   0.0000       1.818988        49.4972 
 555   0.0000       1.819179        49.5024 
 556   0.0000       1.827016        49.7156 
 557   0.0000       1.834572        49.9212 
 558   0.0000       1.837991        50.0143 
 559   0.0000       1.842787        50.1448 
 560   0.0000       1.849730        50.3337 
 561   0.0000       1.852900        50.4200 
 562   0.0000       1.853240        50.4292 
 563   0.0000       1.872066        50.9415 
 564   0.0000       1.874735        51.0141 
 565   0.0000       1.878701        51.1220 
 566   0.0000       1.905759        51.8583 
 567   0.0000       1.907171        51.8968 
 568   0.0000       1.942974        52.8710 
 569   0.0000       1.949498        53.0485 
 570   0.0000       2.004176        54.5364 
 571   0.0000       2.010883        54.7189 
 572   0.0000       2.118137        57.6374 
 573   0.0000       2.183748        59.4228 
 574   0.0000       2.268288        61.7233 
 575   0.0000       2.275777        61.9270 
 576   0.0000       2.283162        62.1280 
 577   0.0000       2.351700        63.9930 
 578   0.0000       2.388526        64.9951 
 579   0.0000       2.393794        65.1384 
 580   0.0000       2.401729        65.3544 
 581   0.0000       2.409843        65.5752 
 582   0.0000       2.429660        66.1144 
 583   0.0000       2.453360        66.7593 
 584   0.0000       2.472889        67.2907 
 585   0.0000       2.501680        68.0742 
 586   0.0000       2.513464        68.3948 
 587   0.0000       2.530025        68.8455 
 588   0.0000       2.535808        69.0029 
 589   0.0000       2.552071        69.4454 
 590   0.0000       2.582354        70.2694 
 591   0.0000       2.595900        70.6380 
 592   0.0000       3.355876        91.3180 
 593   0.0000       3.536594        96.2356 
 594   0.0000       3.623807        98.6088 
 595   0.0000       3.719802       101.2210 
 596   0.0000       3.728559       101.4592 
 597   0.0000       3.745105       101.9095 
 598   0.0000       3.887892       105.7949 
 599   0.0000       3.890363       105.8622 
 600   0.0000       3.890731       105.8722 
 601   0.0000       3.893799       105.9557 
 602   0.0000       3.906558       106.3028 
 603   0.0000       3.918650       106.6319 
 604   0.0000       3.928334       106.8954 
 605   0.0000      23.983454       652.6230 
 606   0.0000      24.210942       658.8132 
 607   0.0000      24.350137       662.6009 
 608   0.0000      24.412814       664.3064 
 609   0.0000      24.599598       669.3891 
 610   0.0000      24.741303       673.2451 
 611   0.0000      24.815603       675.2669 
 612   0.0000      24.894829       677.4227 
 613   0.0000      25.021667       680.8742 
 614   0.0000      25.170108       684.9135 
 615   0.0000      25.197091       685.6477 
 616   0.0000      25.340137       689.5402 
 617   0.0000      25.363848       690.1854 
 618   0.0000      25.402867       691.2472 
 619   0.0000      25.502983       693.9714 
 620   0.0000      25.562032       695.5782 
 621   0.0000      25.679456       698.7735 
 622   0.0000      25.737975       700.3659 
 623   0.0000      25.852699       703.4877 
 624   0.0000      25.930228       705.5974 
 625   0.0000      26.038977       708.5566 
 626   0.0000      26.073403       709.4934 
 627   0.0000      26.129409       711.0174 
 628   0.0000      26.227107       713.6759 
 629   0.0000      26.294845       715.5191 
 630   0.0000      26.370118       717.5674 
 631   0.0000      26.431737       719.2441 
 632   0.0000      26.552781       722.5379 
 633   0.0000      26.660708       725.4747 
 634   0.0000      26.711289       726.8511 
 635   0.0000      26.786265       728.8913 
 636   0.0000      26.886205       731.6108 
 637   0.0000      26.900009       731.9865 
 638   0.0000      26.934918       732.9364 
 639   0.0000      27.014059       735.0899 
 640   0.0000      27.073872       736.7175 
 641   0.0000      27.117156       737.8953 
 642   0.0000      27.515543       748.7360 
 643   0.0000      27.534571       749.2538 
 644   0.0000      27.543025       749.4838 
 645   0.0000      27.681709       753.2576 
 646   0.0000      27.797339       756.4040 
 647   0.0000      28.082300       764.1582 
 648   0.0000      28.086157       764.2632 
 649   0.0000      28.536748       776.5244 
 650   0.0000      28.729681       781.7744 
 651   0.0000      29.166484       793.6604 
 652   0.0000      31.476964       856.5317 
 653   0.0000      43.899914      1194.5774 
 654   0.0000      44.033649      1198.2165 
 655   0.0000      44.036151      1198.2846 
 656   0.0000      44.055130      1198.8010 
 657   0.0000      44.109715      1200.2864 
 658   0.0000      44.114198      1200.4084 
 659   0.0000      44.132845      1200.9158 
 660   0.0000      44.150360      1201.3924 
 661   0.0000      44.151161      1201.4142 
 662   0.0000      44.164046      1201.7648 
 663   0.0000      44.175656      1202.0807 
 664   0.0000      44.187127      1202.3928 
 665   0.0000      44.220051      1203.2888 
 666   0.0000      44.225647      1203.4410 
 667   0.0000      44.255286      1204.2476 
 668   0.0000      44.300484      1205.4775 
 669   0.0000     205.087015      5580.7014 
 670   0.0000     205.140620      5582.1601 
 671   0.0000     205.144084      5582.2543 
 672   0.0000     205.147924      5582.3588 
 673   0.0000     205.176658      5583.1407 
 674   0.0000     205.177657      5583.1679 
 675   0.0000     205.186448      5583.4071 
 676   0.0000     205.193435      5583.5972 
 677   0.0000     205.196229      5583.6733 
 678   0.0000     205.197627      5583.7113 
 679   0.0000     205.203192      5583.8627 
 680   0.0000     205.206738      5583.9592 
 681   0.0000     205.220229      5584.3263 
 682   0.0000     205.222263      5584.3817 
 683   0.0000     205.235874      5584.7521 
 684   0.0000     205.248218      5585.0879 

                 SPIN DOWN ORBITALS
  NO   OCC          E(Eh)            E(eV) 
   0   1.0000    -254.765570     -6932.5236 
   1   1.0000     -29.542413      -803.8899 
   2   1.0000     -25.498944      -693.8615 
   3   1.0000     -25.491322      -693.6541 
   4   1.0000     -25.486751      -693.5298 
   5   1.0000      -4.035967      -109.8242 
   6   1.0000      -4.035908      -109.8226 
   7   1.0000      -4.035874      -109.8217 
   8   1.0000      -4.035710      -109.8173 
   9   1.0000      -4.034067      -109.7725 
  10   1.0000      -4.034028      -109.7715 
  11   1.0000      -4.033209      -109.7492 
  12   1.0000      -4.033098      -109.7462 
  13   1.0000      -4.028624      -109.6244 
  14   1.0000      -4.028562      -109.6228 
  15   1.0000      -4.027107      -109.5831 
  16   1.0000      -4.026949      -109.5789 
  17   1.0000      -4.023332      -109.4804 
  18   1.0000      -4.023308      -109.4798 
  19   1.0000      -4.022689      -109.4629 
  20   1.0000      -4.022543      -109.4590 
  21   1.0000      -3.246893       -88.3525 
  22   1.0000      -2.252189       -61.2852 
  23   1.0000      -2.252015       -61.2804 
  24   1.0000      -2.251594       -61.2690 
  25   1.0000      -2.251535       -61.2674 
  26   1.0000      -2.250315       -61.2342 
  27   1.0000      -2.250239       -61.2321 
  28   1.0000      -2.249523       -61.2126 
  29   1.0000      -2.249369       -61.2084 
  30   1.0000      -2.248494       -61.1846 
  31   1.0000      -2.248461       -61.1837 
  32   1.0000      -2.248198       -61.1766 
  33   1.0000      -2.248082       -61.1734 
  34   1.0000      -2.247607       -61.1605 
  35   1.0000      -2.247551       -61.1590 
  36   1.0000      -2.245987       -61.1164 
  37   1.0000      -2.245907       -61.1142 
  38   1.0000      -2.245419       -61.1010 
  39   1.0000      -2.245151       -61.0937 
  40   1.0000      -2.244964       -61.0886 
  41   1.0000      -2.244929       -61.0876 
  42   1.0000      -2.244469       -61.0751 
  43   1.0000      -2.244262       -61.0695 
  44   1.0000      -2.243872       -61.0589 
  45   1.0000      -2.243766       -61.0560 
  46   1.0000      -2.243477       -61.0481 
  47   1.0000      -2.243386       -61.0456 
  48   1.0000      -2.241808       -61.0027 
  49   1.0000      -2.241712       -61.0001 
  50   1.0000      -2.241658       -60.9986 
  51   1.0000      -2.241067       -60.9825 
  52   1.0000      -2.240859       -60.9769 
  53   1.0000      -2.240106       -60.9564 
  54   1.0000      -2.239237       -60.9327 
  55   1.0000      -2.238446       -60.9112 
  56   1.0000      -2.238387       -60.9096 
  57   1.0000      -2.237838       -60.8947 
  58   1.0000      -2.237774       -60.8929 
  59   1.0000      -2.237646       -60.8895 
  60   1.0000      -2.237527       -60.8862 
  61   1.0000      -2.237068       -60.8737 
  62   1.0000      -2.236466       -60.8573 
  63   1.0000      -2.235827       -60.8399 
  64   1.0000      -2.234898       -60.8147 
  65   1.0000      -2.234875       -60.8141 
  66   1.0000      -2.233236       -60.7694 
  67   1.0000      -2.233123       -60.7664 
  68   1.0000      -2.232856       -60.7591 
  69   1.0000      -2.232573       -60.7514 
  70   1.0000      -2.071623       -56.3717 
  71   1.0000      -2.063164       -56.1415 
  72   1.0000      -2.055489       -55.9327 
  73   1.0000      -0.433382       -11.7929 
  74   1.0000      -0.395905       -10.7731 
  75   1.0000      -0.393854       -10.7173 
  76   1.0000      -0.389260       -10.5923 
  77   1.0000      -0.375762       -10.2250 
  78   1.0000      -0.374316       -10.1857 
  79   1.0000      -0.371292       -10.1034 
  80   1.0000      -0.368678       -10.0322 
  81   1.0000      -0.368382       -10.0242 
  82   1.0000      -0.363764        -9.8985 
  83   1.0000      -0.363327        -9.8866 
  84   1.0000      -0.362134        -9.8542 
  85   1.0000      -0.360416        -9.8074 
  86   1.0000      -0.358414        -9.7530 
  87   1.0000      -0.354994        -9.6599 
  88   1.0000      -0.354679        -9.6513 
  89   1.0000      -0.353264        -9.6128 
  90   1.0000      -0.352179        -9.5833 
  91   1.0000      -0.350564        -9.5393 
  92   1.0000      -0.347530        -9.4568 
  93   1.0000      -0.346083        -9.4174 
  94   1.0000      -0.344722        -9.3804 
  95   1.0000      -0.344552        -9.3757 
  96   1.0000      -0.343085        -9.3358 
  97   1.0000      -0.338822        -9.2198 
  98   1.0000      -0.337627        -9.1873 
  99   1.0000      -0.337535        -9.1848 
 100   1.0000      -0.333144        -9.0653 
 101   1.0000      -0.328770        -8.9463 
 102   1.0000      -0.327707        -8.9174 
 103   1.0000      -0.325833        -8.8664 
 104   1.0000      -0.323136        -8.7930 
 105   1.0000      -0.320341        -8.7169 
 106   1.0000      -0.317499        -8.6396 
 107   1.0000      -0.317453        -8.6383 
 108   1.0000      -0.316860        -8.6222 
 109   1.0000      -0.312015        -8.4904 
 110   1.0000      -0.310232        -8.4418 
 111   1.0000      -0.305884        -8.3235 
 112   1.0000      -0.305311        -8.3079 
 113   1.0000      -0.298927        -8.1342 
 114   1.0000      -0.297045        -8.0830 
 115   1.0000      -0.296546        -8.0694 
 116   1.0000      -0.295429        -8.0390 
 117   1.0000      -0.293514        -7.9869 
 118   1.0000      -0.292079        -7.9479 
 119   1.0000      -0.291377        -7.9288 
 120   1.0000      -0.290937        -7.9168 
 121   1.0000      -0.287913        -7.8345 
 122   1.0000      -0.285488        -7.7685 
 123   1.0000      -0.282652        -7.6914 
 124   1.0000      -0.281201        -7.6519 
 125   1.0000      -0.279812        -7.6141 
 126   1.0000      -0.278674        -7.5831 
 127   1.0000      -0.276482        -7.5235 
 128   1.0000      -0.274703        -7.4750 
 129   1.0000      -0.273029        -7.4295 
 130   1.0000      -0.271997        -7.4014 
 131   1.0000      -0.269642        -7.3373 
 132   1.0000      -0.266706        -7.2574 
 133   1.0000      -0.266591        -7.2543 
 134   1.0000      -0.265484        -7.2242 
 135   1.0000      -0.264318        -7.1925 
 136   1.0000      -0.263243        -7.1632 
 137   1.0000      -0.262471        -7.1422 
 138   1.0000      -0.262017        -7.1298 
 139   1.0000      -0.261621        -7.1191 
 140   1.0000      -0.259381        -7.0581 
 141   1.0000      -0.259093        -7.0503 
 142   1.0000      -0.257724        -7.0130 
 143   1.0000      -0.256050        -6.9675 
 144   1.0000      -0.254815        -6.9339 
 145   1.0000      -0.253464        -6.8971 
 146   1.0000      -0.252806        -6.8792 
 147   1.0000      -0.252700        -6.8763 
 148   1.0000      -0.250603        -6.8193 
 149   1.0000      -0.249666        -6.7938 
 150   1.0000      -0.248763        -6.7692 
 151   1.0000      -0.247219        -6.7272 
 152   1.0000      -0.246576        -6.7097 
 153   1.0000      -0.243844        -6.6353 
 154   1.0000      -0.240077        -6.5328 
 155   1.0000      -0.239300        -6.5117 
 156   1.0000      -0.234544        -6.3823 
 157   1.0000      -0.224601        -6.1117 
 158   1.0000      -0.221719        -6.0333 
 159   1.0000      -0.221420        -6.0252 
 160   1.0000      -0.212404        -5.7798 
 161   1.0000      -0.210807        -5.7364 
 162   1.0000      -0.182781        -4.9737 
 163   0.0000      -0.172002        -4.6804 
 164   0.0000      -0.171893        -4.6774 
 165   0.0000      -0.164012        -4.4630 
 166   0.0000      -0.151208        -4.1146 
 167   0.0000      -0.151041        -4.1100 
 168   0.0000      -0.143507        -3.9050 
 169   0.0000      -0.132921        -3.6170 
 170   0.0000      -0.126665        -3.4467 
 171   0.0000      -0.126281        -3.4363 
 172   0.0000      -0.121581        -3.3084 
 173   0.0000      -0.114149        -3.1062 
 174   0.0000      -0.113878        -3.0988 
 175   0.0000      -0.078810        -2.1445 
 176   0.0000      -0.076788        -2.0895 
 177   0.0000      -0.074227        -2.0198 
 178   0.0000      -0.049569        -1.3488 
 179   0.0000      -0.041983        -1.1424 
 180   0.0000      -0.031491        -0.8569 
[...]
      dxy     :     1.971773
      f0      :     0.000617  f :     0.005698
      f+1     :     0.000633
      f-1     :     0.000751
      f+2     :     0.001124
      f-2     :     0.001146
      f+3     :     0.000773
      f-3     :     0.000653
 10 Aus       :     2.507461  s :     2.507461
      pz      :     2.221960  p :     6.634040
      px      :     2.257683
      py      :     2.154397
      dz2     :     1.983713  d :     9.903792
      dxz     :     1.989928
      dyz     :     1.956384
      dx2y2   :     1.979668
      dxy     :     1.994099
      f0      :     0.001141  f :     0.007580
      f+1     :     0.000915
      f-1     :     0.001297
      f+2     :     0.001310
      f-2     :     0.001128
      f+3     :     0.000791
      f-3     :     0.000997
 11 Aus       :     2.599770  s :     2.599770
      pz      :     2.156851  p :     6.475308
      px      :     2.126922
      py      :     2.191536
      dz2     :     1.980056  d :     9.900936
      dxz     :     1.982556
      dyz     :     1.970448
      dx2y2   :     1.980983
      dxy     :     1.986893
      f0      :     0.000792  f :     0.005591
      f+1     :     0.000640
      f-1     :     0.001125
      f+2     :     0.000780
      f-2     :     0.000714
      f+3     :     0.000745
      f-3     :     0.000795
 12 Aus       :     2.541684  s :     2.541684
      pz      :     2.168863  p :     6.530169
      px      :     2.180964
      py      :     2.180342
      dz2     :     1.987802  d :     9.876055
      dxz     :     1.954044
      dyz     :     1.984034
      dx2y2   :     1.981139
      dxy     :     1.969036
      f0      :     0.000944  f :     0.006668
      f+1     :     0.000915
      f-1     :     0.001075
      f+2     :     0.000858
      f-2     :     0.001005
      f+3     :     0.001035
      f-3     :     0.000836
 13 Aus       :     2.559400  s :     2.559400
      pz      :     2.180420  p :     6.528690
      px      :     2.166239
      py      :     2.182030
      dz2     :     1.977490  d :     9.888985
      dxz     :     1.979063
      dyz     :     1.953021
      dx2y2   :     1.995592
      dxy     :     1.983820
      f0      :     0.000793  f :     0.006383
      f+1     :     0.000904
      f-1     :     0.001206
      f+2     :     0.000848
      f-2     :     0.000926
      f+3     :     0.000925
      f-3     :     0.000780
 14 Aus       :     2.529177  s :     2.529177
      pz      :     2.160480  p :     6.530815
      px      :     2.229565
      py      :     2.140770
      dz2     :     1.980578  d :     9.879381
      dxz     :     1.977845
      dyz     :     1.952053
      dx2y2   :     1.980236
      dxy     :     1.988669
      f0      :     0.000693  f :     0.006166
      f+1     :     0.001036
      f-1     :     0.000761
      f+2     :     0.000926
      f-2     :     0.000909
      f+3     :     0.001042
      f-3     :     0.000800
 15 Aus       :     2.605111  s :     2.605111
      pz      :     2.183512  p :     6.447802
      px      :     2.099470
      py      :     2.164820
      dz2     :     1.964392  d :     9.861446
      dxz     :     1.990847
      dyz     :     1.965586
      dx2y2   :     1.965809
      dxy     :     1.974812
      f0      :     0.000632  f :     0.005404
      f+1     :     0.000854
      f-1     :     0.000792
      f+2     :     0.000828
      f-2     :     0.000849
      f+3     :     0.000716
      f-3     :     0.000733
 16 Fes       :     6.252649  s :     6.252649
      pz      :     4.162190  p :    12.510014
      px      :     4.170200
      py      :     4.177624
      dz2     :     1.477221  d :     7.749146
      dxz     :     1.476108
      dyz     :     1.673890
      dx2y2   :     1.383224
      dxy     :     1.738703
      f0      :     0.000057  f :     0.000505
      f+1     :     0.000065
      f-1     :     0.000104
      f+2     :     0.000064
      f-2     :     0.000075
      f+3     :     0.000074
      f-3     :     0.000067

SPIN
  0 Aus       :    -0.012849  s :    -0.012849
      pz      :    -0.011999  p :    -0.014952
      px      :    -0.003671
      py      :     0.000719
      dz2     :    -0.003381  d :    -0.008160
      dxz     :    -0.004428
      dyz     :    -0.000039
      dx2y2   :     0.000615
      dxy     :    -0.000927
      f0      :     0.000000  f :    -0.000049
      f+1     :    -0.000017
      f-1     :    -0.000001
      f+2     :    -0.000016
      f-2     :    -0.000010
      f+3     :    -0.000002
      f-3     :    -0.000003
  1 Aus       :    -0.011070  s :    -0.011070
      pz      :    -0.009705  p :    -0.014830
      px      :    -0.007137
      py      :     0.002013
      dz2     :     0.003084  d :     0.011314
      dxz     :     0.000707
      dyz     :     0.002092
      dx2y2   :     0.004294
      dxy     :     0.001137
      f0      :    -0.000029  f :     0.000084
      f+1     :     0.000005
      f-1     :     0.000005
      f+2     :     0.000027
      f-2     :     0.000016
      f+3     :     0.000025
      f-3     :     0.000035
  2 Aus       :    -0.014774  s :    -0.014774
      pz      :     0.002074  p :     0.003187
      px      :     0.004906
      py      :    -0.003794
      dz2     :     0.004336  d :    -0.002011
      dxz     :     0.001856
      dyz     :    -0.013520
      dx2y2   :     0.006160
      dxy     :    -0.000842
      f0      :    -0.000005  f :     0.000072
      f+1     :     0.000042
      f-1     :     0.000002
      f+2     :     0.000010
      f-2     :    -0.000021
      f+3     :     0.000046
      f-3     :    -0.000001
  3 Aus       :     0.002228  s :     0.002228
      pz      :    -0.000158  p :    -0.010083
      px      :    -0.010258
      py      :     0.000334
      dz2     :    -0.001419  d :     0.010859
      dxz     :     0.005091
      dyz     :     0.003019
      dx2y2   :    -0.000921
      dxy     :     0.005088
      f0      :     0.000030  f :     0.000134
      f+1     :     0.000014
      f-1     :    -0.000012
      f+2     :     0.000010
      f-2     :     0.000084
      f+3     :     0.000013
      f-3     :    -0.000004
  4 Aus       :    -0.006604  s :    -0.006604
      pz      :    -0.000659  p :    -0.019582
      px      :    -0.006719
      py      :    -0.012205
      dz2     :     0.000477  d :     0.002067
      dxz     :    -0.000637
      dyz     :     0.002094
      dx2y2   :     0.000259
      dxy     :    -0.000126
      f0      :    -0.000010  f :     0.000003
      f+1     :    -0.000001
      f-1     :     0.000019
      f+2     :    -0.000003
      f-2     :     0.000008
      f+3     :     0.000003
      f-3     :    -0.000013
  5 Aus       :    -0.028039  s :    -0.028039
      pz      :    -0.004148  p :    -0.024341
      px      :    -0.002238
      py      :    -0.017955
      dz2     :    -0.002225  d :    -0.016444
      dxz     :     0.000158
      dyz     :    -0.008104
      dx2y2   :    -0.005232
      dxy     :    -0.001042
      f0      :    -0.000001  f :    -0.000030
      f+1     :    -0.000006
      f-1     :    -0.000007
      f+2     :    -0.000003
      f-2     :    -0.000004
      f+3     :    -0.000008
      f-3     :    -0.000001
  6 Aus       :    -0.006259  s :    -0.006259
      pz      :    -0.033841  p :    -0.032719
      px      :    -0.000118
      py      :     0.001240
      dz2     :    -0.002582  d :    -0.014531
      dxz     :     0.000334
      dyz     :    -0.012264
      dx2y2   :     0.001034
      dxy     :    -0.001053
      f0      :    -0.000007  f :    -0.000030
      f+1     :    -0.000003
      f-1     :    -0.000000
      f+2     :    -0.000016
      f-2     :    -0.000001
      f+3     :    -0.000006
      f-3     :     0.000002
  7 Aus       :    -0.010805  s :    -0.010805
      pz      :    -0.017792  p :    -0.014863
      px      :     0.000943
      py      :     0.001986
      dz2     :     0.001335  d :     0.011193
      dxz     :    -0.002109
      dyz     :     0.001114
      dx2y2   :     0.003929
      dxy     :     0.006924
      f0      :    -0.000019  f :     0.000084
      f+1     :     0.000016
      f-1     :    -0.000009
      f+2     :    -0.000013
      f-2     :    -0.000009
      f+3     :     0.000062
      f-3     :     0.000056
  8 Aus       :    -0.036217  s :    -0.036217
      pz      :    -0.009150  p :    -0.016906
      px      :    -0.001577
      py      :    -0.006179
      dz2     :    -0.010396  d :    -0.021363
      dxz     :    -0.004032
      dyz     :     0.005272
      dx2y2   :     0.001763
      dxy     :    -0.013969
      f0      :     0.000035  f :     0.000091
      f+1     :    -0.000025
      f-1     :     0.000058
      f+2     :     0.000028
      f-2     :     0.000011
      f+3     :    -0.000007
      f-3     :    -0.000010
  9 Aus       :    -0.027232  s :    -0.027232
      pz      :    -0.004279  p :    -0.024649
      px      :    -0.002846
      py      :    -0.017524
      dz2     :    -0.002981  d :    -0.016773
      dxz     :    -0.001572
      dyz     :    -0.010757
      dx2y2   :     0.000565
      dxy     :    -0.002029
      f0      :    -0.000001  f :    -0.000030
      f+1     :    -0.000003
      f-1     :    -0.000005
      f+2     :    -0.000003
      f-2     :    -0.000009
      f+3     :    -0.000004
      f-3     :    -0.000005
 10 Aus       :    -0.015719  s :    -0.015719
      pz      :     0.005206  p :     0.003144
      px      :    -0.005251
      py      :     0.003189
      dz2     :    -0.001786  d :    -0.001461
      dxz     :     0.001185
      dyz     :     0.004725
      dx2y2   :    -0.005220
      dxy     :    -0.000365
      f0      :     0.000015  f :     0.000073
      f+1     :    -0.000004
      f-1     :     0.000053
      f+2     :     0.000010
      f-2     :    -0.000011
      f+3     :     0.000002
      f-3     :     0.000008
 11 Aus       :    -0.012986  s :    -0.012986
      pz      :    -0.006108  p :    -0.014867
      px      :    -0.002345
      py      :    -0.006414
      dz2     :     0.000768  d :    -0.008102
      dxz     :    -0.000790
      dyz     :    -0.004410
      dx2y2   :    -0.000165
      dxy     :    -0.003505
      f0      :    -0.000010  f :    -0.000049
      f+1     :    -0.000002
      f-1     :    -0.000013
      f+2     :    -0.000007
      f-2     :    -0.000008
      f+3     :    -0.000000
      f-3     :    -0.000008
 12 Aus       :    -0.006336  s :    -0.006336
      pz      :     0.003430  p :    -0.019617
      px      :    -0.003155
      py      :    -0.019891
      dz2     :    -0.000276  d :     0.001634
      dxz     :     0.007533
      dyz     :    -0.001340
      dx2y2   :    -0.000152
      dxy     :    -0.004131
      f0      :    -0.000023  f :     0.000003
      f+1     :     0.000030
      f-1     :     0.000005
      f+2     :     0.000021
      f-2     :    -0.000021
      f+3     :    -0.000005
      f-3     :    -0.000004
 13 Aus       :    -0.006753  s :    -0.006753
      pz      :    -0.034562  p :    -0.032294
      px      :     0.000686
      py      :     0.001582
      dz2     :    -0.005420  d :    -0.014187
      dxz     :    -0.000524
      dyz     :    -0.007327
      dx2y2   :    -0.001250
      dxy     :     0.000335
      f0      :     0.000003  f :    -0.000030
      f+1     :    -0.000011
      f-1     :    -0.000014
      f+2     :    -0.000008
      f-2     :     0.000005
      f+3     :    -0.000008
      f-3     :     0.000002
 14 Aus       :    -0.036132  s :    -0.036132
      pz      :    -0.010483  p :    -0.016750
      px      :    -0.001541
      py      :    -0.004726
      dz2     :     0.007915  d :    -0.021275
      dxz     :    -0.009593
      dyz     :    -0.011134
      dx2y2   :    -0.008896
      dxy     :     0.000434
      f0      :     0.000034  f :     0.000092
      f+1     :    -0.000012
      f-1     :     0.000069
      f+2     :    -0.000004
      f-2     :    -0.000006
      f+3     :     0.000008
      f-3     :     0.000003
 15 Aus       :     0.001922  s :     0.001922
      pz      :    -0.005419  p :    -0.009913
      px      :     0.004209
      py      :    -0.008704
      dz2     :     0.002744  d :     0.010717
      dxz     :    -0.001783
      dyz     :    -0.001047
      dx2y2   :     0.004778
      dxy     :     0.006024
      f0      :    -0.000000  f :     0.000133
      f+1     :     0.000054
      f-1     :    -0.000002
      f+2     :    -0.000015
      f-2     :     0.000009
      f+3     :     0.000019
      f-3     :     0.000068
 16 Fes       :     0.010033  s :     0.010033
      pz      :     0.007539  p :     0.016895
      px      :     0.003535
      py      :     0.005821
      dz2     :     0.586823  d :     2.536704
      dxz     :     0.615735
      dyz     :     0.198874
      dx2y2   :     0.787950
      dxy     :     0.347322
      f0      :     0.000004  f :     0.000000
      f+1     :     0.000003
      f-1     :    -0.000008
      f+2     :    -0.000003
      f-2     :     0.000002
      f+3     :    -0.000001
      f-3     :     0.000004


                      *****************************
                      * MAYER POPULATION ANALYSIS *
                      *****************************

  NA   - Mulliken gross atomic population
  ZA   - Total nuclear charge
  QA   - Mulliken gross atomic charge
  VA   - Mayer's total valence
  BVA  - Mayer's bonded valence
  FA   - Mayer's free valence

  ATOM       NA         ZA         QA         VA         BVA        FA
  0 Au    18.7554    19.0000     0.2446     1.7017     1.7004     0.0013
  1 Au    18.7774    19.0000     0.2226     1.7334     1.7326     0.0008
  2 Au    19.5224    19.0000    -0.5224     2.4146     2.4093     0.0052
  3 Au    18.6745    19.0000     0.3255     1.5695     1.5676     0.0019
  4 Au    18.7419    19.0000     0.2581     1.7612     1.7594     0.0018
  5 Au    18.7831    19.0000     0.2169     1.7102     1.7017     0.0085
  6 Au    18.8114    19.0000     0.1886     1.7712     1.7694     0.0018
  7 Au    18.7794    19.0000     0.2206     1.7349     1.7341     0.0007
  8 Au    18.8236    19.0000     0.1764     1.7622     1.7525     0.0098
  9 Au    18.7799    19.0000     0.2201     1.7083     1.7000     0.0083
 10 Au    19.5331    19.0000    -0.5331     2.4277     2.4222     0.0054
 11 Au    18.7558    19.0000     0.2442     1.7018     1.7004     0.0013
 12 Au    18.7420    19.0000     0.2580     1.7612     1.7594     0.0018
 13 Au    18.8171    19.0000     0.1829     1.7757     1.7739     0.0018
 14 Au    18.8257    19.0000     0.1743     1.7649     1.7552     0.0097
 15 Au    18.6739    19.0000     0.3261     1.5699     1.5680     0.0019
 16 Fe    28.2031    26.0000    -2.2031     7.1872     4.7808     2.4065

  Mayer bond orders larger than 0.100000
B(  0-Au,  2-Au) :   0.2171 B(  0-Au,  5-Au) :   0.2424 B(  0-Au,  6-Au) :   0.2406 
B(  0-Au, 10-Au) :   0.3321 B(  0-Au, 11-Au) :   0.3541 B(  1-Au,  2-Au) :   0.1307 
B(  1-Au,  3-Au) :   0.1927 B(  1-Au,  4-Au) :   0.2250 B(  1-Au, 13-Au) :   0.2700 
B(  1-Au, 14-Au) :   0.2023 B(  1-Au, 16-Fe) :   0.4458 B(  2-Au,  4-Au) :   0.2972 
B(  2-Au,  5-Au) :   0.3952 B(  2-Au, 10-Au) :   0.1235 B(  2-Au, 11-Au) :   0.3297 
B(  2-Au, 13-Au) :   0.3947 B(  2-Au, 16-Fe) :   0.3927 B(  3-Au,  4-Au) :   0.2104 
B(  3-Au,  8-Au) :   0.1790 B(  3-Au, 15-Au) :   0.2428 B(  3-Au, 16-Fe) :   0.4088 
B(  4-Au,  5-Au) :   0.3044 B(  4-Au,  8-Au) :   0.2092 B(  4-Au, 16-Fe) :   0.2887 
B(  5-Au,  6-Au) :   0.2433 B(  5-Au,  8-Au) :   0.1727 B(  5-Au, 16-Fe) :   0.1233 
B(  6-Au,  7-Au) :   0.2690 B(  6-Au,  8-Au) :   0.2155 B(  6-Au, 10-Au) :   0.3961 
B(  6-Au, 16-Fe) :   0.1746 B(  7-Au,  8-Au) :   0.2019 B(  7-Au, 10-Au) :   0.1325 
B(  7-Au, 12-Au) :   0.2245 B(  7-Au, 15-Au) :   0.1941 B(  7-Au, 16-Fe) :   0.4459 
B(  8-Au, 16-Fe) :   0.4933 B(  9-Au, 10-Au) :   0.3983 B(  9-Au, 11-Au) :   0.2419 
B(  9-Au, 12-Au) :   0.3042 B(  9-Au, 13-Au) :   0.2438 B(  9-Au, 14-Au) :   0.1702 
B(  9-Au, 16-Fe) :   0.1214 B( 10-Au, 11-Au) :   0.2195 B( 10-Au, 12-Au) :   0.2989 
B( 10-Au, 16-Fe) :   0.3923 B( 11-Au, 13-Au) :   0.2413 B( 12-Au, 14-Au) :   0.2111 
B( 12-Au, 15-Au) :   0.2106 B( 12-Au, 16-Fe) :   0.2856 B( 13-Au, 14-Au) :   0.2166 
B( 13-Au, 16-Fe) :   0.1761 B( 14-Au, 15-Au) :   0.1811 B( 14-Au, 16-Fe) :   0.4926 
B( 15-Au, 16-Fe) :   0.4061 

-------
TIMINGS
-------

Total SCF time: 0 days 0 hours 5 min 34 sec 

Total time                  ....     334.429 sec
Sum of individual times     ....     330.636 sec  ( 98.9%)

Fock matrix formation       ....     293.954 sec  ( 87.9%)
  Split-RI-J                ....      94.422 sec  ( 32.1% of F)
  XC integration            ....     195.748 sec  ( 66.6% of F)
    Basis function eval.    ....      23.429 sec  ( 12.0% of XC)
    Density eval.           ....     103.148 sec  ( 52.7% of XC)
    XC-Functional eval.     ....       3.378 sec  (  1.7% of XC)
    XC-Potential eval.      ....      60.825 sec  ( 31.1% of XC)
Diagonalization             ....      23.136 sec  (  6.9%)
Density matrix formation    ....       1.355 sec  (  0.4%)
Population analysis         ....       0.198 sec  (  0.1%)
Initial guess               ....       0.290 sec  (  0.1%)
Orbital Transformation      ....       0.000 sec  (  0.0%)
Orbital Orthonormalization  ....       0.248 sec  (  0.1%)
DIIS solution               ....      10.234 sec  (  3.1%)
Grid generation             ....       1.470 sec  (  0.4%)

Maximum memory used throughout the entire SCF-calculation: 121.6 MB

-------------------------   --------------------
FINAL SINGLE POINT ENERGY     -3436.730660989906
-------------------------   --------------------


                            ***************************************
                            *     ORCA property calculations      *
                            ***************************************

                                    ---------------------
                                    Active property flags
                                    ---------------------
   (+) Dipole Moment


------------------------------------------------------------------------------
                       ORCA ELECTRIC PROPERTIES CALCULATION
------------------------------------------------------------------------------

Dipole Moment Calculation                       ... on
Quadrupole Moment Calculation                   ... off
Polarizability Calculation                      ... off
GBWName                                         ... pbeSP_job2.gbw
Electron density                                ... pbeSP_job2.scfp
The origin for moment calculation is the CENTER OF MASS  = (13.473377, 15.428160 12.344673)

-------------
DIPOLE MOMENT
-------------
                                X             Y             Z
Electronic contribution:     22.86647      16.50003      -8.58011
Nuclear contribution   :    -23.21146     -16.74584       8.70709
                        -----------------------------------------
Total Dipole Moment    :     -0.34499      -0.24581       0.12698
                        -----------------------------------------
Magnitude (a.u.)       :      0.44222
Magnitude (Debye)      :      1.12404



--------------------
Rotational spectrum 
--------------------
 
Rotational constants in cm-1:     0.000887     0.000873     0.000760 
Rotational constants in MHz :    26.595397    26.169594    22.780533 

 Dipole components along the rotational axes: 
x,y,z [a.u.] :    -0.442219    -0.000247    -0.002100 
x,y,z [Debye]:    -1.124032    -0.000629    -0.005337 

 

Timings for individual modules:

Sum of individual times         ...      347.173 sec (=   5.786 min)
GTO integral calculation        ...       12.605 sec (=   0.210 min)   3.6 %
SCF iterations                  ...      334.568 sec (=   5.576 min)  96.4 %



                             ****ORCA TERMINATED NORMALLY****
TOTAL RUN TIME: 0 days 0 hours 9 minutes 53 seconds 612 msec
