
                                 *****************
                                 * O   R   C   A *
                                 *****************

                                            #,                                       
                                            ###                                      
                                            ####                                     
                                            #####                                    
                                            ######                                   
                                           ########,                                 
                                     ,,################,,,,,                         
                               ,,#################################,,                 
                          ,,##########################################,,             
                       ,#########################################, ''#####,          
                    ,#############################################,,   '####,        
                  ,##################################################,,,,####,       
                ,###########''''           ''''###############################       
              ,#####''   ,,,,##########,,,,          '''####'''          '####       
            ,##' ,,,,###########################,,,                        '##       
           ' ,,###''''                  '''############,,,                           
         ,,##''                                '''############,,,,        ,,,,,,###''
      ,#''                                            '''#######################'''  
     '                                                          ''''####''''         
             ,#######,   #######,   ,#######,      ##                                
            ,#'     '#,  ##    ##  ,#'     '#,    #''#        ######   ,####,        
            ##       ##  ##   ,#'  ##            #'  '#       #        #'  '#        
            ##       ##  #######   ##           ,######,      #####,   #    #        
            '#,     ,#'  ##    ##  '#,     ,#' ,#      #,         ##   #,  ,#        
             '#######'   ##     ##  '#######'  #'      '#     #####' # '####'        



                  #######################################################
                  #                        -***-                        #
                  #          Department of theory and spectroscopy      #
                  #    Directorship and core code : Frank Neese         #
                  #        Max Planck Institute fuer Kohlenforschung    #
                  #                Kaiser Wilhelm Platz 1               #
                  #                 D-45470 Muelheim/Ruhr               #
                  #                      Germany                        #
                  #                                                     #
                  #                  All rights reserved                #
                  #                        -***-                        #
                  #######################################################


                         Program Version 5.0.3 -  RELEASE  -


 With contributions from (in alphabetic order):
   Daniel Aravena         : Magnetic Suceptibility
   Michael Atanasov       : Ab Initio Ligand Field Theory (pilot matlab implementation)
   Alexander A. Auer      : GIAO ZORA, VPT2 properties, NMR spectrum
   Ute Becker             : Parallelization
   Giovanni Bistoni       : ED, misc. LED, open-shell LED, HFLD
   Martin Brehm           : Molecular dynamics
   Dmytro Bykov           : SCF Hessian
   Vijay G. Chilkuri      : MRCI spin determinant printing, contributions to CSF-ICE
   Dipayan Datta          : RHF DLPNO-CCSD density
   Achintya Kumar Dutta   : EOM-CC, STEOM-CC
   Dmitry Ganyushin       : Spin-Orbit,Spin-Spin,Magnetic field MRCI
   Miquel Garcia          : C-PCM and meta-GGA Hessian, CC/C-PCM, Gaussian charge scheme
   Yang Guo               : DLPNO-NEVPT2, F12-NEVPT2, CIM, IAO-localization
   Andreas Hansen         : Spin unrestricted coupled pair/coupled cluster methods
   Benjamin Helmich-Paris : MC-RPA, TRAH-SCF, COSX integrals
   Lee Huntington         : MR-EOM, pCC
   Robert Izsak           : Overlap fitted RIJCOSX, COSX-SCS-MP3, EOM
   Marcus Kettner         : VPT2
   Christian Kollmar      : KDIIS, OOCD, Brueckner-CCSD(T), CCSD density, CASPT2, CASPT2-K
   Simone Kossmann        : Meta GGA functionals, TD-DFT gradient, OOMP2, MP2 Hessian
   Martin Krupicka        : Initial AUTO-CI
   Lucas Lang             : DCDCAS
   Marvin Lechner         : AUTO-CI (C++ implementation), FIC-MRCC
   Dagmar Lenk            : GEPOL surface, SMD
   Dimitrios Liakos       : Extrapolation schemes; Compound Job, initial MDCI parallelization
   Dimitrios Manganas     : Further ROCIS development; embedding schemes
   Dimitrios Pantazis     : SARC Basis sets
   Anastasios Papadopoulos: AUTO-CI, single reference methods and gradients
   Taras Petrenko         : DFT Hessian,TD-DFT gradient, ASA, ECA, R-Raman, ABS, FL, XAS/XES, NRVS
   Peter Pinski           : DLPNO-MP2, DLPNO-MP2 Gradient
   Christoph Reimann      : Effective Core Potentials
   Marius Retegan         : Local ZFS, SOC
   Christoph Riplinger    : Optimizer, TS searches, QM/MM, DLPNO-CCSD(T), (RO)-DLPNO pert. Triples
   Tobias Risthaus        : Range-separated hybrids, TD-DFT gradient, RPA, STAB
   Michael Roemelt        : Original ROCIS implementation
   Masaaki Saitow         : Open-shell DLPNO-CCSD energy and density
   Barbara Sandhoefer     : DKH picture change effects
   Avijit Sen             : IP-ROCIS
   Kantharuban Sivalingam : CASSCF convergence, NEVPT2, FIC-MRCI
   Bernardo de Souza      : ESD, SOC TD-DFT
   Georgi Stoychev        : AutoAux, RI-MP2 NMR, DLPNO-MP2 response
   Willem Van den Heuvel  : Paramagnetic NMR
   Boris Wezisla          : Elementary symmetry handling
   Frank Wennmohs         : Technical directorship


 We gratefully acknowledge several colleagues who have allowed us to
 interface, adapt or use parts of their codes:
   Stefan Grimme, W. Hujo, H. Kruse, P. Pracht,  : VdW corrections, initial TS optimization,
                  C. Bannwarth, S. Ehlert          DFT functionals, gCP, sTDA/sTD-DF
   Ed Valeev, F. Pavosevic, A. Kumar             : LibInt (2-el integral package), F12 methods
   Garnet Chan, S. Sharma, J. Yang, R. Olivares  : DMRG
   Ulf Ekstrom                                   : XCFun DFT Library
   Mihaly Kallay                                 : mrcc  (arbitrary order and MRCC methods)
   Jiri Pittner, Ondrej Demel                    : Mk-CCSD
   Frank Weinhold                                : gennbo (NPA and NBO analysis)
   Christopher J. Cramer and Donald G. Truhlar   : smd solvation model
   Lars Goerigk                                  : TD-DFT with DH, B97 family of functionals
   V. Asgeirsson, H. Jonsson                     : NEB implementation
   FAccTs GmbH                                   : IRC, NEB, NEB-TS, DLPNO-Multilevel, CI-OPT
                                                   MM, QMMM, 2- and 3-layer-ONIOM, Crystal-QMMM,
                                                   LR-CPCM, SF, NACMEs, symmetry and pop. for TD-DFT,
                                                   nearIR, NL-DFT gradient (VV10), updates on ESD,
                                                   ML-optimized integration grids
   S Lehtola, MJT Oliveira, MAL Marques          : LibXC Library
   Liviu Ungur et al                             : ANISO software


 Your calculation uses the libint2 library for the computation of 2-el integrals
 For citations please refer to: http://libint.valeyev.net

 Your ORCA version has been built with support for libXC version: 5.1.0
 For citations please refer to: https://tddft.org/programs/libxc/

 This ORCA versions uses:
   CBLAS   interface :  Fast vector & matrix operations
   LAPACKE interface :  Fast linear algebra routines
   SCALAPACK package :  Parallel linear algebra routines
   Shared memory     :  Shared parallel matrices
   BLAS/LAPACK       :  OpenBLAS 0.3.15  USE64BITINT DYNAMIC_ARCH NO_AFFINITY Haswell SINGLE_THREADED
        Core in use  :  Haswell
   Copyright (c) 2011-2014, The OpenBLAS Project




***************************************
The coordinates will be read from file: pbe.xyz
***************************************


================================================================================

cite the ECPs for Au [Def2-ECP] as follows:
Ce-Yb(ecp-28): M. Dolg, H. Stoll, H.Preuss, J. Chem. Phys., 1989, 90, 1730-1734.
Y-Cd(ecp-28), Hf-Hg(ecp-46): D. Andrae,U. Haeussermann, M. Dolg, H. Stoll, H. Preuss, Theor. Chim. Acta, 1990, 77, 123-141.
In-Sb(ecp-28), Tl-Bi(ecp-46): B. Metz, H. Stoll, M. Dolg, J. Chem. Phys., 2000, 113, 2563-2569.
Te-Xe(ecp-28), Po-Rn(ecp-46): K. A. Peterson, D. Figgen, E. Goll, H. Stoll, M. Dolg, J. Chem. Phys., 2003, 119, 11113-11123.
Rb(ecp-28), Cs(ecp-46): T. Leininger, A. Nicklass, W. Kuechle, H. Stoll, M. Dolg, A. Bergner, Chem. Phys. Lett., 1996, 255, 274-280.
Sr(ecp-28), Ba(ecp-46): M. Kaupp, P. V. Schleyer, H. Stoll and H. Preuss, J. Chem. Phys., 1991, 94, 1360-1366.
La(ecp-46): M. Dolg, H. Stoll, A. Savin, H. Preuss, Theor. Chim. Acta, 1989, 75, 173-194.
Lu(ecp-28): X. Cao, M. Dolg, J. Chem. Phys., 2001, 115, 7348-7355.

ECP parameters for Au [Def2-ECP] have been obtained from:
TURBOMOLE (7.0.2)

----- Orbital basis set information -----
Your calculation utilizes the basis: def2-TZVP
   F. Weigend and R. Ahlrichs, Phys. Chem. Chem. Phys. 7, 3297 (2005).

----- AuxJ basis set information -----
Your calculation utilizes the auxiliary basis: def2/J
   F. Weigend, Phys. Chem. Chem. Phys. 8, 1057 (2006).

================================================================================
                                        WARNINGS
                       Please study these warnings very carefully!
================================================================================

Using LibXC functional ID 497 : Re-regularized SCAN exchange by Furness et al
[ 1]  J. W. Furness, A. D. Kaplan, J. Ning, J. P. Perdew, and J. Sun, J. Phys. Chem. Lett. 11, 8208 (2020)
[ 2]  J. W. Furness, A. D. Kaplan, J. Ning, J. P. Perdew, and J. Sun, J. Phys. Chem. Lett. 11, 9248 (2020)
Using LibXC functional ID 498 : Re-regularized SCAN correlation by Furness et al
[ 1]  J. W. Furness, A. D. Kaplan, J. Ning, J. P. Perdew, and J. Sun, J. Phys. Chem. Lett. 11, 8208 (2020)
[ 2]  J. W. Furness, A. D. Kaplan, J. Ning, J. P. Perdew, and J. Sun, J. Phys. Chem. Lett. 11, 9248 (2020)
Using LibXC functional ID 497 : Re-regularized SCAN exchange by Furness et al
[ 1]  J. W. Furness, A. D. Kaplan, J. Ning, J. P. Perdew, and J. Sun, J. Phys. Chem. Lett. 11, 8208 (2020)
[ 2]  J. W. Furness, A. D. Kaplan, J. Ning, J. P. Perdew, and J. Sun, J. Phys. Chem. Lett. 11, 9248 (2020)
Using LibXC functional ID 498 : Re-regularized SCAN correlation by Furness et al
[ 1]  J. W. Furness, A. D. Kaplan, J. Ning, J. P. Perdew, and J. Sun, J. Phys. Chem. Lett. 11, 8208 (2020)
[ 2]  J. W. Furness, A. D. Kaplan, J. Ning, J. P. Perdew, and J. Sun, J. Phys. Chem. Lett. 11, 9248 (2020)

WARNING: your system is open-shell and RHF/RKS was chosen
  ===> : WILL SWITCH to UHF/UKS


INFO   : the flag for use of the SHARK integral package has been found!



***************************************
The coordinates will be read from file: pbe.xyz
***************************************


================================================================================

cite the ECPs for Au [Def2-ECP] as follows:
Ce-Yb(ecp-28): M. Dolg, H. Stoll, H.Preuss, J. Chem. Phys., 1989, 90, 1730-1734.
Y-Cd(ecp-28), Hf-Hg(ecp-46): D. Andrae,U. Haeussermann, M. Dolg, H. Stoll, H. Preuss, Theor. Chim. Acta, 1990, 77, 123-141.
In-Sb(ecp-28), Tl-Bi(ecp-46): B. Metz, H. Stoll, M. Dolg, J. Chem. Phys., 2000, 113, 2563-2569.
Te-Xe(ecp-28), Po-Rn(ecp-46): K. A. Peterson, D. Figgen, E. Goll, H. Stoll, M. Dolg, J. Chem. Phys., 2003, 119, 11113-11123.
Rb(ecp-28), Cs(ecp-46): T. Leininger, A. Nicklass, W. Kuechle, H. Stoll, M. Dolg, A. Bergner, Chem. Phys. Lett., 1996, 255, 274-280.
Sr(ecp-28), Ba(ecp-46): M. Kaupp, P. V. Schleyer, H. Stoll and H. Preuss, J. Chem. Phys., 1991, 94, 1360-1366.
La(ecp-46): M. Dolg, H. Stoll, A. Savin, H. Preuss, Theor. Chim. Acta, 1989, 75, 173-194.
Lu(ecp-28): X. Cao, M. Dolg, J. Chem. Phys., 2001, 115, 7348-7355.

ECP parameters for Au [Def2-ECP] have been obtained from:
TURBOMOLE (7.0.2)

----- Orbital basis set information -----
Your calculation utilizes the basis: def2-TZVP
   F. Weigend and R. Ahlrichs, Phys. Chem. Chem. Phys. 7, 3297 (2005).

----- AuxJ basis set information -----
Your calculation utilizes the auxiliary basis: def2/J
   F. Weigend, Phys. Chem. Chem. Phys. 8, 1057 (2006).

================================================================================
                                        WARNINGS
                       Please study these warnings very carefully!
================================================================================

Using LibXC functional ID 497 : Re-regularized SCAN exchange by Furness et al
[ 1]  J. W. Furness, A. D. Kaplan, J. Ning, J. P. Perdew, and J. Sun, J. Phys. Chem. Lett. 11, 8208 (2020)
[ 2]  J. W. Furness, A. D. Kaplan, J. Ning, J. P. Perdew, and J. Sun, J. Phys. Chem. Lett. 11, 9248 (2020)
Using LibXC functional ID 498 : Re-regularized SCAN correlation by Furness et al
[ 1]  J. W. Furness, A. D. Kaplan, J. Ning, J. P. Perdew, and J. Sun, J. Phys. Chem. Lett. 11, 8208 (2020)
[ 2]  J. W. Furness, A. D. Kaplan, J. Ning, J. P. Perdew, and J. Sun, J. Phys. Chem. Lett. 11, 9248 (2020)
Using LibXC functional ID 497 : Re-regularized SCAN exchange by Furness et al
[ 1]  J. W. Furness, A. D. Kaplan, J. Ning, J. P. Perdew, and J. Sun, J. Phys. Chem. Lett. 11, 8208 (2020)
[ 2]  J. W. Furness, A. D. Kaplan, J. Ning, J. P. Perdew, and J. Sun, J. Phys. Chem. Lett. 11, 9248 (2020)
Using LibXC functional ID 498 : Re-regularized SCAN correlation by Furness et al
[ 1]  J. W. Furness, A. D. Kaplan, J. Ning, J. P. Perdew, and J. Sun, J. Phys. Chem. Lett. 11, 8208 (2020)
[ 2]  J. W. Furness, A. D. Kaplan, J. Ning, J. P. Perdew, and J. Sun, J. Phys. Chem. Lett. 11, 9248 (2020)

INFO   : the flag for use of the SHARK integral package has been found!

================================================================================
                                       INPUT FILE
================================================================================
NAME = scan.inp
|  1> !R2SCAN def2-TZVP VERYSLOWCONV
|  2> 
|  3> %scf
|  4>   AutoTRAHIter 200
|  5>   maxiter 400
|  6> end
|  7> 
|  8> %pal nprocs 6 end 
|  9> 
| 10> *xyzfile 0 5 pbe.xyz
| 11> 
| 12> $new_job
| 13> 
| 14> !R2SCAN def2-TZVP VERYSLOWCONV
| 15> %scf
| 16>   AutoTRAHIter 200
| 17>   maxiter 400
| 18> end
| 19> 
| 20> 
| 21> %pal nprocs 6 end 
| 22> 
| 23> *xyzfile 0 3 pbe.xyz
| 24> 
| 25> 
| 26> 
| 27> 
| 28> 
| 29>                          ****END OF INPUT****
================================================================================


                 $$$$$$$$$$$$$$$$$$$$$$$$$$$$$$$$$$$$$$$$$$$$$$ 
                 $ THERE ARE  2 JOBS TO BE PROCESSED THIS RUN $
                 $$$$$$$$$$$$$$$$$$$$$$$$$$$$$$$$$$$$$$$$$$$$$$ 




                 $$$$$$$$$$$$$$$$  JOB NUMBER  1 $$$$$$$$$$$$$$


                       ****************************
                       * Single Point Calculation *
                       ****************************

---------------------------------
CARTESIAN COORDINATES (ANGSTROEM)
---------------------------------
  Au     9.333145   10.793707    6.673820
  Au     7.760018    5.334774    7.079859
  Au     9.353804    7.916528    7.103730
  Au     5.426843    5.984503    8.523179
  Au     7.907753    6.995478    9.313570
  Au     8.643207    9.630636    9.138655
  Au     6.714626   11.020732    7.653510
  Au     4.559524    9.594267    6.703135
  Au     5.758053    8.786962    9.081485
  Au     7.560189    8.097144    3.205483
  Au     7.126545   10.003007    5.144445
  Au     9.815626    9.050737    4.585557
  Au     5.035708    8.384437    4.234636
  Au     9.021185    6.374820    4.864934
  Au     6.242590    5.919735    4.821859
  Au     3.987018    6.862124    6.329075
  Fe     6.533906    7.734321    6.756053

----------------------------
CARTESIAN COORDINATES (A.U.)
----------------------------
  NO LB      ZA    FRAG     MASS         X           Y           Z
   0 Au   19.0000*   0   196.966   17.637089   20.397149   12.611693
   1 Au   19.0000*   0   196.966   14.664308   10.081263   13.378994
   2 Au   19.0000*   0   196.966   17.676128   14.960069   13.424105
   3 Au   19.0000*   0   196.966   10.255247   11.309073   16.106474
   4 Au   19.0000*   0   196.966   14.943488   13.219538   17.600097
   5 Au   19.0000*   0   196.966   16.333294   18.199264   17.269555
   6 Au   19.0000*   0   196.966   12.688805   20.826164   14.463038
   7 Au   19.0000*   0   196.966    8.616252   18.130537   12.667089
   8 Au   19.0000*   0   196.966   10.881143   16.604952   17.161519
   9 Au   19.0000*   0   196.966   14.286687   15.301384    6.057485
  10 Au   19.0000*   0   196.966   13.467218   18.902944    9.721593
  11 Au   19.0000*   0   196.966   18.548845   17.103415    8.665448
  12 Au   19.0000*   0   196.966    9.516108   15.844289    8.002302
  13 Au   19.0000*   0   196.966   17.047568   12.046664    9.193392
  14 Au   19.0000*   0   196.966   11.796785   11.186679    9.111993
  15 Au   19.0000*   0   196.966    7.534373   12.967535   11.960219
  16 Fe   26.0000    0    55.850   12.347293   14.615749   12.767091
* core charge reduced due to ECP

--------------------------------
INTERNAL COORDINATES (ANGSTROEM)
--------------------------------
 Au     0   0   0     0.000000000000     0.00000000     0.00000000
 Au     1   0   0     5.695571715729     0.00000000     0.00000000
 Au     1   2   0     2.909193782041    16.96598520     0.00000000
 Au     2   1   3     2.819401749962    92.53269212   133.42889979
 Au     2   1   3     2.787333785415    58.09191967    81.85195792
 Au     5   2   1     2.741449165045   122.39757039     0.49569551
 Au     6   5   2     2.803113151946   109.02094800    64.77373549
 Au     7   6   5     2.753630594160   117.67331555     0.22436675
 Au     8   7   6     2.782940979192    61.20072170    30.42166725
 Au     3   1   2     4.294881553003    79.70678635    50.85611503
 Au     7   6   5     2.738767530087   101.39803120   290.38402891
 Au     1   2   3     2.762529910607    59.82855271    82.52794717
 Au    10   3   1     2.741295321078    92.76497437   272.68804254
 Au     3   1   2     2.738559586459   115.79145679    67.93966258
 Au     2   1   3     2.782683574972    83.75887146   218.28050330
 Au     4   2   1     2.767201054018    95.61075339    77.15061821
 Fe     9   8   7     2.667888725218    59.65439810   267.40481223

---------------------------
INTERNAL COORDINATES (A.U.)
---------------------------
 Au     0   0   0     0.000000000000     0.00000000     0.00000000
 Au     1   0   0    10.763070718836     0.00000000     0.00000000
 Au     1   2   0     5.497579518565    16.96598520     0.00000000
 Au     2   1   3     5.327897168926    92.53269212   133.42889979
 Au     2   1   3     5.267297498260    58.09191967    81.85195792
 Au     5   2   1     5.180588132002   122.39757039     0.49569551
 Au     6   5   2     5.297116179571   109.02094800    64.77373549
 Au     7   6   5     5.203607696950   117.67331555     0.22436675
 Au     8   7   6     5.258996297540    61.20072170    30.42166725
 Au     3   1   2     8.116149912806    79.70678635    50.85611503
 Au     7   6   5     5.175520576340   101.39803120   290.38402891
 Au     1   2   3     5.220424967812    59.82855271    82.52794717
 Au    10   3   1     5.180297409037    92.76497437   272.68804254
 Au     3   1   2     5.175127619832   115.79145679    67.93966258
 Au     2   1   3     5.258509874058    83.75887146   218.28050330
 Au     4   2   1     5.229252149591    95.61075339    77.15061821
 Fe     9   8   7     5.041579046438    59.65439810   267.40481223

---------------------
BASIS SET INFORMATION
---------------------
There are 2 groups of distinct atoms

 Group   1 Type Au  : 8s7p6d1f contracted to 6s4p3d1f pattern {311111/4111/411/1}
 Group   2 Type Fe  : 17s11p7d1f contracted to 6s4p4d1f pattern {842111/6311/4111/1}

Atom   0Au   basis set group =>   1
Atom   1Au   basis set group =>   1
Atom   2Au   basis set group =>   1
Atom   3Au   basis set group =>   1
Atom   4Au   basis set group =>   1
Atom   5Au   basis set group =>   1
Atom   6Au   basis set group =>   1
Atom   7Au   basis set group =>   1
Atom   8Au   basis set group =>   1
Atom   9Au   basis set group =>   1
Atom  10Au   basis set group =>   1
Atom  11Au   basis set group =>   1
Atom  12Au   basis set group =>   1
Atom  13Au   basis set group =>   1
Atom  14Au   basis set group =>   1
Atom  15Au   basis set group =>   1
Atom  16Fe   basis set group =>   2
---------------------------------
AUXILIARY/J BASIS SET INFORMATION
---------------------------------
There are 2 groups of distinct atoms

 Group   1 Type Au  : 11s5p5d3f3g contracted to 8s5p5d2f3g pattern {41111111/11111/11111/21/111}
 Group   2 Type Fe  : 19s5p5d3f3g contracted to 8s5p5d2f3g pattern {121111111/11111/11111/21/111}

Atom   0Au   basis set group =>   1
Atom   1Au   basis set group =>   1
Atom   2Au   basis set group =>   1
Atom   3Au   basis set group =>   1
Atom   4Au   basis set group =>   1
Atom   5Au   basis set group =>   1
Atom   6Au   basis set group =>   1
Atom   7Au   basis set group =>   1
Atom   8Au   basis set group =>   1
Atom   9Au   basis set group =>   1
Atom  10Au   basis set group =>   1
Atom  11Au   basis set group =>   1
Atom  12Au   basis set group =>   1
Atom  13Au   basis set group =>   1
Atom  14Au   basis set group =>   1
Atom  15Au   basis set group =>   1
Atom  16Fe   basis set group =>   2
-------------------------
ECP PARAMETER INFORMATION
-------------------------

 Group 1, Type Au ECP Def2-ECP (replacing 60 core electrons, lmax=3)

Atom   0Au   ECP group =>   1
Atom   1Au   ECP group =>   1
Atom   2Au   ECP group =>   1
Atom   3Au   ECP group =>   1
Atom   4Au   ECP group =>   1
Atom   5Au   ECP group =>   1
Atom   6Au   ECP group =>   1
Atom   7Au   ECP group =>   1
Atom   8Au   ECP group =>   1
Atom   9Au   ECP group =>   1
Atom  10Au   ECP group =>   1
Atom  11Au   ECP group =>   1
Atom  12Au   ECP group =>   1
Atom  13Au   ECP group =>   1
Atom  14Au   ECP group =>   1
Atom  15Au   ECP group =>   1



           ************************************************************
           *        Program running with 6 parallel MPI-processes     *
           *              working on a common directory               *
           ************************************************************
------------------------------------------------------------------------------
                           ORCA GTO INTEGRAL CALCULATION
                           -- RI-GTO INTEGRALS CHOSEN --
------------------------------------------------------------------------------
------------------------------------------------------------------------------
                   ___                                                        
                  /   \      - P O W E R E D   B Y -                         
                 /     \                                                     
                 |  |  |   _    _      __       _____    __    __             
                 |  |  |  | |  | |    /  \     |  _  \  |  |  /  |          
                  \  \/   | |  | |   /    \    | | | |  |  | /  /          
                 / \  \   | |__| |  /  /\  \   | |_| |  |  |/  /          
                |  |  |   |  __  | /  /__\  \  |    /   |      \           
                |  |  |   | |  | | |   __   |  |    \   |  |\   \          
                \     /   | |  | | |  |  |  |  | |\  \  |  | \   \       
                 \___/    |_|  |_| |__|  |__|  |_| \__\ |__|  \__/        
                                                                              
                      - O R C A' S   B I G   F R I E N D -                    
                                      &                                       
                       - I N T E G R A L  F E E D E R -                       
                                                                              
 v1 FN, 2020, v2 2021                                                         
------------------------------------------------------------------------------


Reading SHARK input file scan.SHARKINP.tmp ... ok
----------------------
SHARK INTEGRAL PACKAGE
----------------------

Number of atoms                             ...     17
Number of basis functions                   ...    685
Number of shells                            ...    239
Maximum angular momentum                    ...      3
Integral batch strategy                     ... SHARK/LIBINT Hybrid
RI-J (if used) integral strategy            ... SPLIT-RIJ (Revised 2003 algorithm where possible)
Printlevel                                  ...      1
Contraction scheme used                     ... SEGMENTED contraction
Coulomb Range Separation                    ... NOT USED
Exchange Range Separation                   ... NOT USED
Finite Nucleus Model                        ... NOT USED
Auxiliary Coulomb fitting basis             ... AVAILABLE
   # of basis functions in Aux-J            ...   1513
   # of shells in Aux-J                     ...    391
   Maximum angular momentum in Aux-J        ...      4
Auxiliary J/K fitting basis                 ... NOT available
Auxiliary Correlation fitting basis         ... NOT available
Auxiliary 'external' fitting basis          ... NOT available
Integral threshold                          ...     1.000000e-10
Primitive cut-off                           ...     1.000000e-11
Primitive pair pre-selection threshold      ...     1.000000e-11

Calculating pre-screening integrals         ... done (  0.1 sec) Dimension = 239
Organizing shell pair data                  ... done (  0.3 sec)
Shell pair information
Total number of shell pairs                 ...     28680
Shell pairs after pre-screening             ...     22274
Total number of primitive shell pairs       ...     75765
Primitive shell pairs kept                  ...     42130
          la=0 lb=0:   3522 shell pairs
          la=1 lb=0:   5064 shell pairs
          la=1 lb=1:   1925 shell pairs
          la=2 lb=0:   4410 shell pairs
          la=2 lb=1:   3133 shell pairs
          la=2 lb=2:   1295 shell pairs
          la=3 lb=0:   1146 shell pairs
          la=3 lb=1:    876 shell pairs
          la=3 lb=2:    782 shell pairs
          la=3 lb=3:    121 shell pairs

Calculating one electron integrals          ... done (  0.0 sec)
Calculating ECP integrals                   ... done ( 11.6 sec)
Calculating RI/J V-Matrix + Cholesky decomp.... done (  0.1 sec)
Calculating Nuclear repulsion               ... done (  0.0 sec) ENN=   7116.156370953096 Eh

SHARK setup successfully completed in  12.5 seconds

Maximum memory used throughout the entire GTOINT-calculation: 41.0 MB


           ************************************************************
           *        Program running with 6 parallel MPI-processes     *
           *              working on a common directory               *
           ************************************************************
-------------------------------------------------------------------------------
                                 ORCA SCF
-------------------------------------------------------------------------------

------------
SCF SETTINGS
------------
Hamiltonian:
 Density Functional     Method          .... DFT(GTOs)
  Functional kind                       .... Exchange
  Functional name                       .... Re-regularized SCAN exchange by Furness et al
  Functional family                     .... MGGA
  Functional refs                              
    [ 0] J. W. Furness, A. D. Kaplan, J. Ning, J. P. Perdew, and J. Sun, J. Phys. Chem. Lett. 11, 8208 (2020)
    [ 1] J. W. Furness, A. D. Kaplan, J. Ning, J. P. Perdew, and J. Sun, J. Phys. Chem. Lett. 11, 9248 (2020)
  Functional external parameters         .... 8
 Parameter  0 :         c1 parameter
 Parameter  1 :         c2 parameter
 Parameter  2 :          d parameter
 Parameter  3 :         k1 parameter
 Parameter  4 :       taur parameter
 Parameter  5 :     alphar parameter
 Parameter  6 :        eta parameter
 Parameter  7 :        dp2 parameter
  Functional kind                       .... Correlation
  Functional name                       .... Re-regularized SCAN correlation by Furness et al
  Functional family                     .... MGGA
  Functional refs                              
    [ 0] J. W. Furness, A. D. Kaplan, J. Ning, J. P. Perdew, and J. Sun, J. Phys. Chem. Lett. 11, 8208 (2020)
    [ 1] J. W. Furness, A. D. Kaplan, J. Ning, J. P. Perdew, and J. Sun, J. Phys. Chem. Lett. 11, 9248 (2020)
  Functional external parameters         .... 0
 Gradients option       PostSCFGGA      .... off
   Density functional embedding theory  .... OFF
   NL short-range parameter             .... 12.300000
 RI-approximation to the Coulomb term is turned on
   Number of AuxJ basis functions       .... 1513


General Settings:
 Integral files         IntName         .... scan
 Hartree-Fock type      HFTyp           .... UHF
 Total Charge           Charge          ....    0
 Multiplicity           Mult            ....    5
 Number of Electrons    NEL             ....  330
 Basis Dimension        Dim             ....  685
 Nuclear Repulsion      ENuc            ....   7116.1563709531 Eh

Convergence Acceleration:
 DIIS                   CNVDIIS         .... on
   Start iteration      DIISMaxIt       ....     0
   Startup error        DIISStart       ....  0.200000
   # of expansion vecs  DIISMaxEq       ....     5
   Bias factor          DIISBfac        ....   1.050
   Max. coefficient     DIISMaxC        ....  10.000
 Trust-Rad. Augm. Hess. CNVTRAH         .... auto
   Auto Start mean grad. ratio tolernc. ....  1.125000
   Auto Start start iteration           ....   200
   Auto Start num. interpolation iter.  ....    10
   Max. Number of Micro iterations      ....    16
   Max. Number of Macro iterations      .... Maxiter - #DIIS iter
   Number of Davidson start vectors     ....     2
   Converg. threshold I  (grad. norm)   ....   5.000e-05
   Converg. threshold II (energy diff.) ....   1.000e-06
   Grad. Scal. Fac. for Micro threshold ....   0.100
   Minimum threshold for Micro iter.    ....   0.010
   NR start threshold (gradient norm)   ....   0.001
   Initial trust radius                 ....   0.400
   Minimum AH scaling param. (alpha)    ....   1.000
   Maximum AH scaling param. (alpha)    .... 1000.000
   Orbital update algorithm             .... Taylor
   White noise on init. David. guess    .... on
   Maximum white noise                  ....   0.010
   Quad. conv. algorithm                .... NR
 SOSCF                  CNVSOSCF        .... off
 Level Shifting         CNVShift        .... on
   Level shift para.    LevelShift      ....    0.2500
   Turn off err/grad.   ShiftErr        ....    0.0000
 Zerner damping         CNVZerner       .... off
 Static damping         CNVDamp         .... on
   Fraction old density DampFac         ....    0.9200
   Max. Damping (<1)    DampMax         ....    0.9800
   Min. Damping (>=0)   DampMin         ....    0.0000
   Turn off err/grad.   DampErr         ....    0.0030
 Fernandez-Rico         CNVRico         .... off

SCF Procedure:
 Maximum # iterations   MaxIter         ....   400
 SCF integral mode      SCFMode         .... Direct
   Integral package                     .... SHARK and LIBINT hybrid scheme
 Reset frequency        DirectResetFreq ....    20
 Integral Threshold     Thresh          ....  1.000e-10 Eh
 Primitive CutOff       TCut            ....  1.000e-11 Eh

Convergence Tolerance:
 Convergence Check Mode ConvCheckMode   .... Total+1el-Energy
 Convergence forced     ConvForced      .... 0
 Energy Change          TolE            ....  1.000e-06 Eh
 1-El. energy change                    ....  1.000e-03 Eh
 DIIS Error             TolErr          ....  1.000e-06


Diagonalization of the overlap matrix:
Smallest eigenvalue                        ... 3.644e-04
Time for diagonalization                   ...    0.097 sec
Threshold for overlap eigenvalues          ... 1.000e-08
Number of eigenvalues below threshold      ... 0
Time for construction of square roots      ...    0.039 sec
Total time needed                          ...    0.138 sec

Time for model grid setup =    0.466 sec

------------------------------
INITIAL GUESS: MODEL POTENTIAL
------------------------------
Loading Hartree-Fock densities                     ... done
  calling /media/Programs/ORCA501/orca scan_atom79.inp > scan_atom79.out in order to generate an atomic fitting density for atom 0 (Au with ECP) on-the-fly... 
    atom 0 (Au), assumed electronic state with S=2: 1s2 2s2 2p6 3s2 3p6 4s2 3d10 4p6 5s2 4d10 5p6 6s1 4f14 5d10           ... done
Calculating cut-offs                               ... done
Initializing the effective Hamiltonian             ... done
Setting up the integral package (SHARK)            ... done
Starting the Coulomb interaction                   ... done (   0.5 sec)
Reading the grid                                   ... done
Mapping shells                                     ... done
Starting the XC term evaluation                    ... done (   0.5 sec)
  promolecular density results
     # of electrons  =   1290.016223444
     EX              =  -5907.293262829
     EC              =    -78.692118461
     EX+EC           =  -5985.985381290
Transforming the Hamiltonian                       ... done (   0.0 sec)
Diagonalizing the Hamiltonian                      ... done (   0.1 sec)
Back transforming the eigenvectors                 ... done (   0.0 sec)
Now organizing SCF variables                       ... done
                      ------------------
                      INITIAL GUESS DONE (   2.1 sec)
                      ------------------
-------------------
DFT GRID GENERATION
-------------------

General Integration Accuracy     IntAcc      ... 4.388
Radial Grid Type                 RadialGrid  ... OptM3 with GC (2021)
Angular Grid (max. ang.)         AngularGrid ... 4 (Lebedev-302)
Angular grid pruning method      GridPruning ... 4 (adaptive)
Weight generation scheme         WeightScheme... Becke
Basis function cutoff            BFCut       ... 1.0000e-10
Integration weight cutoff        WCut        ... 1.0000e-14
Angular grids for H and He will be reduced by one unit
Partially contracted basis set               ... off
Rotationally invariant grid construction     ... off

Total number of grid points                  ...   186739
Total number of batches                      ...     2926
Average number of points per batch           ...       63
Average number of grid points per atom       ...    10985
Time for grid setup =    1.474 sec

--------------
SCF ITERATIONS
--------------
ITER       Energy         Delta-E        Max-DP      RMS-DP      [F,P]     Damp
               ***  Starting incremental Fock matrix formation  ***
  0  -3433.4071837753   0.000000000000 0.16908541  0.00081737  0.5664994 0.9200
  1  -3434.8280768318  -1.420893056561 0.15207073  0.00073002  0.3639113 0.9200
                               ***Turning on DIIS***
  2  -3435.6088229664  -0.780746134599 0.11971207  0.00058928  0.2516460 0.9200
  3  -3435.9593616992  -0.350538732783 0.07686163  0.00047291  0.2309129 0.9200
  4  -3436.0718579988  -0.112496299620 0.02662127  0.00032469  0.2119334 0.9200
  5  -3436.1265924759  -0.054734477046 0.04269520  0.00026650  0.1945003 0.9200
  6  -3436.2301564901  -0.103564014214 0.04920111  0.00024531  0.1786433 0.9200
  7  -3436.2926474035  -0.062490913389 0.04255836  0.00022137  0.1642549 0.9200
  8  -3436.3324571332  -0.039809729707 0.02851546  0.00020648  0.1511045 0.9200
  9  -3436.4144761978  -0.082019064623 0.02309749  0.00021809  0.1389626 0.9200
 10  -3436.4758014119  -0.061325214064 0.02282623  0.00017520  0.1277897 0.9200
 11  -3436.5249411893  -0.049139777484 0.03252508  0.00016967  0.1175228 0.9200
 12  -3436.5846236119  -0.059682422559 0.03142052  0.00016624  0.1080001 0.9200
 13  -3436.6301668519  -0.045543240034 0.02639611  0.00015070  0.0992724 0.9200
 14  -3436.6703819615  -0.040215109543 0.02098040  0.00014140  0.0912884 0.9200
 15  -3436.7181067318  -0.047724770332 0.01644843  0.00013676  0.0839321 0.9200
 16  -3436.7607744817  -0.042667749918 0.01770361  0.00012488  0.0771994 0.9200
 17  -3436.7986130839  -0.037838602213 0.01889217  0.00011752  0.0710148 0.9200
 18  -3436.8350914856  -0.036478401663 0.01837750  0.00011259  0.0652785 0.9200
 19  -3436.8673285681  -0.032237082506 0.01587015  0.00010413  0.0599944 0.9200
               *** Restarting incremental Fock matrix formation ***
                                   *** Resetting DIIS ***
 20  -3436.8982039066  -0.030875338458 0.01448761  0.00009803  0.0551753 0.9200
 21  -3436.9283081142  -0.030104207649 0.01335767  0.00009179  0.0507025 0.9200
 22  -3436.9564050024  -0.028096888218 0.01259528  0.00008557  0.0465990 0.9200
 23  -3436.9821540801  -0.025749077664 0.01371522  0.00008058  0.0428352 0.9200
 24  -3437.0058603192  -0.023706239079 0.01330775  0.00007608  0.0394021 0.9200
 25  -3437.0280595638  -0.022199244668 0.01164579  0.00007184  0.0362509 0.9200
 26  -3437.0489132745  -0.020853710651 0.01075347  0.00006761  0.0333445 0.9200
 27  -3437.0682418870  -0.019328612537 0.01036906  0.00006329  0.0306676 0.9200
 28  -3437.0860474532  -0.017805566174 0.00988884  0.00005910  0.0282051 0.9200
 29  -3437.1025128160  -0.016465362789 0.00912792  0.00005518  0.0259424 0.9200
 30  -3437.1178729485  -0.015360132498 0.00829853  0.00005160  0.0238637 0.9200
 31  -3437.1321695925  -0.014296644045 0.00770753  0.00004809  0.0219513 0.9200
 32  -3437.1453882799  -0.013218687386 0.00718869  0.00004472  0.0201909 0.9200
 33  -3437.1575862073  -0.012197927376 0.00671594  0.00004154  0.0185705 0.9200
 34  -3437.1688752934  -0.011289086099 0.00623074  0.00003861  0.0170808 0.9200
 35  -3437.1793573817  -0.010482088316 0.00578028  0.00003592  0.0157117 0.9200
 36  -3437.1890673307  -0.009709948969 0.00538547  0.00003334  0.0144533 0.9200
 37  -3437.1980330118  -0.008965681088 0.00498770  0.00003091  0.0132951 0.9200
 38  -3437.2063070271  -0.008274015310 0.00463002  0.00002866  0.0122286 0.9200
 39  -3437.2139572818  -0.007650254683 0.00378975  0.00002647  0.0112478 0.9200
               *** Restarting incremental Fock matrix formation ***
                                   *** Resetting DIIS ***
 40  -3437.2210382172  -0.007080935435 0.00330879  0.00002411  0.0103468 0.9200
 41  -3437.2275936313  -0.006555414074 0.00302899  0.00002208  0.0095118 0.9200
 42  -3437.2336343600  -0.006040728705 0.00304644  0.00002041  0.0087446 0.9200
 43  -3437.2391943326  -0.005559972589 0.00319486  0.00001903  0.0080402 0.9200
 44  -3437.2443199590  -0.005125626400 0.00306645  0.00001777  0.0073949 0.9200
 45  -3437.2490571247  -0.004737165779 0.00270643  0.00001658  0.0068034 0.9200
 46  -3437.2534370463  -0.004379921537 0.00250823  0.00001546  0.0062597 0.9200
 47  -3437.2574754979  -0.004038451633 0.00235149  0.00001438  0.0057586 0.9200
 48  -3437.2611941868  -0.003718688898 0.00218259  0.00001336  0.0052964 0.9200
 49  -3437.2646223031  -0.003428116270 0.00199277  0.00001239  0.0048711 0.9200
 50  -3437.2677879030  -0.003165599909 0.00182888  0.00001151  0.0044809 0.9200
 51  -3437.2707090882  -0.002921185222 0.00170968  0.00001069  0.0041224 0.9200
 52  -3437.2734004153  -0.002691327033 0.00158749  0.00000992  0.0037924 0.9200
 53  -3437.2758785249  -0.002478109673 0.00146678  0.00000919  0.0034882 0.9200
 54  -3437.2781625771  -0.002284052135 0.00135371  0.00000851  0.0032083 0.9200
 55  -3437.2802694436  -0.002106866583 0.01576382  0.00009871  0.0029513 0.0000
 56  -3437.3047332975  -0.024463853905 0.00191131  0.00001038  0.0012794 0.0000
 57  -3437.3046674854   0.000065812161 0.00047479  0.00000402  0.0024531 0.0000
 58  -3437.3047186450  -0.000051159565 0.00023575  0.00000233  0.0009759 0.0000
 59  -3437.3047397705  -0.000021125547 0.00249114  0.00000445  0.0004189 0.0000
               *** Restarting incremental Fock matrix formation ***
                                   *** Resetting DIIS ***
 60  -3437.3047507491  -0.000010978560 0.00054692  0.00000237  0.0001361 0.0000
 61  -3437.3047621720  -0.000011422936 0.00027501  0.00000130  0.0005219 0.0000
 62  -3437.3047650145  -0.000002842518 0.00010650  0.00000092  0.0002814 0.0000
 63  -3437.3047664627  -0.000001448193 0.00012290  0.00000082  0.0001889 0.0000
 64  -3437.3047671518  -0.000000689116 0.00019711  0.00000084  0.0001036 0.0000
 65  -3437.3047678011  -0.000000649244 0.00008068  0.00000067  0.0000510 0.0000
 66  -3437.3047681507  -0.000000349618 0.00008211  0.00000055  0.0000464 0.0000
 67  -3437.3047691945  -0.000001043792 0.00008713  0.00000057  0.0000455 0.0000
                 **** Energy Check signals convergence ****

               *****************************************************
               *                     SUCCESS                       *
               *           SCF CONVERGED AFTER  68 CYCLES          *
               *****************************************************


----------------
TOTAL SCF ENERGY
----------------

Total Energy       :        -3437.30476992 Eh          -93533.81796 eV

Components:
Nuclear Repulsion  :         7116.15637095 Eh          193640.45934 eV
Electronic Energy  :       -10553.46114087 Eh         -287174.27730 eV
One Electron Energy:       -19786.17405087 Eh         -538409.16812 eV
Two Electron Energy:         9232.71291000 Eh          251234.89082 eV

Virial components:
Potential Energy   :        -5433.02491117 Eh         -147840.12388 eV
Kinetic Energy     :         1995.72014125 Eh           54306.30592 eV
Virial Ratio       :            2.72233807


DFT components:
N(Alpha)           :      166.999932306824 electrons
N(Beta)            :      162.999929361754 electrons
N(Total)           :      329.999861668578 electrons
E(X)               :     -248.854525371271 Eh       
E(C)               :      -13.723046750928 Eh       
E(XC)              :     -262.577572122199 Eh       
DFET-embed. en.    :        0.000000000000 Eh       

---------------
SCF CONVERGENCE
---------------

  Last Energy change         ...   -7.2463e-07  Tolerance :   1.0000e-06
  Last MAX-Density change    ...    9.2981e-05  Tolerance :   1.0000e-05
  Last RMS-Density change    ...    6.0895e-07  Tolerance :   1.0000e-06
  Last DIIS Error            ...    4.4821e-05  Tolerance :   1.0000e-06

             **** THE GBW FILE WAS UPDATED (scan.gbw) ****
             **** DENSITY scan.scfp WAS UPDATED ****
             **** ENERGY FILE WAS UPDATED (scan.en.tmp) ****
----------------------
UHF SPIN CONTAMINATION
----------------------

Warning: in a DFT calculation there is little theoretical justification to 
         calculate <S**2> as in Hartree-Fock theory. We will do it anyways
         but you should keep in mind that the values have only limited relevance

Expectation value of <S**2>     :     6.057039
Ideal value S*(S+1) for S=2.0   :     6.000000
Deviation                       :     0.057039

             **** THE GBW FILE WAS UPDATED (scan.gbw) ****
             **** DENSITY scan.scfp WAS UPDATED ****
----------------
ORBITAL ENERGIES
----------------
                 SPIN UP ORBITALS
  NO   OCC          E(Eh)            E(eV) 
   0   1.0000    -255.650677     -6956.6086 
   1   1.0000     -29.948336      -814.9357 
   2   1.0000     -25.791183      -701.8138 
   3   1.0000     -25.776213      -701.4064 
   4   1.0000     -25.767448      -701.1679 
   5   1.0000      -4.128011      -112.3289 
   6   1.0000      -4.127918      -112.3264 
   7   1.0000      -4.127750      -112.3218 
   8   1.0000      -4.127516      -112.3154 
   9   1.0000      -4.126207      -112.2798 
  10   1.0000      -4.126165      -112.2787 
  11   1.0000      -4.124201      -112.2252 
  12   1.0000      -4.124071      -112.2217 
  13   1.0000      -4.119339      -112.0929 
  14   1.0000      -4.119279      -112.0913 
  15   1.0000      -4.118560      -112.0717 
  16   1.0000      -4.118397      -112.0673 
  17   1.0000      -4.113865      -111.9440 
  18   1.0000      -4.113845      -111.9434 
  19   1.0000      -4.113396      -111.9312 
  20   1.0000      -4.113235      -111.9268 
  21   1.0000      -3.531954       -96.1094 
  22   1.0000      -2.324333       -63.2483 
  23   1.0000      -2.316695       -63.0405 
  24   1.0000      -2.316496       -63.0351 
  25   1.0000      -2.316181       -63.0265 
  26   1.0000      -2.316007       -63.0217 
  27   1.0000      -2.315615       -63.0111 
  28   1.0000      -2.315166       -62.9989 
  29   1.0000      -2.314237       -62.9736 
  30   1.0000      -2.314144       -62.9711 
  31   1.0000      -2.313847       -62.9630 
  32   1.0000      -2.313755       -62.9605 
  33   1.0000      -2.312246       -62.9194 
  34   1.0000      -2.312187       -62.9178 
  35   1.0000      -2.312046       -62.9140 
  36   1.0000      -2.311947       -62.9113 
  37   1.0000      -2.310494       -62.8717 
  38   1.0000      -2.310356       -62.8680 
  39   1.0000      -2.310038       -62.8593 
  40   1.0000      -2.309699       -62.8501 
  41   1.0000      -2.309517       -62.8451 
  42   1.0000      -2.309382       -62.8415 
  43   1.0000      -2.308374       -62.8140 
  44   1.0000      -2.308280       -62.8115 
  45   1.0000      -2.307630       -62.7938 
  46   1.0000      -2.307537       -62.7913 
  47   1.0000      -2.307199       -62.7821 
  48   1.0000      -2.307153       -62.7808 
  49   1.0000      -2.306025       -62.7501 
  50   1.0000      -2.305478       -62.7353 
  51   1.0000      -2.305363       -62.7321 
  52   1.0000      -2.305189       -62.7274 
  53   1.0000      -2.305055       -62.7237 
  54   1.0000      -2.303490       -62.6812 
  55   1.0000      -2.302688       -62.6593 
  56   1.0000      -2.302339       -62.6498 
  57   1.0000      -2.301989       -62.6403 
  58   1.0000      -2.301791       -62.6349 
  59   1.0000      -2.301599       -62.6297 
  60   1.0000      -2.301336       -62.6225 
  61   1.0000      -2.301095       -62.6160 
  62   1.0000      -2.300338       -62.5954 
  63   1.0000      -2.299777       -62.5801 
  64   1.0000      -2.299025       -62.5596 
  65   1.0000      -2.298469       -62.5445 
  66   1.0000      -2.298390       -62.5424 
  67   1.0000      -2.296751       -62.4978 
  68   1.0000      -2.296621       -62.4942 
  69   1.0000      -2.296406       -62.4884 
  70   1.0000      -2.296145       -62.4813 
  71   1.0000      -2.292681       -62.3870 
  72   1.0000      -2.274205       -61.8843 
  73   1.0000      -0.443226       -12.0608 
  74   1.0000      -0.402868       -10.9626 
  75   1.0000      -0.401631       -10.9289 
  76   1.0000      -0.397101       -10.8057 
  77   1.0000      -0.396089       -10.7781 
  78   1.0000      -0.390239       -10.6190 
  79   1.0000      -0.388083       -10.5603 
  80   1.0000      -0.384366       -10.4591 
  81   1.0000      -0.381718       -10.3871 
  82   1.0000      -0.378087       -10.2883 
  83   1.0000      -0.374965       -10.2033 
  84   1.0000      -0.373799       -10.1716 
  85   1.0000      -0.371756       -10.1160 
  86   1.0000      -0.370864       -10.0917 
  87   1.0000      -0.370374       -10.0784 
  88   1.0000      -0.365326        -9.9410 
  89   1.0000      -0.365276        -9.9397 
  90   1.0000      -0.362512        -9.8645 
  91   1.0000      -0.362047        -9.8518 
  92   1.0000      -0.358842        -9.7646 
  93   1.0000      -0.358001        -9.7417 
  94   1.0000      -0.355925        -9.6852 
  95   1.0000      -0.354713        -9.6522 
  96   1.0000      -0.353476        -9.6186 
  97   1.0000      -0.350197        -9.5294 
  98   1.0000      -0.349645        -9.5143 
  99   1.0000      -0.348264        -9.4768 
 100   1.0000      -0.347476        -9.4553 
 101   1.0000      -0.344432        -9.3725 
 102   1.0000      -0.341120        -9.2823 
 103   1.0000      -0.339248        -9.2314 
 104   1.0000      -0.336443        -9.1551 
 105   1.0000      -0.335511        -9.1297 
 106   1.0000      -0.331525        -9.0213 
 107   1.0000      -0.328931        -8.9507 
 108   1.0000      -0.328283        -8.9330 
 109   1.0000      -0.326362        -8.8808 
 110   1.0000      -0.322629        -8.7792 
 111   1.0000      -0.320358        -8.7174 
 112   1.0000      -0.319075        -8.6825 
 113   1.0000      -0.317187        -8.6311 
 114   1.0000      -0.314527        -8.5587 
 115   1.0000      -0.309996        -8.4354 
 116   1.0000      -0.308865        -8.4046 
 117   1.0000      -0.305077        -8.3016 
 118   1.0000      -0.304952        -8.2982 
 119   1.0000      -0.303697        -8.2640 
 120   1.0000      -0.302062        -8.2195 
 121   1.0000      -0.300902        -8.1880 
 122   1.0000      -0.300706        -8.1826 
 123   1.0000      -0.297460        -8.0943 
 124   1.0000      -0.295037        -8.0284 
 125   1.0000      -0.291111        -7.9215 
 126   1.0000      -0.289406        -7.8751 
 127   1.0000      -0.287820        -7.8320 
 128   1.0000      -0.286698        -7.8014 
 129   1.0000      -0.285480        -7.7683 
 130   1.0000      -0.284387        -7.7386 
 131   1.0000      -0.282563        -7.6889 
 132   1.0000      -0.282223        -7.6797 
 133   1.0000      -0.278974        -7.5913 
 134   1.0000      -0.278594        -7.5809 
 135   1.0000      -0.277842        -7.5605 
 136   1.0000      -0.275280        -7.4907 
 137   1.0000      -0.273828        -7.4513 
 138   1.0000      -0.272538        -7.4161 
 139   1.0000      -0.272423        -7.4130 
 140   1.0000      -0.271592        -7.3904 
 141   1.0000      -0.271314        -7.3828 
 142   1.0000      -0.270788        -7.3685 
 143   1.0000      -0.270658        -7.3650 
 144   1.0000      -0.266829        -7.2608 
 145   1.0000      -0.266508        -7.2520 
 146   1.0000      -0.266269        -7.2455 
 147   1.0000      -0.263729        -7.1764 
 148   1.0000      -0.262722        -7.1490 
 149   1.0000      -0.261529        -7.1166 
 150   1.0000      -0.260471        -7.0878 
 151   1.0000      -0.260436        -7.0868 
 152   1.0000      -0.259287        -7.0556 
 153   1.0000      -0.256382        -6.9765 
 154   1.0000      -0.255937        -6.9644 
 155   1.0000      -0.254716        -6.9312 
 156   1.0000      -0.254543        -6.9265 
 157   1.0000      -0.253924        -6.9096 
 158   1.0000      -0.250957        -6.8289 
 159   1.0000      -0.247078        -6.7233 
 160   1.0000      -0.246428        -6.7056 
 161   1.0000      -0.241260        -6.5650 
 162   1.0000      -0.222063        -6.0426 
 163   1.0000      -0.221796        -6.0354 
 164   1.0000      -0.219923        -5.9844 
 165   1.0000      -0.207239        -5.6393 
 166   1.0000      -0.205902        -5.6029 
 167   0.0000      -0.155700        -4.2368 
 168   0.0000      -0.145729        -3.9655 
 169   0.0000      -0.133203        -3.6246 
 170   0.0000      -0.126058        -3.4302 
 171   0.0000      -0.125769        -3.4224 
 172   0.0000      -0.119432        -3.2499 
 173   0.0000      -0.114381        -3.1125 
 174   0.0000      -0.113232        -3.0812 
 175   0.0000      -0.074761        -2.0344 
 176   0.0000      -0.071197        -1.9374 
 177   0.0000      -0.070038        -1.9058 
 178   0.0000      -0.043259        -1.1772 
 179   0.0000      -0.036481        -0.9927 
 180   0.0000      -0.024145        -0.6570 
 181   0.0000      -0.019612        -0.5337 
 182   0.0000      -0.016665        -0.4535 
 183   0.0000      -0.015635        -0.4255 
 184   0.0000      -0.013391        -0.3644 
 185   0.0000      -0.004020        -0.1094 
 186   0.0000       0.004145         0.1128 
 187   0.0000       0.006091         0.1657 
 188   0.0000       0.010080         0.2743 
 189   0.0000       0.017061         0.4643 
 190   0.0000       0.025401         0.6912 
 191   0.0000       0.036721         0.9992 
 192   0.0000       0.043785         1.1915 
 193   0.0000       0.063984         1.7411 
 194   0.0000       0.064369         1.7516 
 195   0.0000       0.072541         1.9740 
 196   0.0000       0.073356         1.9961 
 197   0.0000       0.076207         2.0737 
 198   0.0000       0.077126         2.0987 
 199   0.0000       0.077202         2.1008 
 200   0.0000       0.078308         2.1309 
 201   0.0000       0.079010         2.1500 
 202   0.0000       0.081838         2.2269 
 203   0.0000       0.083897         2.2829 
 204   0.0000       0.087081         2.3696 
 205   0.0000       0.093166         2.5352 
 206   0.0000       0.094647         2.5755 
 207   0.0000       0.101767         2.7692 
 208   0.0000       0.101921         2.7734 
 209   0.0000       0.105815         2.8794 
 210   0.0000       0.106617         2.9012 
 211   0.0000       0.117469         3.1965 
 212   0.0000       0.121157         3.2968 
 213   0.0000       0.129065         3.5120 
 214   0.0000       0.142009         3.8642 
 215   0.0000       0.147384         4.0105 
 216   0.0000       0.153327         4.1722 
 217   0.0000       0.155270         4.2251 
 218   0.0000       0.159233         4.3329 
 219   0.0000       0.160531         4.3683 
 220   0.0000       0.163660         4.4534 
 221   0.0000       0.167734         4.5643 
 222   0.0000       0.168028         4.5723 
 223   0.0000       0.175037         4.7630 
 224   0.0000       0.176673         4.8075 
 225   0.0000       0.178373         4.8538 
 226   0.0000       0.180256         4.9050 
 227   0.0000       0.188484         5.1289 
 228   0.0000       0.191844         5.2203 
 229   0.0000       0.194145         5.2829 
 230   0.0000       0.194635         5.2963 
 231   0.0000       0.201097         5.4721 
 232   0.0000       0.208022         5.6606 
 233   0.0000       0.214378         5.8335 
 234   0.0000       0.215968         5.8768 
 235   0.0000       0.224710         6.1147 
 236   0.0000       0.225033         6.1234 
 237   0.0000       0.233527         6.3546 
 238   0.0000       0.235591         6.4107 
 239   0.0000       0.242358         6.5949 
 240   0.0000       0.247878         6.7451 
 241   0.0000       0.248378         6.7587 
 242   0.0000       0.251300         6.8382 
 243   0.0000       0.257955         7.0193 
 244   0.0000       0.261808         7.1241 
 245   0.0000       0.262026         7.1301 
 246   0.0000       0.266210         7.2439 
 247   0.0000       0.267036         7.2664 
 248   0.0000       0.278328         7.5737 
 249   0.0000       0.278910         7.5895 
 250   0.0000       0.289054         7.8656 
 251   0.0000       0.290566         7.9067 
 252   0.0000       0.296551         8.0696 
 253   0.0000       0.302858         8.2412 
 254   0.0000       0.307908         8.3786 
 255   0.0000       0.312358         8.4997 
 256   0.0000       0.318020         8.6538 
 257   0.0000       0.318362         8.6631 
 258   0.0000       0.323969         8.8156 
 259   0.0000       0.328136         8.9290 
 260   0.0000       0.333343         9.0707 
 261   0.0000       0.335352         9.1254 
 262   0.0000       0.340498         9.2654 
 263   0.0000       0.341662         9.2971 
 264   0.0000       0.345868         9.4115 
 265   0.0000       0.346542         9.4299 
 266   0.0000       0.348972         9.4960 
 267   0.0000       0.355795         9.6817 
 268   0.0000       0.361794         9.8449 
 269   0.0000       0.362243         9.8571 
 270   0.0000       0.362757         9.8711 
 271   0.0000       0.376984        10.2583 
 272   0.0000       0.385276        10.4839 
 273   0.0000       0.386942        10.5292 
 274   0.0000       0.397565        10.8183 
 275   0.0000       0.397922        10.8280 
 276   0.0000       0.405619        11.0375 
 277   0.0000       0.407640        11.0925 
 278   0.0000       0.410015        11.1571 
 279   0.0000       0.413718        11.2578 
 280   0.0000       0.416318        11.3286 
 281   0.0000       0.418999        11.4015 
 282   0.0000       0.420357        11.4385 
 283   0.0000       0.421868        11.4796 
 284   0.0000       0.429369        11.6837 
 285   0.0000       0.433595        11.7987 
 286   0.0000       0.436204        11.8697 
 287   0.0000       0.437838        11.9142 
 288   0.0000       0.447030        12.1643 
 289   0.0000       0.450210        12.2508 
 290   0.0000       0.450436        12.2570 
 291   0.0000       0.461068        12.5463 
 292   0.0000       0.466510        12.6944 
 293   0.0000       0.470511        12.8032 
 294   0.0000       0.473682        12.8895 
 295   0.0000       0.478604        13.0235 
 296   0.0000       0.486819        13.2470 
 297   0.0000       0.492176        13.3928 
 298   0.0000       0.492492        13.4014 
 299   0.0000       0.495907        13.4943 
 300   0.0000       0.497044        13.5252 
 301   0.0000       0.501600        13.6492 
 302   0.0000       0.512917        13.9572 
 303   0.0000       0.518211        14.1012 
 304   0.0000       0.519771        14.1437 
 305   0.0000       0.521976        14.2037 
 306   0.0000       0.522816        14.2266 
 307   0.0000       0.523954        14.2575 
 308   0.0000       0.528230        14.3739 
 309   0.0000       0.535866        14.5816 
 310   0.0000       0.537273        14.6199 
 311   0.0000       0.542255        14.7555 
 312   0.0000       0.545643        14.8477 
 313   0.0000       0.548262        14.9190 
 314   0.0000       0.548895        14.9362 
 315   0.0000       0.556813        15.1516 
 316   0.0000       0.559990        15.2381 
 317   0.0000       0.563410        15.3312 
 318   0.0000       0.564900        15.3717 
 319   0.0000       0.573625        15.6091 
 320   0.0000       0.576982        15.7005 
 321   0.0000       0.578363        15.7381 
 322   0.0000       0.589991        16.0545 
 323   0.0000       0.605426        16.4745 
 324   0.0000       0.605566        16.4783 
 325   0.0000       0.619534        16.8584 
 326   0.0000       0.631471        17.1832 
 327   0.0000       0.637084        17.3359 
 328   0.0000       0.692442        18.8423 
 329   0.0000       0.700684        19.0666 
 330   0.0000       0.727788        19.8041 
 331   0.0000       0.731487        19.9048 
 332   0.0000       0.748899        20.3786 
 333   0.0000       0.754916        20.5423 
 334   0.0000       0.755687        20.5633 
 335   0.0000       0.760447        20.6928 
 336   0.0000       0.774958        21.0877 
 337   0.0000       0.776513        21.1300 
 338   0.0000       0.782910        21.3041 
 339   0.0000       0.787489        21.4287 
 340   0.0000       0.797875        21.7113 
 341   0.0000       0.801130        21.7999 
 342   0.0000       0.803902        21.8753 
 343   0.0000       0.820053        22.3148 
 344   0.0000       0.824202        22.4277 
 345   0.0000       0.827064        22.5056 
 346   0.0000       0.829156        22.5625 
 347   0.0000       0.837082        22.7782 
 348   0.0000       0.843275        22.9467 
 349   0.0000       0.850294        23.1377 
 350   0.0000       0.857415        23.3315 
 351   0.0000       0.860497        23.4153 
 352   0.0000       0.865483        23.5510 
 353   0.0000       0.866707        23.5843 
 354   0.0000       0.881449        23.9854 
 355   0.0000       0.884934        24.0803 
 356   0.0000       0.898637        24.4531 
 357   0.0000       0.906917        24.6785 
 358   0.0000       0.921271        25.0691 
 359   0.0000       0.921293        25.0697 
 360   0.0000       0.931521        25.3480 
 361   0.0000       0.948894        25.8207 
 362   0.0000       0.953430        25.9442 
 363   0.0000       0.954464        25.9723 
 364   0.0000       0.958013        26.0689 
 365   0.0000       0.967846        26.3364 
 366   0.0000       0.974603        26.5203 
 367   0.0000       0.995106        27.0782 
 368   0.0000       1.011328        27.5196 
 369   0.0000       1.013478        27.5781 
 370   0.0000       1.016695        27.6657 
 371   0.0000       1.027153        27.9502 
 372   0.0000       1.027555        27.9612 
 373   0.0000       1.031995        28.0820 
 374   0.0000       1.051516        28.6132 
 375   0.0000       1.079353        29.3707 
 376   0.0000       1.152702        31.3666 
 377   0.0000       1.154551        31.4169 
 378   0.0000       1.197198        32.5774 
 379   0.0000       1.217340        33.1255 
 380   0.0000       1.225170        33.3386 
 381   0.0000       1.258720        34.2515 
 382   0.0000       1.270857        34.5818 
 383   0.0000       1.271448        34.5979 
 384   0.0000       1.289801        35.0973 
 385   0.0000       1.291820        35.1522 
 386   0.0000       1.303998        35.4836 
 387   0.0000       1.322776        35.9946 
 388   0.0000       1.330145        36.1951 
 389   0.0000       1.340221        36.4693 
 390   0.0000       1.347821        36.6761 
 391   0.0000       1.351618        36.7794 
 392   0.0000       1.353931        36.8423 
 393   0.0000       1.367030        37.1988 
 394   0.0000       1.373749        37.3816 
 395   0.0000       1.376885        37.4669 
 396   0.0000       1.380850        37.5748 
 397   0.0000       1.381119        37.5821 
 398   0.0000       1.391135        37.8547 
 399   0.0000       1.392268        37.8855 
 400   0.0000       1.394845        37.9557 
 401   0.0000       1.396986        38.0139 
 402   0.0000       1.410922        38.3931 
 403   0.0000       1.415211        38.5098 
 404   0.0000       1.420235        38.6465 
 405   0.0000       1.433917        39.0189 
 406   0.0000       1.434707        39.0404 
 407   0.0000       1.444664        39.3113 
 408   0.0000       1.448569        39.4176 
 409   0.0000       1.453105        39.5410 
 410   0.0000       1.462792        39.8046 
 411   0.0000       1.463903        39.8348 
 412   0.0000       1.468714        39.9657 
 413   0.0000       1.469218        39.9794 
 414   0.0000       1.477116        40.1944 
 415   0.0000       1.477528        40.2056 
 416   0.0000       1.480199        40.2783 
 417   0.0000       1.481137        40.3038 
 418   0.0000       1.488558        40.5057 
 419   0.0000       1.489541        40.5325 
 420   0.0000       1.491467        40.5849 
 421   0.0000       1.495853        40.7042 
 422   0.0000       1.497167        40.7400 
 423   0.0000       1.501422        40.8558 
 424   0.0000       1.507384        41.0180 
 425   0.0000       1.509560        41.0772 
 426   0.0000       1.515444        41.2373 
 427   0.0000       1.515725        41.2450 
 428   0.0000       1.516581        41.2683 
 429   0.0000       1.520220        41.3673 
 430   0.0000       1.524696        41.4891 
 431   0.0000       1.527651        41.5695 
 432   0.0000       1.527823        41.5742 
 433   0.0000       1.532805        41.7098 
 434   0.0000       1.534578        41.7580 
 435   0.0000       1.536995        41.8238 
 436   0.0000       1.539409        41.8895 
 437   0.0000       1.541625        41.9498 
 438   0.0000       1.542616        41.9767 
 439   0.0000       1.543976        42.0137 
 440   0.0000       1.547208        42.1017 
 441   0.0000       1.548578        42.1389 
 442   0.0000       1.550637        42.1950 
 443   0.0000       1.551738        42.2249 
 444   0.0000       1.552876        42.2559 
 445   0.0000       1.555156        42.3179 
 446   0.0000       1.556078        42.3430 
 447   0.0000       1.557807        42.3901 
 448   0.0000       1.558526        42.4096 
 449   0.0000       1.559722        42.4422 
 450   0.0000       1.561175        42.4817 
 451   0.0000       1.562362        42.5140 
 452   0.0000       1.564605        42.5751 
 453   0.0000       1.565698        42.6048 
 454   0.0000       1.567486        42.6535 
 455   0.0000       1.569064        42.6964 
 456   0.0000       1.569819        42.7169 
 457   0.0000       1.571605        42.7656 
 458   0.0000       1.574141        42.8345 
 459   0.0000       1.575513        42.8719 
 460   0.0000       1.576302        42.8933 
 461   0.0000       1.576872        42.9089 
 462   0.0000       1.578661        42.9576 
 463   0.0000       1.578927        42.9648 
 464   0.0000       1.581166        43.0257 
 465   0.0000       1.581616        43.0380 
 466   0.0000       1.583103        43.0784 
 467   0.0000       1.585622        43.1470 
 468   0.0000       1.586867        43.1808 
 469   0.0000       1.586927        43.1825 
 470   0.0000       1.587625        43.2015 
 471   0.0000       1.587829        43.2070 
 472   0.0000       1.590436        43.2780 
 473   0.0000       1.591407        43.3044 
 474   0.0000       1.592382        43.3309 
 475   0.0000       1.596847        43.4524 
 476   0.0000       1.598371        43.4939 
 477   0.0000       1.600006        43.5384 
 478   0.0000       1.604206        43.6527 
 479   0.0000       1.606266        43.7087 
 480   0.0000       1.606702        43.7206 
 481   0.0000       1.607637        43.7460 
 482   0.0000       1.608338        43.7651 
 483   0.0000       1.614314        43.9277 
 484   0.0000       1.614479        43.9322 
 485   0.0000       1.621678        44.1281 
 486   0.0000       1.622357        44.1466 
 487   0.0000       1.624443        44.2033 
 488   0.0000       1.626268        44.2530 
 489   0.0000       1.626986        44.2725 
 490   0.0000       1.630227        44.3607 
 491   0.0000       1.633140        44.4400 
 492   0.0000       1.634769        44.4843 
 493   0.0000       1.635791        44.5121 
 494   0.0000       1.637897        44.5694 
 495   0.0000       1.640862        44.6501 
 496   0.0000       1.643186        44.7134 
 497   0.0000       1.646406        44.8010 
 498   0.0000       1.649143        44.8755 
 499   0.0000       1.650727        44.9186 
 500   0.0000       1.651153        44.9301 
 501   0.0000       1.655301        45.0430 
 502   0.0000       1.656311        45.0705 
 503   0.0000       1.660147        45.1749 
 504   0.0000       1.661126        45.2015 
 505   0.0000       1.661499        45.2117 
 506   0.0000       1.664490        45.2931 
 507   0.0000       1.668040        45.3897 
 508   0.0000       1.669666        45.4339 
 509   0.0000       1.670782        45.4643 
 510   0.0000       1.674904        45.5765 
 511   0.0000       1.678469        45.6735 
 512   0.0000       1.680787        45.7365 
 513   0.0000       1.683127        45.8002 
 514   0.0000       1.684529        45.8384 
 515   0.0000       1.689182        45.9650 
 516   0.0000       1.691755        46.0350 
 517   0.0000       1.691866        46.0380 
 518   0.0000       1.698406        46.2160 
 519   0.0000       1.704244        46.3748 
 520   0.0000       1.705192        46.4006 
 521   0.0000       1.709079        46.5064 
 522   0.0000       1.711765        46.5795 
 523   0.0000       1.713799        46.6348 
 524   0.0000       1.718298        46.7573 
 525   0.0000       1.721807        46.8528 
 526   0.0000       1.730163        47.0801 
 527   0.0000       1.731256        47.1099 
 528   0.0000       1.736125        47.2424 
 529   0.0000       1.736559        47.2542 
 530   0.0000       1.746948        47.5369 
 531   0.0000       1.754918        47.7537 
 532   0.0000       1.761818        47.9415 
 533   0.0000       1.762700        47.9655 
 534   0.0000       1.782584        48.5066 
 535   0.0000       1.789962        48.7073 
 536   0.0000       1.794177        48.8220 
 537   0.0000       1.796648        48.8893 
 538   0.0000       1.803234        49.0685 
 539   0.0000       1.812807        49.3290 
 540   0.0000       1.820361        49.5346 
 541   0.0000       1.827939        49.7407 
 542   0.0000       1.832081        49.8535 
 543   0.0000       1.839421        50.0532 
 544   0.0000       1.842624        50.1404 
 545   0.0000       1.843061        50.1522 
 546   0.0000       1.854583        50.4658 
 547   0.0000       1.863836        50.7176 
 548   0.0000       1.865456        50.7616 
 549   0.0000       1.871894        50.9368 
 550   0.0000       1.875959        51.0474 
 551   0.0000       1.881018        51.1851 
 552   0.0000       1.886180        51.3256 
 553   0.0000       1.888781        51.3963 
 554   0.0000       1.893143        51.5151 
 555   0.0000       1.893489        51.5245 
 556   0.0000       1.901635        51.7461 
 557   0.0000       1.909765        51.9673 
 558   0.0000       1.913004        52.0555 
 559   0.0000       1.917868        52.1879 
 560   0.0000       1.925246        52.3886 
 561   0.0000       1.928334        52.4726 
 562   0.0000       1.928731        52.4834 
 563   0.0000       1.948199        53.0132 
 564   0.0000       1.950982        53.0889 
 565   0.0000       1.954970        53.1974 
 566   0.0000       1.982884        53.9570 
 567   0.0000       1.985335        54.0237 
 568   0.0000       2.021611        55.0108 
 569   0.0000       2.028553        55.1997 
 570   0.0000       2.085684        56.7544 
 571   0.0000       2.093261        56.9605 
 572   0.0000       2.206349        60.0378 
 573   0.0000       2.274468        61.8914 
 574   0.0000       2.358409        64.1756 
 575   0.0000       2.371493        64.5316 
 576   0.0000       2.377980        64.7081 
 577   0.0000       2.433881        66.2293 
 578   0.0000       2.472086        67.2689 
 579   0.0000       2.493902        67.8625 
 580   0.0000       2.501820        68.0780 
 581   0.0000       2.504112        68.1403 
 582   0.0000       2.532446        68.9113 
 583   0.0000       2.552487        69.4567 
 584   0.0000       2.576764        70.1173 
 585   0.0000       2.606058        70.9144 
 586   0.0000       2.619044        71.2678 
 587   0.0000       2.636488        71.7425 
 588   0.0000       2.642571        71.9080 
 589   0.0000       2.653200        72.1972 
 590   0.0000       2.690499        73.2122 
 591   0.0000       2.704370        73.5897 
 592   0.0000       3.430088        93.3374 
 593   0.0000       3.637163        98.9722 
 594   0.0000       3.730432       101.5102 
 595   0.0000       3.826893       104.1350 
 596   0.0000       3.835851       104.3788 
 597   0.0000       3.855316       104.9085 
 598   0.0000       3.971364       108.0663 
 599   0.0000       3.974118       108.1413 
 600   0.0000       3.974530       108.1525 
 601   0.0000       3.978454       108.2592 
 602   0.0000       3.994963       108.7085 
 603   0.0000       4.006711       109.0282 
 604   0.0000       4.018099       109.3380 
 605   0.0000      24.282108       660.7497 
 606   0.0000      24.512191       667.0106 
 607   0.0000      24.652677       670.8334 
 608   0.0000      24.716575       672.5722 
 609   0.0000      24.904759       677.6929 
 610   0.0000      25.048465       681.6034 
 611   0.0000      25.125362       683.6959 
 612   0.0000      25.202850       685.8044 
 613   0.0000      25.331800       689.3133 
 614   0.0000      25.481541       693.3880 
 615   0.0000      25.511747       694.2099 
 616   0.0000      25.655369       698.1181 
 617   0.0000      25.677958       698.7328 
 618   0.0000      25.719359       699.8593 
 619   0.0000      25.820212       702.6037 
 620   0.0000      25.878689       704.1949 
 621   0.0000      25.997756       707.4349 
 622   0.0000      26.056167       709.0243 
 623   0.0000      26.172211       712.1821 
 624   0.0000      26.251372       714.3361 
 625   0.0000      26.360799       717.3138 
 626   0.0000      26.395283       718.2522 
 627   0.0000      26.453099       719.8254 
 628   0.0000      26.550879       722.4862 
 629   0.0000      26.619688       724.3585 
 630   0.0000      26.695512       726.4218 
 631   0.0000      26.758388       728.1328 
 632   0.0000      26.880263       731.4491 
 633   0.0000      26.988781       734.4021 
 634   0.0000      27.040315       735.8044 
 635   0.0000      27.114949       737.8353 
 636   0.0000      27.215383       740.5682 
 637   0.0000      27.230352       740.9755 
 638   0.0000      27.266391       741.9562 
 639   0.0000      27.346540       744.1372 
 640   0.0000      27.406763       745.7759 
 641   0.0000      27.451429       746.9913 
 642   0.0000      27.851569       757.8797 
 643   0.0000      27.872690       758.4545 
 644   0.0000      27.881209       758.6863 
 645   0.0000      28.021817       762.5124 
 646   0.0000      28.138596       765.6901 
 647   0.0000      28.426232       773.5171 
 648   0.0000      28.430279       773.6272 
 649   0.0000      28.879796       785.8592 
 650   0.0000      29.074470       791.1565 
 651   0.0000      29.514351       803.1263 
 652   0.0000      31.846056       866.5752 
 653   0.0000      44.393437      1208.0068 
 654   0.0000      44.528411      1211.6797 
 655   0.0000      44.530952      1211.7488 
 656   0.0000      44.550150      1212.2712 
 657   0.0000      44.605340      1213.7730 
 658   0.0000      44.609708      1213.8919 
 659   0.0000      44.628399      1214.4005 
 660   0.0000      44.646501      1214.8931 
 661   0.0000      44.647292      1214.9146 
 662   0.0000      44.660325      1215.2692 
 663   0.0000      44.672119      1215.5902 
 664   0.0000      44.683720      1215.9058 
 665   0.0000      44.716573      1216.7998 
 666   0.0000      44.722131      1216.9510 
 667   0.0000      44.752190      1217.7690 
 668   0.0000      44.797692      1219.0072 
 669   0.0000     205.252060      5585.1925 
 670   0.0000     205.305860      5586.6565 
 671   0.0000     205.309224      5586.7480 
 672   0.0000     205.312935      5586.8490 
 673   0.0000     205.342039      5587.6410 
 674   0.0000     205.342941      5587.6655 
 675   0.0000     205.351755      5587.9053 
 676   0.0000     205.358803      5588.0971 
 677   0.0000     205.361671      5588.1752 
 678   0.0000     205.363108      5588.2143 
 679   0.0000     205.368660      5588.3654 
 680   0.0000     205.372258      5588.4632 
 681   0.0000     205.385396      5588.8208 
 682   0.0000     205.387385      5588.8749 
 683   0.0000     205.401051      5589.2467 
 684   0.0000     205.413298      5589.5800 

                 SPIN DOWN ORBITALS
  NO   OCC          E(Eh)            E(eV) 
   0   1.0000    -255.649675     -6956.5813 
   1   1.0000     -29.867625      -812.7394 
   2   1.0000     -25.722506      -699.9450 
   3   1.0000     -25.715578      -699.7565 
   4   1.0000     -25.712082      -699.6613 
   5   1.0000      -4.127176      -112.3062 
   6   1.0000      -4.127089      -112.3038 
   7   1.0000      -4.127013      -112.3017 
   8   1.0000      -4.126939      -112.2997 
   9   1.0000      -4.125040      -112.2480 
  10   1.0000      -4.124998      -112.2469 
  11   1.0000      -4.123996      -112.2196 
  12   1.0000      -4.123874      -112.2163 
  13   1.0000      -4.119204      -112.0892 
  14   1.0000      -4.119145      -112.0876 
  15   1.0000      -4.118103      -112.0593 
  16   1.0000      -4.117938      -112.0548 
  17   1.0000      -4.113723      -111.9401 
  18   1.0000      -4.113701      -111.9395 
  19   1.0000      -4.113360      -111.9302 
  20   1.0000      -4.113200      -111.9259 
  21   1.0000      -3.351346       -91.1948 
  22   1.0000      -2.315961       -63.0205 
  23   1.0000      -2.315773       -63.0154 
  24   1.0000      -2.315318       -63.0030 
  25   1.0000      -2.315257       -63.0013 
  26   1.0000      -2.314247       -62.9739 
  27   1.0000      -2.314170       -62.9718 
  28   1.0000      -2.313432       -62.9517 
  29   1.0000      -2.313261       -62.9470 
  30   1.0000      -2.312166       -62.9172 
  31   1.0000      -2.312125       -62.9161 
  32   1.0000      -2.311675       -62.9039 
  33   1.0000      -2.311559       -62.9007 
  34   1.0000      -2.311290       -62.8934 
  35   1.0000      -2.311238       -62.8920 
  36   1.0000      -2.309807       -62.8531 
  37   1.0000      -2.309661       -62.8491 
  38   1.0000      -2.309442       -62.8431 
  39   1.0000      -2.309159       -62.8354 
  40   1.0000      -2.308935       -62.8293 
  41   1.0000      -2.308659       -62.8218 
  42   1.0000      -2.308026       -62.8046 
  43   1.0000      -2.307931       -62.8020 
  44   1.0000      -2.307176       -62.7815 
  45   1.0000      -2.307101       -62.7794 
  46   1.0000      -2.306999       -62.7766 
  47   1.0000      -2.306902       -62.7740 
  48   1.0000      -2.305405       -62.7333 
  49   1.0000      -2.305048       -62.7235 
  50   1.0000      -2.304977       -62.7216 
  51   1.0000      -2.304789       -62.7165 
  52   1.0000      -2.304481       -62.7081 
  53   1.0000      -2.303424       -62.6794 
  54   1.0000      -2.302533       -62.6551 
  55   1.0000      -2.301936       -62.6389 
  56   1.0000      -2.301839       -62.6362 
  57   1.0000      -2.301432       -62.6252 
  58   1.0000      -2.301271       -62.6208 
  59   1.0000      -2.301193       -62.6186 
  60   1.0000      -2.300998       -62.6133 
  61   1.0000      -2.300206       -62.5918 
  62   1.0000      -2.299647       -62.5766 
  63   1.0000      -2.298947       -62.5575 
  64   1.0000      -2.298411       -62.5429 
  65   1.0000      -2.298328       -62.5407 
  66   1.0000      -2.296681       -62.4959 
  67   1.0000      -2.296512       -62.4913 
  68   1.0000      -2.296292       -62.4853 
  69   1.0000      -2.296103       -62.4801 
  70   1.0000      -2.127443       -57.8907 
  71   1.0000      -2.119214       -57.6667 
  72   1.0000      -2.111284       -57.4510 
  73   1.0000      -0.439342       -11.9551 
  74   1.0000      -0.401991       -10.9387 
  75   1.0000      -0.399988       -10.8842 
  76   1.0000      -0.394815       -10.7435 
  77   1.0000      -0.384025       -10.4499 
  78   1.0000      -0.382458       -10.4072 
  79   1.0000      -0.380478       -10.3533 
  80   1.0000      -0.377037       -10.2597 
  81   1.0000      -0.376164       -10.2359 
  82   1.0000      -0.372795       -10.1443 
  83   1.0000      -0.372359       -10.1324 
  84   1.0000      -0.370371       -10.0783 
  85   1.0000      -0.369471       -10.0538 
  86   1.0000      -0.367079        -9.9887 
  87   1.0000      -0.364333        -9.9140 
  88   1.0000      -0.364040        -9.9060 
  89   1.0000      -0.362668        -9.8687 
  90   1.0000      -0.361269        -9.8306 
  91   1.0000      -0.359665        -9.7870 
  92   1.0000      -0.356691        -9.7060 
  93   1.0000      -0.355362        -9.6699 
  94   1.0000      -0.353788        -9.6271 
  95   1.0000      -0.353726        -9.6254 
  96   1.0000      -0.352272        -9.5858 
  97   1.0000      -0.348448        -9.4818 
  98   1.0000      -0.346888        -9.4393 
  99   1.0000      -0.346718        -9.4347 
 100   1.0000      -0.342357        -9.3160 
 101   1.0000      -0.337703        -9.1894 
 102   1.0000      -0.336744        -9.1633 
 103   1.0000      -0.334689        -9.1073 
 104   1.0000      -0.331948        -9.0328 
 105   1.0000      -0.329400        -8.9634 
 106   1.0000      -0.326376        -8.8812 
 107   1.0000      -0.326226        -8.8771 
 108   1.0000      -0.325772        -8.8647 
 109   1.0000      -0.321207        -8.7405 
 110   1.0000      -0.319034        -8.6814 
 111   1.0000      -0.314653        -8.5622 
[...]
      dx2y2   :     1.964153
      dxy     :     1.974421
      f0      :     0.000600  f :     0.005549
      f+1     :     0.000611
      f-1     :     0.000732
      f+2     :     0.001097
      f-2     :     0.001116
      f+3     :     0.000757
      f-3     :     0.000636
 10 Aus       :     2.506607  s :     2.506607
      pz      :     2.219345  p :     6.622518
      px      :     2.252677
      py      :     2.150496
      dz2     :     1.986002  d :     9.918437
      dxz     :     1.993363
      dyz     :     1.960379
      dx2y2   :     1.982782
      dxy     :     1.995911
      f0      :     0.001115  f :     0.007368
      f+1     :     0.000885
      f-1     :     0.001258
      f+2     :     0.001282
      f-2     :     0.001092
      f+3     :     0.000760
      f-3     :     0.000975
 11 Aus       :     2.599735  s :     2.599735
      pz      :     2.152825  p :     6.462540
      px      :     2.122102
      py      :     2.187613
      dz2     :     1.982855  d :     9.915958
      dxz     :     1.985729
      dyz     :     1.973637
      dx2y2   :     1.984320
      dxy     :     1.989416
      f0      :     0.000769  f :     0.005438
      f+1     :     0.000621
      f-1     :     0.001098
      f+2     :     0.000760
      f-2     :     0.000694
      f+3     :     0.000724
      f-3     :     0.000772
 12 Aus       :     2.542048  s :     2.542048
      pz      :     2.164604  p :     6.516770
      px      :     2.177615
      py      :     2.174550
      dz2     :     1.989584  d :     9.891868
      dxz     :     1.959627
      dyz     :     1.986920
      dx2y2   :     1.983634
      dxy     :     1.972104
      f0      :     0.000919  f :     0.006471
      f+1     :     0.000874
      f-1     :     0.001045
      f+2     :     0.000831
      f-2     :     0.000978
      f+3     :     0.001013
      f-3     :     0.000811
 13 Aus       :     2.559305  s :     2.559305
      pz      :     2.174918  p :     6.516166
      px      :     2.162264
      py      :     2.178984
      dz2     :     1.979304  d :     9.902798
      dxz     :     1.981704
      dyz     :     1.957525
      dx2y2   :     1.997765
      dxy     :     1.986499
      f0      :     0.000770  f :     0.006223
      f+1     :     0.000886
      f-1     :     0.001183
      f+2     :     0.000825
      f-2     :     0.000903
      f+3     :     0.000901
      f-3     :     0.000754
 14 Aus       :     2.526375  s :     2.526375
      pz      :     2.155865  p :     6.519425
      px      :     2.226002
      py      :     2.137558
      dz2     :     1.983342  d :     9.896624
      dxz     :     1.980438
      dyz     :     1.957985
      dx2y2   :     1.984582
      dxy     :     1.990277
      f0      :     0.000679  f :     0.006006
      f+1     :     0.001013
      f-1     :     0.000725
      f+2     :     0.000925
      f-2     :     0.000873
      f+3     :     0.001010
      f-3     :     0.000783
 15 Aus       :     2.608119  s :     2.608119
      pz      :     2.179693  p :     6.436086
      px      :     2.096096
      py      :     2.160297
      dz2     :     1.967244  d :     9.877042
      dxz     :     1.993237
      dyz     :     1.968447
      dx2y2   :     1.970763
      dxy     :     1.977351
      f0      :     0.000619  f :     0.005250
      f+1     :     0.000824
      f-1     :     0.000778
      f+2     :     0.000807
      f-2     :     0.000824
      f+3     :     0.000699
      f-3     :     0.000699
 16 Fes       :     6.243922  s :     6.243922
      pz      :     4.158157  p :    12.496970
      px      :     4.165491
      py      :     4.173322
      dz2     :     1.527314  d :     7.722585
      dxz     :     1.413778
      dyz     :     1.630599
      dx2y2   :     1.356437
      dxy     :     1.794457
      f0      :     0.000068  f :     0.000566
      f+1     :     0.000066
      f-1     :     0.000123
      f+2     :     0.000066
      f-2     :     0.000085
      f+3     :     0.000081
      f-3     :     0.000076

SPIN
  0 Aus       :    -0.012859  s :    -0.012859
      pz      :    -0.013343  p :    -0.016347
      px      :    -0.003837
      py      :     0.000832
      dz2     :    -0.004576  d :    -0.008764
      dxz     :    -0.004054
      dyz     :     0.000174
      dx2y2   :     0.000433
      dxy     :    -0.000741
      f0      :     0.000001  f :    -0.000045
      f+1     :    -0.000018
      f-1     :    -0.000002
      f+2     :    -0.000013
      f-2     :    -0.000009
      f+3     :    -0.000003
      f-3     :    -0.000002
  1 Aus       :    -0.015919  s :    -0.015919
      pz      :    -0.009990  p :    -0.018178
      px      :    -0.009409
      py      :     0.001221
      dz2     :     0.001574  d :     0.005570
      dxz     :     0.001070
      dyz     :     0.002196
      dx2y2   :     0.002563
      dxy     :    -0.001833
      f0      :    -0.000024  f :     0.000039
      f+1     :    -0.000000
      f-1     :    -0.000006
      f+2     :     0.000023
      f-2     :     0.000020
      f+3     :    -0.000000
      f-3     :     0.000026
  2 Aus       :    -0.017319  s :    -0.017319
      pz      :     0.002452  p :     0.000979
      px      :     0.003886
      py      :    -0.005359
      dz2     :     0.002254  d :    -0.006134
      dxz     :     0.001340
      dyz     :    -0.013412
      dx2y2   :     0.005100
      dxy     :    -0.001417
      f0      :    -0.000005  f :     0.000041
      f+1     :     0.000038
      f-1     :     0.000003
      f+2     :     0.000005
      f-2     :    -0.000022
      f+3     :     0.000035
      f-3     :    -0.000013
  3 Aus       :     0.000923  s :     0.000923
      pz      :    -0.000278  p :    -0.011030
      px      :    -0.010443
      py      :    -0.000309
      dz2     :    -0.001622  d :     0.007157
      dxz     :     0.004448
      dyz     :     0.001768
      dx2y2   :    -0.001832
      dxy     :     0.004394
      f0      :     0.000026  f :     0.000111
      f+1     :     0.000014
      f-1     :    -0.000018
      f+2     :     0.000002
      f-2     :     0.000077
      f+3     :     0.000010
      f-3     :    -0.000000
  4 Aus       :    -0.005996  s :    -0.005996
      pz      :    -0.002651  p :    -0.023372
      px      :    -0.006709
      py      :    -0.014012
      dz2     :    -0.000969  d :     0.000107
      dxz     :     0.000050
      dyz     :     0.001718
      dx2y2   :     0.000046
      dxy     :    -0.000737
      f0      :    -0.000007  f :     0.000003
      f+1     :     0.000008
      f-1     :     0.000011
      f+2     :    -0.000004
      f-2     :     0.000009
      f+3     :     0.000001
      f-3     :    -0.000014
  5 Aus       :    -0.041352  s :    -0.041352
      pz      :    -0.005304  p :    -0.025025
      px      :    -0.002845
      py      :    -0.016876
      dz2     :    -0.002127  d :    -0.016920
      dxz     :     0.000054
      dyz     :    -0.008575
      dx2y2   :    -0.005489
      dxy     :    -0.000784
      f0      :    -0.000001  f :    -0.000026
      f+1     :    -0.000005
      f-1     :    -0.000005
      f+2     :    -0.000003
      f-2     :    -0.000003
      f+3     :    -0.000008
      f-3     :    -0.000001
  6 Aus       :    -0.003864  s :    -0.003864
      pz      :    -0.037109  p :    -0.037752
      px      :    -0.002124
      py      :     0.001481
      dz2     :    -0.002976  d :    -0.015635
      dxz     :     0.000184
      dyz     :    -0.012902
      dx2y2   :     0.000967
      dxy     :    -0.000908
      f0      :    -0.000009  f :    -0.000036
      f+1     :    -0.000003
      f-1     :    -0.000000
      f+2     :    -0.000017
      f-2     :    -0.000003
      f+3     :    -0.000007
      f-3     :     0.000003
  7 Aus       :    -0.015924  s :    -0.015924
      pz      :    -0.018603  p :    -0.018170
      px      :     0.000435
      py      :    -0.000002
      dz2     :     0.000575  d :     0.005568
      dxz     :    -0.002189
      dyz     :     0.001607
      dx2y2   :     0.003687
      dxy     :     0.001888
      f0      :    -0.000014  f :     0.000040
      f+1     :     0.000006
      f-1     :    -0.000022
      f+2     :    -0.000014
      f-2     :     0.000002
      f+3     :     0.000054
      f-3     :     0.000028
  8 Aus       :    -0.039120  s :    -0.039120
      pz      :    -0.009363  p :    -0.017221
      px      :    -0.002006
      py      :    -0.005851
      dz2     :    -0.006918  d :    -0.020009
      dxz     :    -0.004949
      dyz     :     0.003946
      dx2y2   :     0.001711
      dxy     :    -0.013799
      f0      :     0.000047  f :     0.000076
      f+1     :    -0.000029
      f-1     :     0.000053
      f+2     :     0.000023
      f-2     :    -0.000001
      f+3     :    -0.000006
      f-3     :    -0.000011
  9 Aus       :    -0.040676  s :    -0.040676
      pz      :    -0.005759  p :    -0.025203
      px      :    -0.002311
      py      :    -0.017132
      dz2     :    -0.003099  d :    -0.017186
      dxz     :    -0.001429
      dyz     :    -0.010880
      dx2y2   :     0.000279
      dxy     :    -0.002058
      f0      :     0.000000  f :    -0.000026
      f+1     :    -0.000003
      f-1     :    -0.000004
      f+2     :    -0.000001
      f-2     :    -0.000008
      f+3     :    -0.000005
      f-3     :    -0.000006
 10 Aus       :    -0.018018  s :    -0.018018
      pz      :     0.004622  p :     0.001038
      px      :    -0.006247
      py      :     0.002664
      dz2     :    -0.002766  d :    -0.005713
      dxz     :     0.001026
      dyz     :     0.001327
      dx2y2   :    -0.004979
      dxy     :    -0.000322
      f0      :     0.000012  f :     0.000043
      f+1     :    -0.000003
      f-1     :     0.000047
      f+2     :    -0.000002
      f-2     :    -0.000015
      f+3     :     0.000001
      f-3     :     0.000003
 11 Aus       :    -0.013456  s :    -0.013456
      pz      :    -0.007874  p :    -0.016212
      px      :    -0.002131
      py      :    -0.006206
      dz2     :     0.000892  d :    -0.008719
      dxz     :    -0.001646
      dyz     :    -0.004721
      dx2y2   :     0.000044
      dxy     :    -0.003287
      f0      :    -0.000010  f :    -0.000045
      f+1     :    -0.000000
      f-1     :    -0.000013
      f+2     :    -0.000007
      f-2     :    -0.000009
      f+3     :     0.000001
      f-3     :    -0.000008
 12 Aus       :    -0.005741  s :    -0.005741
      pz      :     0.001266  p :    -0.023500
      px      :    -0.003399
      py      :    -0.021367
      dz2     :    -0.000021  d :    -0.000273
      dxz     :     0.005186
      dyz     :    -0.001471
      dx2y2   :    -0.000077
      dxy     :    -0.003891
      f0      :    -0.000024  f :     0.000003
      f+1     :     0.000035
      f-1     :     0.000005
      f+2     :     0.000016
      f-2     :    -0.000023
      f+3     :    -0.000004
      f-3     :    -0.000002
 13 Aus       :    -0.004152  s :    -0.004152
      pz      :    -0.038105  p :    -0.037463
      px      :    -0.000714
      py      :     0.001355
      dz2     :    -0.005959  d :    -0.015378
      dxz     :    -0.000386
      dyz     :    -0.007785
      dx2y2   :    -0.001412
      dxy     :     0.000163
      f0      :     0.000003  f :    -0.000036
      f+1     :    -0.000014
      f-1     :    -0.000015
      f+2     :    -0.000010
      f-2     :     0.000004
      f+3     :    -0.000007
      f-3     :     0.000003
 14 Aus       :    -0.039070  s :    -0.039070
      pz      :    -0.011286  p :    -0.017144
      px      :    -0.001762
      py      :    -0.004097
      dz2     :     0.006866  d :    -0.019949
      dxz     :    -0.008468
      dyz     :    -0.010890
      dx2y2   :    -0.008033
      dxy     :     0.000576
      f0      :     0.000022  f :     0.000077
      f+1     :    -0.000011
      f-1     :     0.000074
      f+2     :    -0.000020
      f-2     :     0.000004
      f+3     :     0.000011
      f-3     :    -0.000004
 15 Aus       :     0.000688  s :     0.000688
      pz      :    -0.004932  p :    -0.011032
      px      :     0.003297
      py      :    -0.009397
      dz2     :     0.001599  d :     0.006942
      dxz     :    -0.001748
      dyz     :    -0.001058
      dx2y2   :     0.002528
      dxy     :     0.005622
      f0      :    -0.000004  f :     0.000109
      f+1     :     0.000049
      f-1     :    -0.000003
      f+2     :    -0.000019
      f-2     :     0.000009
      f+3     :     0.000011
      f-3     :     0.000065
 16 Fes       :     0.010026  s :     0.010026
      pz      :     0.007481  p :     0.015956
      px      :     0.002620
      py      :     0.005854
      dz2     :     0.516526  d :     2.650541
      dxz     :     0.708166
      dyz     :     0.314132
      dx2y2   :     0.826247
      dxy     :     0.285469
      f0      :    -0.000001  f :    -0.000029
      f+1     :     0.000003
      f-1     :    -0.000017
      f+2     :    -0.000003
      f-2     :    -0.000003
      f+3     :    -0.000005
      f-3     :    -0.000001


                      *****************************
                      * MAYER POPULATION ANALYSIS *
                      *****************************

  NA   - Mulliken gross atomic population
  ZA   - Total nuclear charge
  QA   - Mulliken gross atomic charge
  VA   - Mayer's total valence
  BVA  - Mayer's bonded valence
  FA   - Mayer's free valence

  ATOM       NA         ZA         QA         VA         BVA        FA
  0 Au    18.7816    19.0000     0.2184     1.6265     1.6249     0.0016
  1 Au    18.7968    19.0000     0.2032     1.6619     1.6605     0.0014
  2 Au    19.4817    19.0000    -0.4817     2.2911     2.2845     0.0066
  3 Au    18.7177    19.0000     0.2823     1.5040     1.5024     0.0016
  4 Au    18.7614    19.0000     0.2386     1.6821     1.6800     0.0021
  5 Au    18.8011    19.0000     0.1989     1.6246     1.6099     0.0147
  6 Au    18.8224    19.0000     0.1776     1.6881     1.6863     0.0018
  7 Au    18.7986    19.0000     0.2014     1.6630     1.6616     0.0014
  8 Au    18.8323    19.0000     0.1677     1.6678     1.6567     0.0112
  9 Au    18.7980    19.0000     0.2020     1.6232     1.6087     0.0145
 10 Au    19.4918    19.0000    -0.4918     2.3033     2.2965     0.0068
 11 Au    18.7824    19.0000     0.2176     1.6265     1.6249     0.0017
 12 Au    18.7614    19.0000     0.2386     1.6822     1.6801     0.0021
 13 Au    18.8280    19.0000     0.1720     1.6921     1.6903     0.0018
 14 Au    18.8340    19.0000     0.1660     1.6707     1.6595     0.0112
 15 Au    18.7173    19.0000     0.2827     1.5049     1.5033     0.0015
 16 Fe    27.9934    26.0000    -1.9934     7.1715     4.5997     2.5719

  Mayer bond orders larger than 0.100000
B(  0-Au,  2-Au) :   0.2002 B(  0-Au,  5-Au) :   0.2286 B(  0-Au,  6-Au) :   0.2305 
B(  0-Au, 10-Au) :   0.3261 B(  0-Au, 11-Au) :   0.3395 B(  1-Au,  2-Au) :   0.1142 
B(  1-Au,  3-Au) :   0.1865 B(  1-Au,  4-Au) :   0.2078 B(  1-Au, 13-Au) :   0.2597 
B(  1-Au, 14-Au) :   0.2067 B(  1-Au, 16-Fe) :   0.4359 B(  2-Au,  4-Au) :   0.2884 
B(  2-Au,  5-Au) :   0.3888 B(  2-Au, 11-Au) :   0.3237 B(  2-Au, 13-Au) :   0.3885 
B(  2-Au, 16-Fe) :   0.3788 B(  3-Au,  4-Au) :   0.2031 B(  3-Au,  8-Au) :   0.1705 
B(  3-Au, 15-Au) :   0.2301 B(  3-Au, 16-Fe) :   0.3937 B(  4-Au,  5-Au) :   0.2954 
B(  4-Au,  8-Au) :   0.1898 B(  4-Au, 16-Fe) :   0.2776 B(  5-Au,  6-Au) :   0.2202 
B(  5-Au,  8-Au) :   0.1535 B(  5-Au, 16-Fe) :   0.1106 B(  6-Au,  7-Au) :   0.2587 
B(  6-Au,  8-Au) :   0.2014 B(  6-Au, 10-Au) :   0.3899 B(  6-Au, 16-Fe) :   0.1669 
B(  7-Au,  8-Au) :   0.2066 B(  7-Au, 10-Au) :   0.1156 B(  7-Au, 12-Au) :   0.2071 
B(  7-Au, 15-Au) :   0.1880 B(  7-Au, 16-Fe) :   0.4360 B(  8-Au, 16-Fe) :   0.4804 
B(  9-Au, 10-Au) :   0.3918 B(  9-Au, 11-Au) :   0.2280 B(  9-Au, 12-Au) :   0.2953 
B(  9-Au, 13-Au) :   0.2206 B(  9-Au, 14-Au) :   0.1512 B(  9-Au, 16-Fe) :   0.1091 
B( 10-Au, 11-Au) :   0.2023 B( 10-Au, 12-Au) :   0.2902 B( 10-Au, 16-Fe) :   0.3784 
B( 11-Au, 13-Au) :   0.2313 B( 12-Au, 14-Au) :   0.1918 B( 12-Au, 15-Au) :   0.2032 
B( 12-Au, 16-Fe) :   0.2746 B( 13-Au, 14-Au) :   0.2025 B( 13-Au, 16-Fe) :   0.1682 
B( 14-Au, 15-Au) :   0.1727 B( 14-Au, 16-Fe) :   0.4799 B( 15-Au, 16-Fe) :   0.3909 


-------
TIMINGS
-------

Total SCF time: 0 days 0 hours 8 min 53 sec 

Total time                  ....     533.648 sec
Sum of individual times     ....     529.824 sec  ( 99.3%)

Fock matrix formation       ....     493.836 sec  ( 92.5%)
  Split-RI-J                ....      95.883 sec  ( 19.4% of F)
  XC integration            ....     394.200 sec  ( 79.8% of F)
    Basis function eval.    ....      22.763 sec  (  5.8% of XC)
    Density eval.           ....     186.844 sec  ( 47.4% of XC)
    XC-Functional eval.     ....      12.392 sec  (  3.1% of XC)
    XC-Potential eval.      ....     167.080 sec  ( 42.4% of XC)
Diagonalization             ....      22.682 sec  (  4.3%)
Density matrix formation    ....       1.336 sec  (  0.3%)
Population analysis         ....       0.195 sec  (  0.0%)
Initial guess               ....       0.281 sec  (  0.1%)
Orbital Transformation      ....       0.000 sec  (  0.0%)
Orbital Orthonormalization  ....       0.243 sec  (  0.0%)
DIIS solution               ....      10.032 sec  (  1.9%)
Grid generation             ....       1.462 sec  (  0.3%)

Maximum memory used throughout the entire SCF-calculation: 124.0 MB

-------------------------   --------------------
FINAL SINGLE POINT ENERGY     -3437.272208984695
-------------------------   --------------------


                            ***************************************
                            *     ORCA property calculations      *
                            ***************************************

                                    ---------------------
                                    Active property flags
                                    ---------------------
   (+) Dipole Moment


------------------------------------------------------------------------------
                       ORCA ELECTRIC PROPERTIES CALCULATION
------------------------------------------------------------------------------

Dipole Moment Calculation                       ... on
Quadrupole Moment Calculation                   ... off
Polarizability Calculation                      ... off
GBWName                                         ... scan_job2.gbw
Electron density                                ... scan_job2.scfp
The origin for moment calculation is the CENTER OF MASS  = (13.473377, 15.428160 12.344673)

-------------
DIPOLE MOMENT
-------------
                                X             Y             Z
Electronic contribution:     22.85916      16.49566      -8.57738
Nuclear contribution   :    -23.21146     -16.74584       8.70709
                        -----------------------------------------
Total Dipole Moment    :     -0.35230      -0.25018       0.12972
                        -----------------------------------------
Magnitude (a.u.)       :      0.45115
Magnitude (Debye)      :      1.14673



--------------------
Rotational spectrum 
--------------------
 
Rotational constants in cm-1:     0.000887     0.000873     0.000760 
Rotational constants in MHz :    26.595397    26.169594    22.780533 

 Dipole components along the rotational axes: 
x,y,z [a.u.] :    -0.451141     0.000101    -0.002753 
x,y,z [Debye]:    -1.146709     0.000257    -0.006997 

 

Timings for individual modules:

Sum of individual times         ...      546.438 sec (=   9.107 min)
GTO integral calculation        ...       12.641 sec (=   0.211 min)   2.3 %
SCF iterations                  ...      533.797 sec (=   8.897 min)  97.7 %



                             ****ORCA TERMINATED NORMALLY****
TOTAL RUN TIME: 0 days 0 hours 15 minutes 38 seconds 0 msec
