
                                 *****************
                                 * O   R   C   A *
                                 *****************

                                            #,                                       
                                            ###                                      
                                            ####                                     
                                            #####                                    
                                            ######                                   
                                           ########,                                 
                                     ,,################,,,,,                         
                               ,,#################################,,                 
                          ,,##########################################,,             
                       ,#########################################, ''#####,          
                    ,#############################################,,   '####,        
                  ,##################################################,,,,####,       
                ,###########''''           ''''###############################       
              ,#####''   ,,,,##########,,,,          '''####'''          '####       
            ,##' ,,,,###########################,,,                        '##       
           ' ,,###''''                  '''############,,,                           
         ,,##''                                '''############,,,,        ,,,,,,###''
      ,#''                                            '''#######################'''  
     '                                                          ''''####''''         
             ,#######,   #######,   ,#######,      ##                                
            ,#'     '#,  ##    ##  ,#'     '#,    #''#        ######   ,####,        
            ##       ##  ##   ,#'  ##            #'  '#       #        #'  '#        
            ##       ##  #######   ##           ,######,      #####,   #    #        
            '#,     ,#'  ##    ##  '#,     ,#' ,#      #,         ##   #,  ,#        
             '#######'   ##     ##  '#######'  #'      '#     #####' # '####'        



                  #######################################################
                  #                        -***-                        #
                  #          Department of theory and spectroscopy      #
                  #    Directorship and core code : Frank Neese         #
                  #        Max Planck Institute fuer Kohlenforschung    #
                  #                Kaiser Wilhelm Platz 1               #
                  #                 D-45470 Muelheim/Ruhr               #
                  #                      Germany                        #
                  #                                                     #
                  #                  All rights reserved                #
                  #                        -***-                        #
                  #######################################################


                         Program Version 5.0.3 -  RELEASE  -


 With contributions from (in alphabetic order):
   Daniel Aravena         : Magnetic Suceptibility
   Michael Atanasov       : Ab Initio Ligand Field Theory (pilot matlab implementation)
   Alexander A. Auer      : GIAO ZORA, VPT2 properties, NMR spectrum
   Ute Becker             : Parallelization
   Giovanni Bistoni       : ED, misc. LED, open-shell LED, HFLD
   Martin Brehm           : Molecular dynamics
   Dmytro Bykov           : SCF Hessian
   Vijay G. Chilkuri      : MRCI spin determinant printing, contributions to CSF-ICE
   Dipayan Datta          : RHF DLPNO-CCSD density
   Achintya Kumar Dutta   : EOM-CC, STEOM-CC
   Dmitry Ganyushin       : Spin-Orbit,Spin-Spin,Magnetic field MRCI
   Miquel Garcia          : C-PCM and meta-GGA Hessian, CC/C-PCM, Gaussian charge scheme
   Yang Guo               : DLPNO-NEVPT2, F12-NEVPT2, CIM, IAO-localization
   Andreas Hansen         : Spin unrestricted coupled pair/coupled cluster methods
   Benjamin Helmich-Paris : MC-RPA, TRAH-SCF, COSX integrals
   Lee Huntington         : MR-EOM, pCC
   Robert Izsak           : Overlap fitted RIJCOSX, COSX-SCS-MP3, EOM
   Marcus Kettner         : VPT2
   Christian Kollmar      : KDIIS, OOCD, Brueckner-CCSD(T), CCSD density, CASPT2, CASPT2-K
   Simone Kossmann        : Meta GGA functionals, TD-DFT gradient, OOMP2, MP2 Hessian
   Martin Krupicka        : Initial AUTO-CI
   Lucas Lang             : DCDCAS
   Marvin Lechner         : AUTO-CI (C++ implementation), FIC-MRCC
   Dagmar Lenk            : GEPOL surface, SMD
   Dimitrios Liakos       : Extrapolation schemes; Compound Job, initial MDCI parallelization
   Dimitrios Manganas     : Further ROCIS development; embedding schemes
   Dimitrios Pantazis     : SARC Basis sets
   Anastasios Papadopoulos: AUTO-CI, single reference methods and gradients
   Taras Petrenko         : DFT Hessian,TD-DFT gradient, ASA, ECA, R-Raman, ABS, FL, XAS/XES, NRVS
   Peter Pinski           : DLPNO-MP2, DLPNO-MP2 Gradient
   Christoph Reimann      : Effective Core Potentials
   Marius Retegan         : Local ZFS, SOC
   Christoph Riplinger    : Optimizer, TS searches, QM/MM, DLPNO-CCSD(T), (RO)-DLPNO pert. Triples
   Tobias Risthaus        : Range-separated hybrids, TD-DFT gradient, RPA, STAB
   Michael Roemelt        : Original ROCIS implementation
   Masaaki Saitow         : Open-shell DLPNO-CCSD energy and density
   Barbara Sandhoefer     : DKH picture change effects
   Avijit Sen             : IP-ROCIS
   Kantharuban Sivalingam : CASSCF convergence, NEVPT2, FIC-MRCI
   Bernardo de Souza      : ESD, SOC TD-DFT
   Georgi Stoychev        : AutoAux, RI-MP2 NMR, DLPNO-MP2 response
   Willem Van den Heuvel  : Paramagnetic NMR
   Boris Wezisla          : Elementary symmetry handling
   Frank Wennmohs         : Technical directorship


 We gratefully acknowledge several colleagues who have allowed us to
 interface, adapt or use parts of their codes:
   Stefan Grimme, W. Hujo, H. Kruse, P. Pracht,  : VdW corrections, initial TS optimization,
                  C. Bannwarth, S. Ehlert          DFT functionals, gCP, sTDA/sTD-DF
   Ed Valeev, F. Pavosevic, A. Kumar             : LibInt (2-el integral package), F12 methods
   Garnet Chan, S. Sharma, J. Yang, R. Olivares  : DMRG
   Ulf Ekstrom                                   : XCFun DFT Library
   Mihaly Kallay                                 : mrcc  (arbitrary order and MRCC methods)
   Jiri Pittner, Ondrej Demel                    : Mk-CCSD
   Frank Weinhold                                : gennbo (NPA and NBO analysis)
   Christopher J. Cramer and Donald G. Truhlar   : smd solvation model
   Lars Goerigk                                  : TD-DFT with DH, B97 family of functionals
   V. Asgeirsson, H. Jonsson                     : NEB implementation
   FAccTs GmbH                                   : IRC, NEB, NEB-TS, DLPNO-Multilevel, CI-OPT
                                                   MM, QMMM, 2- and 3-layer-ONIOM, Crystal-QMMM,
                                                   LR-CPCM, SF, NACMEs, symmetry and pop. for TD-DFT,
                                                   nearIR, NL-DFT gradient (VV10), updates on ESD,
                                                   ML-optimized integration grids
   S Lehtola, MJT Oliveira, MAL Marques          : LibXC Library
   Liviu Ungur et al                             : ANISO software


 Your calculation uses the libint2 library for the computation of 2-el integrals
 For citations please refer to: http://libint.valeyev.net

 Your ORCA version has been built with support for libXC version: 5.1.0
 For citations please refer to: https://tddft.org/programs/libxc/

 This ORCA versions uses:
   CBLAS   interface :  Fast vector & matrix operations
   LAPACKE interface :  Fast linear algebra routines
   SCALAPACK package :  Parallel linear algebra routines
   Shared memory     :  Shared parallel matrices
   BLAS/LAPACK       :  OpenBLAS 0.3.15  USE64BITINT DYNAMIC_ARCH NO_AFFINITY Sandybridge SINGLE_THREADED
        Core in use  :  Sandybridge
   Copyright (c) 2011-2014, The OpenBLAS Project




***************************************
The coordinates will be read from file: pbe.xyz
***************************************


================================================================================

cite the ECPs for Au [Def2-ECP] as follows:
Ce-Yb(ecp-28): M. Dolg, H. Stoll, H.Preuss, J. Chem. Phys., 1989, 90, 1730-1734.
Y-Cd(ecp-28), Hf-Hg(ecp-46): D. Andrae,U. Haeussermann, M. Dolg, H. Stoll, H. Preuss, Theor. Chim. Acta, 1990, 77, 123-141.
In-Sb(ecp-28), Tl-Bi(ecp-46): B. Metz, H. Stoll, M. Dolg, J. Chem. Phys., 2000, 113, 2563-2569.
Te-Xe(ecp-28), Po-Rn(ecp-46): K. A. Peterson, D. Figgen, E. Goll, H. Stoll, M. Dolg, J. Chem. Phys., 2003, 119, 11113-11123.
Rb(ecp-28), Cs(ecp-46): T. Leininger, A. Nicklass, W. Kuechle, H. Stoll, M. Dolg, A. Bergner, Chem. Phys. Lett., 1996, 255, 274-280.
Sr(ecp-28), Ba(ecp-46): M. Kaupp, P. V. Schleyer, H. Stoll and H. Preuss, J. Chem. Phys., 1991, 94, 1360-1366.
La(ecp-46): M. Dolg, H. Stoll, A. Savin, H. Preuss, Theor. Chim. Acta, 1989, 75, 173-194.
Lu(ecp-28): X. Cao, M. Dolg, J. Chem. Phys., 2001, 115, 7348-7355.

ECP parameters for Au [Def2-ECP] have been obtained from:
TURBOMOLE (7.0.2)

----- Orbital basis set information -----
Your calculation utilizes the basis: def2-TZVP
   F. Weigend and R. Ahlrichs, Phys. Chem. Chem. Phys. 7, 3297 (2005).

----- AuxJ basis set information -----
Your calculation utilizes the auxiliary basis: def2/J
   F. Weigend, Phys. Chem. Chem. Phys. 8, 1057 (2006).

----- AuxC basis set information -----
Your calculation utilizes the auxiliary basis: def2-TZVP/C
  H-La, Hf-Rn : A. Hellweg, C. Hattig, S. Hofener and W. Klopper, Theor. Chem. Acc. 117, 587 (2007).
        Ce-Lu : J. Chmela and M. E. Harding, Mol. Phys. (2018).

================================================================================
                                        WARNINGS
                       Please study these warnings very carefully!
================================================================================


IMPORTANT NOTE: CASSCF must signal convergence for a subsequent CASPT2/NEVPT2! 
                Set maxiter=1 to run CASPT2/NEVPT2 with arbitrary orbitals.


INFO   : the flag for use of the SHARK integral package has been found!

================================================================================
                                       INPUT FILE
================================================================================
NAME = nevpt2.inp
|  1> !SC-NEVPT2 def2-TZVP def2-TZVP/C
|  2> !MOREAD RIJCOSX def2/J
|  3> %maxcore 4000
|  4> %moinp "casscf.gbw"
|  5> %pal nprocs 6 end 
|  6> 
|  7> %casscf
|  8>  mult 6,4
|  9>  bweight 1,1
| 10>  nroots 1,24
| 11>  nel 5
| 12>  norb 5
| 13>  ptsettings
| 14>   d4tpre 1e-14 # default = 1e-10
| 15>   d3tpre 1e-14
| 16>  end
| 17>  rel           
| 18>    dosoc true   
| 19>    gtensor true 
| 20>  end           
| 21> end
| 22> 
| 23> 
| 24> *xyzfile 0 6 pbe.xyz
| 25> 
| 26> 
| 27>                          ****END OF INPUT****
================================================================================

                       ****************************
                       * Single Point Calculation *
                       ****************************

---------------------------------
CARTESIAN COORDINATES (ANGSTROEM)
---------------------------------
  Au     7.854217    4.999847    8.065852
  Au     8.530977   10.233984    6.642292
  Au     8.368257    8.102018    4.650542
  Au    10.551111    8.257988    6.492332
  Au     9.731423    9.155870    8.963385
  Au     9.434991    5.804699    5.959332
  Au     6.615313    6.039235    5.747901
  Au     8.269088    6.982495   10.036340
  Au     5.772994    6.769128    8.778628
  Au     6.944722    9.346760    9.364526
  Au     4.147254    6.934988    6.525948
  Au     4.413037    9.158614    8.169101
  Au     6.131802   11.232155    7.486868
  Au     6.029521    8.934444    5.805718
  Mn     7.987004    7.687878    7.403734

----------------------------
CARTESIAN COORDINATES (A.U.)
----------------------------
  NO LB      ZA    FRAG     MASS         X           Y           Z
   0 Au   19.0000*   0   196.966   14.842320    9.448341   15.242251
   1 Au   19.0000*   0   196.966   16.121210   19.339427   12.552113
   2 Au   19.0000*   0   196.966   15.813715   15.310596    8.788251
   3 Au   19.0000*   0   196.966   19.938710   15.605336   12.268729
   4 Au   19.0000*   0   196.966   18.389725   17.302088   16.938343
   5 Au   19.0000*   0   196.966   17.829549   10.969291   11.261506
   6 Au   19.0000*   0   196.966   12.501129   11.412500   10.861958
   7 Au   19.0000*   0   196.966   15.626312   13.195003   18.965934
   8 Au   19.0000*   0   196.966   10.909377   12.791799   16.589204
   9 Au   19.0000*   0   196.966   13.123622   17.662817   17.696390
  10 Au   19.0000*   0   196.966    7.837175   13.105228   12.332254
  11 Au   19.0000*   0   196.966    8.339431   17.307272   15.437364
  12 Au   19.0000*   0   196.966   11.587427   21.225697   14.148131
  13 Au   19.0000*   0   196.966   11.394143   16.883652   10.971216
  14 Mn   25.0000    0    54.940   15.093250   14.527985   13.991031
* core charge reduced due to ECP

--------------------------------
INTERNAL COORDINATES (ANGSTROEM)
--------------------------------
 Au     0   0   0     0.000000000000     0.00000000     0.00000000
 Au     1   0   0     5.466326275461     0.00000000     0.00000000
 Au     2   1   0     2.922126585033    58.13021593     0.00000000
 Au     2   1   3     2.829839036101    55.49831390   287.18237239
 Au     4   2   1     2.753939736617    60.81128930   289.02884422
 Au     4   2   1     2.747442536609   110.10797645    31.47052373
 Au     1   2   3     2.826324760238    59.23997464   323.30376909
 Au     1   2   3     2.825921808906    59.44419770   173.70907414
 Au     8   1   2     2.803186067162    60.19940019    75.55730396
 Au     8   1   2     2.791958419557   110.89730052    38.05797700
 Au     7   1   2     2.738438035576   106.40004335   268.83464350
 Au    11   7   1     2.777608001421   110.10258692    68.52909095
 Au     2   1   3     2.732342405481    99.24131060   114.19439216
 Au     3   2   1     2.738074193842    62.49584904    77.08589746
 Mn     7   1   2     2.709492230074    60.04315434   354.87575026

---------------------------
INTERNAL COORDINATES (A.U.)
---------------------------
 Au     0   0   0     0.000000000000     0.00000000     0.00000000
 Au     1   0   0    10.329859619278     0.00000000     0.00000000
 Au     2   1   0     5.522018974363    58.13021593     0.00000000
 Au     2   1   3     5.347620781311    55.49831390   287.18237239
 Au     4   2   1     5.204191891530    60.81128930   289.02884422
 Au     4   2   1     5.191913962878   110.10797645    31.47052373
 Au     1   2   3     5.340979762371    59.23997464   323.30376909
 Au     1   2   3     5.340218294708    59.44419770   173.70907414
 Au     8   1   2     5.297253969360    60.19940019    75.55730396
 Au     8   1   2     5.276036790259   110.89730052    38.05797700
 Au     7   1   2     5.174897921953   106.40004335   268.83464350
 Au    11   7   1     5.248918430074   110.10258692    68.52909095
 Au     2   1   3     5.163378850459    99.24131060   114.19439216
 Au     3   2   1     5.174210360718    62.49584904    77.08589746
 Mn     7   1   2     5.120198276827    60.04315434   354.87575026

---------------------
BASIS SET INFORMATION
---------------------
There are 2 groups of distinct atoms

 Group   1 Type Au  : 8s7p6d1f contracted to 6s4p3d1f pattern {311111/4111/411/1}
 Group   2 Type Mn  : 17s11p7d1f contracted to 6s4p4d1f pattern {842111/6311/4111/1}

Atom   0Au   basis set group =>   1
Atom   1Au   basis set group =>   1
Atom   2Au   basis set group =>   1
Atom   3Au   basis set group =>   1
Atom   4Au   basis set group =>   1
Atom   5Au   basis set group =>   1
Atom   6Au   basis set group =>   1
Atom   7Au   basis set group =>   1
Atom   8Au   basis set group =>   1
Atom   9Au   basis set group =>   1
Atom  10Au   basis set group =>   1
Atom  11Au   basis set group =>   1
Atom  12Au   basis set group =>   1
Atom  13Au   basis set group =>   1
Atom  14Mn   basis set group =>   2
---------------------------------
AUXILIARY/J BASIS SET INFORMATION
---------------------------------
There are 2 groups of distinct atoms

 Group   1 Type Au  : 11s5p5d3f3g contracted to 8s5p5d2f3g pattern {41111111/11111/11111/21/111}
 Group   2 Type Mn  : 19s5p5d3f3g contracted to 8s5p5d2f3g pattern {121111111/11111/11111/21/111}

Atom   0Au   basis set group =>   1
Atom   1Au   basis set group =>   1
Atom   2Au   basis set group =>   1
Atom   3Au   basis set group =>   1
Atom   4Au   basis set group =>   1
Atom   5Au   basis set group =>   1
Atom   6Au   basis set group =>   1
Atom   7Au   basis set group =>   1
Atom   8Au   basis set group =>   1
Atom   9Au   basis set group =>   1
Atom  10Au   basis set group =>   1
Atom  11Au   basis set group =>   1
Atom  12Au   basis set group =>   1
Atom  13Au   basis set group =>   1
Atom  14Mn   basis set group =>   2
---------------------------------
AUXILIARY/C BASIS SET INFORMATION
---------------------------------
There are 2 groups of distinct atoms

 Group   1 Type Au  : 8s8p7d5f3g2h contracted to 8s8p7d5f3g2h pattern {11111111/11111111/1111111/11111/111/11}
 Group   2 Type Mn  : 11s9p8d6f5g2h contracted to 9s8p8d6f5g2h pattern {311111111/21111111/11111111/111111/11111/11}

Atom   0Au   basis set group =>   1
Atom   1Au   basis set group =>   1
Atom   2Au   basis set group =>   1
Atom   3Au   basis set group =>   1
Atom   4Au   basis set group =>   1
Atom   5Au   basis set group =>   1
Atom   6Au   basis set group =>   1
Atom   7Au   basis set group =>   1
Atom   8Au   basis set group =>   1
Atom   9Au   basis set group =>   1
Atom  10Au   basis set group =>   1
Atom  11Au   basis set group =>   1
Atom  12Au   basis set group =>   1
Atom  13Au   basis set group =>   1
Atom  14Mn   basis set group =>   2
-------------------------
ECP PARAMETER INFORMATION
-------------------------

 Group 1, Type Au ECP Def2-ECP (replacing 60 core electrons, lmax=3)

Atom   0Au   ECP group =>   1
Atom   1Au   ECP group =>   1
Atom   2Au   ECP group =>   1
Atom   3Au   ECP group =>   1
Atom   4Au   ECP group =>   1
Atom   5Au   ECP group =>   1
Atom   6Au   ECP group =>   1
Atom   7Au   ECP group =>   1
Atom   8Au   ECP group =>   1
Atom   9Au   ECP group =>   1
Atom  10Au   ECP group =>   1
Atom  11Au   ECP group =>   1
Atom  12Au   ECP group =>   1
Atom  13Au   ECP group =>   1



           ************************************************************
           *        Program running with 6 parallel MPI-processes     *
           *              working on a common directory               *
           ************************************************************
------------------------------------------------------------------------------
                           ORCA GTO INTEGRAL CALCULATION
                           -- RI-GTO INTEGRALS CHOSEN --
------------------------------------------------------------------------------
------------------------------------------------------------------------------
                   ___                                                        
                  /   \      - P O W E R E D   B Y -                         
                 /     \                                                     
                 |  |  |   _    _      __       _____    __    __             
                 |  |  |  | |  | |    /  \     |  _  \  |  |  /  |          
                  \  \/   | |  | |   /    \    | | | |  |  | /  /          
                 / \  \   | |__| |  /  /\  \   | |_| |  |  |/  /          
                |  |  |   |  __  | /  /__\  \  |    /   |      \           
                |  |  |   | |  | | |   __   |  |    \   |  |\   \          
                \     /   | |  | | |  |  |  |  | |\  \  |  | \   \       
                 \___/    |_|  |_| |__|  |__|  |_| \__\ |__|  \__/        
                                                                              
                      - O R C A' S   B I G   F R I E N D -                    
                                      &                                       
                       - I N T E G R A L  F E E D E R -                       
                                                                              
 v1 FN, 2020, v2 2021                                                         
------------------------------------------------------------------------------


Reading SHARK input file nevpt2.SHARKINP.tmp ... ok
----------------------
SHARK INTEGRAL PACKAGE
----------------------

Number of atoms                             ...     15
Number of basis functions                   ...    605
Number of shells                            ...    211
Maximum angular momentum                    ...      3
Integral batch strategy                     ... SHARK/LIBINT Hybrid
RI-J (if used) integral strategy            ... SPLIT-RIJ (Revised 2003 algorithm where possible)
Printlevel                                  ...      1
Contraction scheme used                     ... SEGMENTED contraction
Coulomb Range Separation                    ... NOT USED
Exchange Range Separation                   ... NOT USED
Finite Nucleus Model                        ... NOT USED
Auxiliary Coulomb fitting basis             ... AVAILABLE
   # of basis functions in Aux-J            ...   1335
   # of shells in Aux-J                     ...    345
   Maximum angular momentum in Aux-J        ...      4
Auxiliary J/K fitting basis                 ... NOT available
Auxiliary Correlation fitting basis         ... AVAILABLE
   # of basis functions in Aux-C            ...   2296
   # of shells in Aux-C                     ...    500
   Maximum angular momentum in Aux-C        ...      5
Auxiliary 'external' fitting basis          ... NOT available
Integral threshold                          ...     1.000000e-10
Primitive cut-off                           ...     1.000000e-11
Primitive pair pre-selection threshold      ...     1.000000e-11

Calculating pre-screening integrals         ... done (  0.3 sec) Dimension = 211
Organizing shell pair data                  ... done (  2.4 sec)
Shell pair information
Total number of shell pairs                 ...     22366
Shell pairs after pre-screening             ...     17899
Total number of primitive shell pairs       ...     59609
Primitive shell pairs kept                  ...     34544
          la=0 lb=0:   2808 shell pairs
          la=1 lb=0:   4073 shell pairs
          la=1 lb=1:   1537 shell pairs
          la=2 lb=0:   3555 shell pairs
          la=2 lb=1:   2513 shell pairs
          la=2 lb=2:   1028 shell pairs
          la=3 lb=0:    940 shell pairs
          la=3 lb=1:    718 shell pairs
          la=3 lb=2:    628 shell pairs
          la=3 lb=3:     99 shell pairs

Calculating one electron integrals          ... done (  0.1 sec)
Calculating ECP integrals                   ... done ( 19.8 sec)
Calculating RI/J V-Matrix + Cholesky decomp.... done (  0.1 sec)
Calculating RI/C V-Matrix + Cholesky decomp.... done (  0.5 sec)
Calculating Nuclear repulsion               ... done (  0.0 sec) ENN=   5671.397744848498 Eh

SHARK setup successfully completed in  24.2 seconds

Maximum memory used throughout the entire GTOINT-calculation: 49.5 MB


           ************************************************************
           *        Program running with 6 parallel MPI-processes     *
           *              working on a common directory               *
           ************************************************************
-------------------------------------------------------------------------------
                                 ORCA SCF
-------------------------------------------------------------------------------

------------
SCF SETTINGS
------------
Hamiltonian:
 Ab initio Hamiltonian  Method          .... Hartree-Fock(GTOs)
 RI-approximation to the Coulomb term is turned on
   Number of AuxJ basis functions       .... 1335
   RIJ-COSX (HFX calculated with COS-X)).... on


General Settings:
 Integral files         IntName         .... nevpt2
 Hartree-Fock type      HFTyp           .... CASSCF
 Total Charge           Charge          ....    0
 Multiplicity           Mult            ....    6
 Number of Electrons    NEL             ....  291
 Basis Dimension        Dim             ....  605
 Nuclear Repulsion      ENuc            ....   5671.3977448485 Eh


Diagonalization of the overlap matrix:
Smallest eigenvalue                        ... 2.487e-04
Time for diagonalization                   ...    0.154 sec
Threshold for overlap eigenvalues          ... 1.000e-08
Number of eigenvalues below threshold      ... 0
Time for construction of square roots      ...    0.117 sec
Total time needed                          ...    0.274 sec

---------------------
INITIAL GUESS: MOREAD
---------------------
Guess MOs are being read from file: casscf.gbw
Input Geometry matches current geometry (good)
Input basis set matches current basis set (good)
MOs were renormalized
Gram-Schmidt orthogonalization of all MOs with pivot on actives
                      ------------------
                      INITIAL GUESS DONE (   9.3 sec)
                      ------------------
--------------------
COSX GRID GENERATION
--------------------

GRIDX 1
-------
General Integration Accuracy     IntAcc      ... 3.816
Radial Grid Type                 RadialGrid  ... OptM3 with GC (2021)
Angular Grid (max. ang.)         AngularGrid ... 1 (Lebedev-50)
Angular grid pruning method      GridPruning ... 4 (adaptive)
Weight generation scheme         WeightScheme... Becke
Basis function cutoff            BFCut       ... 1.0000e-10
Integration weight cutoff        WCut        ... 1.0000e-14
Angular grids for H and He will be reduced by one unit
Partially contracted basis set               ... on
Rotationally invariant grid construction     ... off

Total number of grid points                  ...    17338
Total number of batches                      ...      278
Average number of points per batch           ...       62
Average number of grid points per atom       ...     1156
UseSFitting                                  ... on

GRIDX 2
-------
General Integration Accuracy     IntAcc      ... 4.020
Radial Grid Type                 RadialGrid  ... OptM3 with GC (2021)
Angular Grid (max. ang.)         AngularGrid ... 2 (Lebedev-110)
Angular grid pruning method      GridPruning ... 4 (adaptive)
Weight generation scheme         WeightScheme... Becke
Basis function cutoff            BFCut       ... 1.0000e-10
Integration weight cutoff        WCut        ... 1.0000e-14
Angular grids for H and He will be reduced by one unit
Partially contracted basis set               ... on
Rotationally invariant grid construction     ... off

Total number of grid points                  ...    52601
Total number of batches                      ...      830
Average number of points per batch           ...       63
Average number of grid points per atom       ...     3507
UseSFitting                                  ... on

GRIDX 3
-------
General Integration Accuracy     IntAcc      ... 4.338
Radial Grid Type                 RadialGrid  ... OptM3 with GC (2021)
Angular Grid (max. ang.)         AngularGrid ... 3 (Lebedev-194)
Angular grid pruning method      GridPruning ... 4 (adaptive)
Weight generation scheme         WeightScheme... Becke
Basis function cutoff            BFCut       ... 1.0000e-10
Integration weight cutoff        WCut        ... 1.0000e-14
Angular grids for H and He will be reduced by one unit
Partially contracted basis set               ... on
Rotationally invariant grid construction     ... off

Total number of grid points                  ...    95716
Total number of batches                      ...     1503
Average number of points per batch           ...       63
Average number of grid points per atom       ...     6381
UseSFitting                                  ... on

Time for X-Grid setup             =    1.995 sec



 ... the calculation is a CASSCF calculation -I'm leaving here GOOD LUCK!!!



           ************************************************************
           *        Program running with 6 parallel MPI-processes     *
           *              working on a common directory               *
           ************************************************************
-------------------------------------------------------------------------------
                              ORCA-CASSCF
-------------------------------------------------------------------------------

Setting up the integral package       ... done
Setting up the integral package (RI)  ... done
Building the CAS space                ... done (1 configurations for Mult=6)
Building the CAS space                ... done (21 configurations for Mult=4)

 CASSCF (estimated) memory needed     ... 150.4 MB
 NEVPT2 (estimated) memory needed     ... 548.6 MB


SYSTEM-SPECIFIC SETTINGS:
Number of active electrons          ...    5
Number of active orbitals           ...    5
Total number of electrons           ...  291
Total number of orbitals            ...  605
Total number aux. functions         ... 2296

Determined orbital ranges:
   Internal       0 -  142 ( 143 orbitals)
   Active       143 -  147 (   5 orbitals)
   External     148 -  604 ( 457 orbitals)
Number of rotation parameters      ...  68351

CI-STEP:
CI strategy                         ... General CI
Number of multiplicity blocks       ...    2
BLOCK  1 WEIGHT=   0.5000
  Multiplicity                      ...    6
  #(Configurations)                 ...    1
  #(CSFs)                           ...    1
  #(Roots)                          ...    1
    ROOT=0 WEIGHT=    0.500000

BLOCK  2 WEIGHT=   0.5000
  Multiplicity                      ...    4
  #(Configurations)                 ...   21
  #(CSFs)                           ...   24
  #(Roots)                          ...   24
    ROOT=0 WEIGHT=    0.020833
    ROOT=1 WEIGHT=    0.020833
    ROOT=2 WEIGHT=    0.020833
    ROOT=3 WEIGHT=    0.020833
    ROOT=4 WEIGHT=    0.020833
    ROOT=5 WEIGHT=    0.020833
    ROOT=6 WEIGHT=    0.020833
    ROOT=7 WEIGHT=    0.020833
    ROOT=8 WEIGHT=    0.020833
    ROOT=9 WEIGHT=    0.020833
    ROOT=10 WEIGHT=    0.020833
    ROOT=11 WEIGHT=    0.020833
    ROOT=12 WEIGHT=    0.020833
    ROOT=13 WEIGHT=    0.020833
    ROOT=14 WEIGHT=    0.020833
    ROOT=15 WEIGHT=    0.020833
    ROOT=16 WEIGHT=    0.020833
    ROOT=17 WEIGHT=    0.020833
    ROOT=18 WEIGHT=    0.020833
    ROOT=19 WEIGHT=    0.020833
    ROOT=20 WEIGHT=    0.020833
    ROOT=21 WEIGHT=    0.020833
    ROOT=22 WEIGHT=    0.020833
    ROOT=23 WEIGHT=    0.020833

  PrintLevel                        ...    1
  N(GuessMat)                       ...       512
  MaxDim(CI)                        ...        10
  MaxIter(CI)                       ...        64
  Energy Tolerance CI               ...  1.00e-08
  Residual Tolerance CI             ...  1.00e-08
  Shift(CI)                         ...  1.00e-04

INTEGRAL-TRANSFORMATION-STEP:
  Algorithm                         ... RI-MO

ORBITAL-IMPROVEMENT-STEP:
  Algorithm                         ... SuperCI(PT)
  Default Parametrization           ... CAYLEY
  Act-Act rotations                 ... depends on algorithm used

  Note: SuperCI(PT) will ignore FreezeIE, FreezeAct and FreezeGrad. In general Default settings are encouraged.
        In conjunction with ShiftUp, ShiftDn or GradScaling the performance of SuperCI(PT) is less optimal.  

  MaxRot                            ... 2.00e-01 
  Max. no of vectors (DIIS)         ... 15
  DThresh (cut-off) metric          ... 1.00e-06
  Switch step at gradient           ...  3.00e-02 
  Switch step at iteration          ...        50   
  Switch step to                    ... SuperCI(PT)    

SCF-SETTINGS:
  Incremental                       ... off
  RIJCOSX approximation             ... on
  UseFinalGrid                      ... on
  RI-JK approximation               ... off
  AO integral handling              ... DIRECT
  Integral Neglect Thresh           ...  1.00e-10
  Primitive cutoff TCut             ...  1.00e-11
  Energy convergence tolerance      ...  1.00e-07
  Orbital gradient convergence      ...  1.00e-03
  Max. number of iterations         ...        75  

PT2-SETTINGS:
  A PT2 calculation will be performed on top of the CASSCF wave function (PT2 = SC-NEVPT2)   
 CI step strategy                   ... General CI
  D4C handling                      ... on the fly 
  CI truncation for D4C at          ...  1.00e-14
  CI truncation for D3  at          ...  1.00e-14
  Orbitals                          ... canonical for each state 
  Last  frozen  orbital             ... 4
  First deleted orbital             ... 605
  RI Step                           ... store IJV(array) (MC_ONDISK during integral transformation) 

PROPERTIES-SETTINGS:
  Spin orbit coupling               ... true
  GTensor                           ... true
  QDPT diagonal energies            ... NEVPT2 energies 

FINAL ORBITALS:
  Active   Orbitals                 ... natural 
  Internal Orbitals                 ... canonical 
  External Orbitals                 ... canonical 

------------------
CAS-SCF ITERATIONS
------------------


MACRO-ITERATION   1: 
   --- Inactive Energy E0 = -3026.68224383 Eh
CI-ITERATION   0: 
 -3037.242582665   0.000000000000 (    0.00)
   CI-PROBLEM SOLVED
   DENSITIES MADE
CI-ITERATION   0: 
 -3037.107609112   0.000000000000 (    0.00)
 -3037.106908765   0.000000000000
 -3037.106674647   0.000000000000
 -3037.106591407   0.000000000000
 -3037.106436781   0.000000000000
 -3037.106366223   0.000000000000
 -3037.106230611   0.000000000000
 -3037.106069008   0.000000000000
 -3037.105547951   0.000000000000
 -3037.087382499   0.000000000000
 -3037.086568206   0.000000000000
 -3037.084941820   0.000000000000
 -3037.074128130   0.000000000000
 -3037.073777953   0.000000000000
 -3037.072402018   0.000000000000
 -3037.069898384   0.000000000000
 -3037.069165719   0.000000000000
 -3037.012847905   0.000000000000
 -3037.012622968   0.000000000000
 -3037.012502592   0.000000000000
 -3037.011762176   0.000000000000
 -3037.011515661   0.000000000000
 -3037.009403609   0.000000000000
 -3037.008987897   0.000000000000
   CI-PROBLEM SOLVED
   DENSITIES MADE

                 <<<<<<<<<<<<<<<<<<INITIAL CI STATE CHECK>>>>>>>>>>>>>>>>>>

BLOCK  1 MULT= 6 NROOTS= 1 
ROOT   0:  E=   -3037.2425826649 Eh
      1.00000 [     0]: 11111

BLOCK  2 MULT= 4 NROOTS=24 
ROOT   0:  E=   -3037.1076091118 Eh
      0.19535 [    14]: 10211
      0.16193 [    16]: 10112
      0.14820 [    10]: 11111
      0.08068 [     6]: 12011
      0.06016 [     4]: 12110
      0.05823 [     8]: 11201
      0.05063 [    15]: 10121
      0.04150 [    11]: 11102
      0.03790 [    19]: 01121
      0.03445 [    20]: 01112
      0.02536 [     5]: 12101
      0.02283 [     9]: 11120
      0.02091 [    12]: 11021
      0.01786 [     0]: 21110
      0.01725 [    13]: 11012
      0.01279 [     1]: 21101
      0.00599 [     7]: 11210
      0.00348 [     3]: 20111
      0.00271 [    18]: 01211
ROOT   1:  E=   -3037.1069087653 Eh  0.019 eV    153.7 cm**-1
      0.15833 [    10]: 11111
      0.12638 [    13]: 11012
      0.10229 [    20]: 01112
      0.09144 [    15]: 10121
      0.07519 [     7]: 11210
      0.06608 [     3]: 20111
      0.06425 [     5]: 12101
      0.06328 [    18]: 01211
      0.05703 [     0]: 21110
      0.04903 [    14]: 10211
      0.04641 [    17]: 02111
      0.04246 [     2]: 21011
      0.03461 [     6]: 12011
      0.01237 [    12]: 11021
      0.00786 [     8]: 11201
ROOT   2:  E=   -3037.1066746469 Eh  0.025 eV    205.1 cm**-1
      0.20303 [     3]: 20111
      0.12752 [    17]: 02111
      0.08420 [     9]: 11120
      0.08344 [    10]: 11111
      0.07991 [    15]: 10121
      0.06619 [    11]: 11102
      0.05600 [     5]: 12101
      0.05517 [     7]: 11210
      0.05150 [    13]: 11012
      0.04902 [     0]: 21110
      0.04137 [    20]: 01112
      0.01712 [     1]: 21101
      0.01682 [     4]: 12110
      0.01591 [    14]: 10211
      0.01196 [    16]: 10112
      0.01153 [    12]: 11021
      0.00991 [     2]: 21011
      0.00837 [    19]: 01121
      0.00802 [     6]: 12011
      0.00291 [    18]: 01211
ROOT   3:  E=   -3037.1065914072 Eh  0.028 eV    223.4 cm**-1
      0.60101 [    10]: 11111
      0.07827 [    11]: 11102
      0.07697 [    19]: 01121
      0.06266 [     1]: 21101
      0.03318 [    20]: 01112
      0.02952 [    15]: 10121
      0.02749 [     9]: 11120
      0.01943 [     3]: 20111
      0.01701 [    12]: 11021
      0.01150 [    14]: 10211
      0.00987 [     5]: 12101
      0.00725 [     8]: 11201
      0.00723 [    13]: 11012
      0.00629 [    17]: 02111
      0.00541 [     7]: 11210
      0.00303 [     6]: 12011
ROOT   4:  E=   -3037.1064367805 Eh  0.032 eV    257.3 cm**-1
      0.14892 [     1]: 21101
      0.13762 [    12]: 11021
      0.12604 [    19]: 01121
      0.12535 [     8]: 11201
      0.09685 [    10]: 11111
      0.08632 [     9]: 11120
      0.06517 [     0]: 21110
      0.03679 [    15]: 10121
      0.03629 [    11]: 11102
      0.03190 [    20]: 01112
      0.02928 [     5]: 12101
      0.01954 [     3]: 20111
      0.01604 [    17]: 02111
      0.01428 [    14]: 10211
      0.01153 [     6]: 12011
      0.00970 [     7]: 11210
      0.00493 [    18]: 01211
ROOT   5:  E=   -3037.1063662231 Eh  0.034 eV    272.8 cm**-1
      0.22461 [    14]: 10211
      0.17623 [     6]: 12011
      0.17142 [    16]: 10112
      0.13290 [     4]: 12110
      0.06901 [     3]: 20111
      0.05823 [    10]: 11111
      0.05033 [    17]: 02111
      0.02766 [    15]: 10121
      0.02434 [     5]: 12101
      0.01839 [    12]: 11021
      0.01602 [    19]: 01121
      0.01387 [     8]: 11201
      0.01222 [     1]: 21101
ROOT   6:  E=   -3037.1062306114 Eh  0.038 eV    302.5 cm**-1
      0.61707 [    10]: 11111
      0.06766 [    20]: 01112
      0.06289 [     0]: 21110
      0.05854 [     2]: 21011
      0.05626 [    13]: 11012
      0.05608 [     7]: 11210
      0.04281 [    18]: 01211
      0.00837 [     1]: 21101
      0.00546 [    11]: 11102
      0.00488 [     9]: 11120
      0.00416 [    19]: 01121
      0.00377 [    15]: 10121
      0.00333 [     5]: 12101
      0.00292 [    12]: 11021
ROOT   7:  E=   -3037.1060690079 Eh  0.042 eV    338.0 cm**-1
      0.62908 [    10]: 11111
      0.11766 [    18]: 01211
      0.11112 [     2]: 21011
      0.03177 [    11]: 11102
      0.02792 [    16]: 10112
      0.02321 [     4]: 12110
      0.01271 [     9]: 11120
      0.00797 [     6]: 12011
      0.00763 [    19]: 01121
      0.00677 [    14]: 10211
      0.00585 [    17]: 02111
      0.00567 [    20]: 01112
      0.00526 [    13]: 11012
ROOT   8:  E=   -3037.1055479511 Eh  0.056 eV    452.4 cm**-1
      0.17884 [    12]: 11021
      0.17582 [     8]: 11201
      0.16277 [    20]: 01112
      0.13763 [    10]: 11111
      0.13042 [     0]: 21110
      0.07606 [    11]: 11102
      0.06364 [     9]: 11120
      0.02532 [     1]: 21101
      0.02299 [    19]: 01121
      0.00745 [     7]: 11210
      0.00533 [    13]: 11012
      0.00427 [    15]: 10121
      0.00268 [     3]: 20111
ROOT   9:  E=   -3037.0873824993 Eh  0.550 eV   4439.2 cm**-1
      0.21779 [     0]: 21110
      0.20078 [    20]: 01112
      0.16118 [     9]: 11120
      0.10485 [    15]: 10121
      0.06816 [     3]: 20111
      0.06543 [    13]: 11012
      0.05877 [    14]: 10211
      0.03944 [    10]: 11111
      0.02833 [    11]: 11102
      0.02388 [    18]: 01211
      0.00972 [     2]: 21011
      0.00573 [     5]: 12101
      0.00550 [    19]: 01121
      0.00371 [    17]: 02111
      0.00291 [     6]: 12011
ROOT  10:  E=   -3037.0865682057 Eh  0.573 eV   4617.9 cm**-1
      0.31026 [    12]: 11021
      0.15412 [     1]: 21101
      0.14546 [    16]: 10112
      0.11109 [     8]: 11201
      0.05880 [    10]: 11111
      0.04718 [     3]: 20111
      0.03766 [    15]: 10121
      0.02869 [    19]: 01121
      0.02522 [     2]: 21011
      0.01831 [    18]: 01211
      0.01582 [     4]: 12110
      0.01549 [    13]: 11012
      0.01152 [     6]: 12011
      0.00616 [    20]: 01112
      0.00379 [    11]: 11102
      0.00374 [     0]: 21110
      0.00270 [     7]: 11210
ROOT  11:  E=   -3037.0849418203 Eh  0.617 eV   4974.9 cm**-1
      0.29131 [     6]: 12011
      0.20247 [    14]: 10211
      0.13618 [    17]: 02111
      0.06396 [     3]: 20111
      0.04264 [     9]: 11120
      0.03659 [     4]: 12110
      0.03040 [    11]: 11102
      0.02867 [    19]: 01121
      0.02353 [    15]: 10121
      0.02148 [     0]: 21110
      0.02024 [    16]: 10112
      0.01941 [     7]: 11210
      0.01862 [     5]: 12101
      0.01642 [    13]: 11012
      0.01297 [    20]: 01112
      0.01250 [     1]: 21101
      0.00999 [     8]: 11201
      0.00493 [    10]: 11111
      0.00449 [     2]: 21011
ROOT  12:  E=   -3037.0741281304 Eh  0.911 eV   7348.2 cm**-1
      0.12600 [    15]: 10121
      0.12274 [     3]: 20111
      0.12040 [    10]: 11111
      0.11287 [    16]: 10112
      0.06967 [    11]: 11102
      0.05837 [    20]: 01112
      0.05657 [     5]: 12101
      0.04665 [     9]: 11120
      0.04139 [     0]: 21110
      0.03789 [    13]: 11012
      0.03279 [     8]: 11201
      0.03055 [    17]: 02111
      0.02761 [     4]: 12110
      0.02557 [     6]: 12011
      0.02504 [    14]: 10211
      0.02482 [     7]: 11210
      0.02064 [    12]: 11021
      0.00946 [    19]: 01121
      0.00519 [     1]: 21101
      0.00367 [     2]: 21011
ROOT  13:  E=   -3037.0737779525 Eh  0.921 eV   7425.1 cm**-1
      0.54150 [    10]: 11111
      0.16950 [    19]: 01121
      0.11235 [     1]: 21101
      0.05335 [     2]: 21011
      0.03434 [    12]: 11021
      0.02740 [    11]: 11102
      0.01740 [    18]: 01211
      0.01568 [     8]: 11201
      0.01204 [    13]: 11012
      0.00277 [     0]: 21110
      0.00250 [     5]: 12101
ROOT  14:  E=   -3037.0724020178 Eh  0.958 eV   7727.1 cm**-1
      0.37832 [    10]: 11111
      0.13189 [     2]: 21011
      0.12553 [    18]: 01211
      0.09764 [    13]: 11012
      0.09219 [     7]: 11210
      0.04820 [    11]: 11102
      0.03520 [     9]: 11120
      0.01466 [    15]: 10121
      0.01048 [     5]: 12101
      0.00970 [     1]: 21101
      0.00861 [     3]: 20111
      0.00785 [    19]: 01121
      0.00778 [    14]: 10211
      0.00741 [     0]: 21110
      0.00632 [    17]: 02111
      0.00555 [     6]: 12011
      0.00525 [     8]: 11201
      0.00421 [    12]: 11021
      0.00274 [    20]: 01112
ROOT  15:  E=   -3037.0698983843 Eh  1.026 eV   8276.5 cm**-1
      0.17777 [    10]: 11111
      0.17489 [     4]: 12110
      0.13923 [     8]: 11201
      0.11626 [    19]: 01121
      0.06050 [    16]: 10112
      0.05802 [     9]: 11120
      0.05313 [    17]: 02111
      0.05011 [     7]: 11210
      0.03436 [     0]: 21110
      0.03377 [     5]: 12101
      0.02487 [    15]: 10121
      0.02482 [    11]: 11102
      0.01970 [     3]: 20111
      0.01124 [    13]: 11012
      0.00898 [     2]: 21011
      0.00521 [     6]: 12011
      0.00504 [    20]: 01112
ROOT  16:  E=   -3037.0691657193 Eh  1.046 eV   8437.3 cm**-1
      0.11968 [    10]: 11111
      0.10895 [     7]: 11210
      0.10477 [     5]: 12101
      0.10153 [     2]: 21011
      0.09542 [    11]: 11102
      0.07641 [     0]: 21110
      0.07388 [    18]: 01211
      0.06707 [    17]: 02111
      0.06013 [     6]: 12011
      0.05909 [    13]: 11012
      0.03771 [    20]: 01112
      0.03222 [    15]: 10121
      0.02052 [     3]: 20111
      0.01861 [    14]: 10211
      0.00999 [    12]: 11021
      0.00504 [    19]: 01121
      0.00489 [     8]: 11201
ROOT  17:  E=   -3037.0128479049 Eh  2.579 eV  20797.7 cm**-1
      0.16280 [     4]: 12110
      0.12353 [    16]: 10112
      0.08845 [    19]: 01121
      0.08444 [     1]: 21101
      0.08203 [    11]: 11102
      0.07610 [     5]: 12101
      0.07589 [     9]: 11120
      0.05844 [    15]: 10121
      0.03535 [    20]: 01112
      0.03105 [     0]: 21110
      0.03013 [    14]: 10211
      0.02883 [     6]: 12011
      0.02550 [     8]: 11201
      0.02490 [    13]: 11012
      0.02444 [    12]: 11021
      0.02085 [     7]: 11210
      0.01533 [    17]: 02111
      0.00727 [     3]: 20111
      0.00284 [     2]: 21011
ROOT  18:  E=   -3037.0126229681 Eh  2.585 eV  20847.0 cm**-1
      0.16169 [     7]: 11210
      0.14815 [    13]: 11012
      0.11268 [    18]: 01211
      0.09497 [     8]: 11201
      0.09046 [     2]: 21011
      0.08791 [    12]: 11021
      0.05801 [     1]: 21101
      0.04962 [    19]: 01121
      0.02495 [    20]: 01112
      0.02439 [     5]: 12101
      0.02333 [     0]: 21110
      0.02313 [     9]: 11120
      0.01991 [     6]: 12011
      0.01837 [    17]: 02111
      0.01585 [    15]: 10121
      0.01465 [    11]: 11102
      0.01375 [    14]: 10211
      0.01182 [     3]: 20111
      0.00338 [    10]: 11111
ROOT  19:  E=   -3037.0125025916 Eh  2.588 eV  20873.5 cm**-1
      0.12243 [    17]: 02111
      0.11327 [     2]: 21011
      0.10798 [    18]: 01211
      0.08581 [     3]: 20111
      0.07471 [     4]: 12110
      0.05433 [     8]: 11201
      0.04956 [     1]: 21101
      0.04745 [    12]: 11021
      0.04613 [    16]: 10112
      0.04279 [    19]: 01121
      0.03964 [     9]: 11120
      0.03183 [     5]: 12101
      0.03167 [    11]: 11102
      0.03031 [     7]: 11210
      0.02515 [    13]: 11012
      0.02381 [     6]: 12011
      0.02108 [    15]: 10121
      0.01875 [     0]: 21110
      0.01766 [    14]: 10211
      0.01528 [    20]: 01112
ROOT  20:  E=   -3037.0117621758 Eh  2.608 eV  21036.0 cm**-1
      0.20312 [     5]: 12101
      0.12460 [    15]: 10121
      0.11979 [    17]: 02111
      0.10491 [     6]: 12011
      0.07366 [     3]: 20111
      0.06384 [    14]: 10211
      0.05415 [     0]: 21110
      0.04962 [     9]: 11120
      0.04823 [    20]: 01112
      0.04266 [    11]: 11102
      0.02130 [    12]: 11021
      0.02091 [     8]: 11201
      0.01967 [     2]: 21011
      0.01884 [    18]: 01211
      0.01192 [     1]: 21101
      0.00629 [    13]: 11012
      0.00587 [     7]: 11210
      0.00527 [    19]: 01121
      0.00280 [     4]: 12110
ROOT  21:  E=   -3037.0115156612 Eh  2.615 eV  21090.1 cm**-1
      0.13697 [    18]: 01211
      0.13347 [     1]: 21101
      0.11376 [     2]: 21011
      0.09756 [    19]: 01121
      0.08634 [    11]: 11102
      0.08076 [     9]: 11120
      0.07104 [    20]: 01112
      0.06741 [     0]: 21110
      0.03858 [    13]: 11012
      0.03530 [    17]: 02111
      0.03101 [     7]: 11210
      0.02301 [     8]: 11201
      0.02300 [     3]: 20111
      0.01951 [     5]: 12101
      0.01078 [    12]: 11021
      0.01017 [    15]: 10121
      0.00618 [     4]: 12110
      0.00448 [     6]: 12011
      0.00441 [    14]: 10211
      0.00404 [    10]: 11111
ROOT  22:  E=   -3037.0094036091 Eh  2.672 eV  21553.6 cm**-1
      0.23240 [     7]: 11210
      0.17049 [    13]: 11012
      0.12316 [    18]: 01211
      0.09426 [     2]: 21011
      0.07610 [     9]: 11120
      0.07592 [    11]: 11102
      0.06835 [     1]: 21101
      0.06791 [     8]: 11201
      0.03796 [    19]: 01121
      0.02003 [    10]: 11111
      0.01968 [    12]: 11021
      0.01105 [     0]: 21110
ROOT  23:  E=   -3037.0089878965 Eh  2.684 eV  21644.9 cm**-1
      0.25976 [     4]: 12110
      0.19459 [     5]: 12101
      0.13344 [    17]: 02111
      0.10802 [    16]: 10112
      0.09159 [     6]: 12011
      0.07952 [    15]: 10121
      0.05846 [     3]: 20111
      0.03464 [    14]: 10211
      0.00979 [     1]: 21101
      0.00711 [    19]: 01121
      0.00627 [    12]: 11021
      0.00617 [     9]: 11120
      0.00408 [     0]: 21110
      0.00268 [     8]: 11201

                 <<<<<<<<<<<<<<<<<<INITIAL CI STATE CHECK>>>>>>>>>>>>>>>>>>

   E(CAS)= -3037.155798458 Eh DE=    0.000000e+00
   --- Energy gap subspaces: Ext-Act = 0.095   Act-Int = 0.063
   N(occ)=  1.00000 1.00000 1.00000 1.00000 1.00000
   ||g|| =     6.110278e-04 Max(G)=    2.111821e-04 Rot=144,142
                     ---- THE CAS-SCF GRADIENT HAS CONVERGED ----
                            --- FINALIZING ORBITALS ---
                    ---- DOING ONE FINAL ITERATION FOR PRINTING ----
   --- Forming Natural Orbitals
   --- Canonicalize Internal Space
   --- Canonicalize External Space

MACRO-ITERATION   2: 
   --- Inactive Energy E0 = -3026.68224383 Eh
   --- All densities will be recomputed
CI-ITERATION   0: 
 -3037.242582667   0.000000000000 (    0.00)
   CI-PROBLEM SOLVED
   DENSITIES MADE
CI-ITERATION   0: 
 -3037.107609114   0.000000000000 (    0.00)
 -3037.106908767   0.000000000000
 -3037.106674649   0.000000000000
 -3037.106591409   0.000000000000
 -3037.106436783   0.000000000000
 -3037.106366226   0.000000000000
 -3037.106230613   0.000000000000
 -3037.106069010   0.000000000000
 -3037.105547953   0.000000000000
 -3037.087382502   0.000000000000
 -3037.086568208   0.000000000000
 -3037.084941822   0.000000000000
 -3037.074128133   0.000000000000
 -3037.073777955   0.000000000000
 -3037.072402020   0.000000000000
 -3037.069898386   0.000000000000
 -3037.069165721   0.000000000000
 -3037.012847907   0.000000000000
 -3037.012622970   0.000000000000
 -3037.012502594   0.000000000000
 -3037.011762178   0.000000000000
 -3037.011515663   0.000000000000
 -3037.009403611   0.000000000000
 -3037.008987899   0.000000000000
   CI-PROBLEM SOLVED
   DENSITIES MADE
   E(CAS)= -3037.155798460 Eh DE=   -2.130491e-09
   --- Energy gap subspaces: Ext-Act = 0.095   Act-Int = 0.063
   N(occ)=  1.00000 1.00000 1.00000 1.00000 1.00000
   ||g|| =     6.110279e-04 Max(G)=   -2.021918e-04 Rot=147,142
--------------
CASSCF RESULTS
--------------

Final CASSCF energy       : -3037.155798460 Eh  -82645.2109 eV

----------------
ORBITAL ENERGIES
----------------

  NO   OCC          E(Eh)            E(eV) 
   0   2.0000    -240.555172     -6545.8390 
   1   2.0000     -29.129893      -792.6647 
   2   2.0000     -24.835432      -675.8065 
   3   2.0000     -24.834562      -675.7828 
   4   2.0000     -24.834336      -675.7766 
   5   2.0000      -4.731825      -128.7595 
   6   2.0000      -4.722006      -128.4923 
   7   2.0000      -4.721096      -128.4676 
   8   2.0000      -4.720461      -128.4503 
   9   2.0000      -4.717290      -128.3640 
  10   2.0000      -4.716997      -128.3560 
  11   2.0000      -4.715528      -128.3160 
  12   2.0000      -4.713848      -128.2703 
  13   2.0000      -4.713094      -128.2498 
  14   2.0000      -4.709112      -128.1414 
  15   2.0000      -4.708641      -128.1286 
  16   2.0000      -4.708479      -128.1242 
  17   2.0000      -4.708106      -128.1141 
  18   2.0000      -4.706656      -128.0746 
  19   2.0000      -3.836430      -104.3946 
  20   2.0000      -2.770489       -75.3888 
  21   2.0000      -2.767954       -75.3198 
  22   2.0000      -2.767686       -75.3126 
  23   2.0000      -2.763518       -75.1992 
  24   2.0000      -2.760376       -75.1137 
  25   2.0000      -2.758775       -75.0701 
  26   2.0000      -2.758110       -75.0520 
  27   2.0000      -2.756737       -75.0146 
  28   2.0000      -2.756562       -75.0099 
  29   2.0000      -2.756330       -75.0036 
  30   2.0000      -2.756211       -75.0003 
  31   2.0000      -2.756073       -74.9966 
  32   2.0000      -2.755090       -74.9698 
  33   2.0000      -2.754413       -74.9514 
  34   2.0000      -2.753868       -74.9365 
  35   2.0000      -2.752969       -74.9121 
  36   2.0000      -2.752775       -74.9068 
  37   2.0000      -2.751867       -74.8821 
  38   2.0000      -2.751005       -74.8587 
  39   2.0000      -2.750681       -74.8498 
  40   2.0000      -2.750193       -74.8366 
  41   2.0000      -2.748975       -74.8034 
  42   2.0000      -2.748413       -74.7881 
  43   2.0000      -2.748053       -74.7783 
  44   2.0000      -2.747944       -74.7754 
  45   2.0000      -2.747737       -74.7697 
  46   2.0000      -2.747235       -74.7561 
  47   2.0000      -2.747106       -74.7526 
  48   2.0000      -2.746860       -74.7459 
  49   2.0000      -2.746324       -74.7313 
  50   2.0000      -2.745218       -74.7012 
  51   2.0000      -2.744819       -74.6903 
  52   2.0000      -2.744294       -74.6760 
  53   2.0000      -2.743664       -74.6589 
  54   2.0000      -2.743314       -74.6494 
  55   2.0000      -2.742212       -74.6194 
  56   2.0000      -2.741671       -74.6047 
  57   2.0000      -2.741066       -74.5882 
  58   2.0000      -2.740529       -74.5736 
  59   2.0000      -2.739720       -74.5516 
  60   2.0000      -2.739068       -74.5338 
  61   2.0000      -2.738548       -74.5197 
  62   2.0000      -2.505279       -68.1721 
  63   2.0000      -2.504871       -68.1610 
  64   2.0000      -2.504496       -68.1508 
  65   2.0000      -0.583902       -15.8888 
  66   2.0000      -0.559890       -15.2354 
  67   2.0000      -0.559098       -15.2138 
  68   2.0000      -0.554844       -15.0981 
  69   2.0000      -0.553725       -15.0676 
  70   2.0000      -0.553124       -15.0513 
  71   2.0000      -0.549890       -14.9633 
  72   2.0000      -0.549747       -14.9594 
  73   2.0000      -0.546739       -14.8775 
  74   2.0000      -0.545663       -14.8482 
  75   2.0000      -0.544032       -14.8039 
  76   2.0000      -0.542871       -14.7723 
  77   2.0000      -0.540594       -14.7103 
  78   2.0000      -0.539455       -14.6793 
  79   2.0000      -0.538840       -14.6626 
  80   2.0000      -0.536669       -14.6035 
  81   2.0000      -0.531629       -14.4664 
  82   2.0000      -0.530635       -14.4393 
  83   2.0000      -0.528644       -14.3851 
  84   2.0000      -0.527798       -14.3621 
  85   2.0000      -0.519323       -14.1315 
  86   2.0000      -0.518043       -14.0967 
  87   2.0000      -0.515810       -14.0359 
  88   2.0000      -0.513474       -13.9723 
  89   2.0000      -0.513217       -13.9653 
  90   2.0000      -0.511811       -13.9271 
  91   2.0000      -0.506802       -13.7908 
  92   2.0000      -0.502319       -13.6688 
  93   2.0000      -0.499761       -13.5992 
  94   2.0000      -0.494360       -13.4522 
  95   2.0000      -0.492629       -13.4051 
  96   2.0000      -0.488303       -13.2874 
  97   2.0000      -0.487934       -13.2773 
  98   2.0000      -0.487381       -13.2623 
  99   2.0000      -0.478802       -13.0289 
 100   2.0000      -0.477231       -12.9861 
 101   2.0000      -0.475626       -12.9424 
 102   2.0000      -0.471514       -12.8306 
 103   2.0000      -0.468892       -12.7592 
 104   2.0000      -0.466288       -12.6883 
 105   2.0000      -0.463757       -12.6195 
 106   2.0000      -0.462497       -12.5852 
 107   2.0000      -0.461172       -12.5491 
 108   2.0000      -0.457779       -12.4568 
 109   2.0000      -0.456874       -12.4322 
 110   2.0000      -0.455262       -12.3883 
 111   2.0000      -0.454623       -12.3709 
 112   2.0000      -0.453326       -12.3356 
 113   2.0000      -0.451703       -12.2915 
 114   2.0000      -0.447205       -12.1691 
 115   2.0000      -0.446737       -12.1563 
 116   2.0000      -0.445591       -12.1251 
 117   2.0000      -0.444790       -12.1034 
 118   2.0000      -0.442802       -12.0492 
 119   2.0000      -0.442326       -12.0363 
 120   2.0000      -0.441854       -12.0234 
 121   2.0000      -0.438436       -11.9305 
 122   2.0000      -0.437168       -11.8959 
 123   2.0000      -0.435787       -11.8584 
 124   2.0000      -0.434491       -11.8231 
 125   2.0000      -0.427143       -11.6232 
 126   2.0000      -0.427024       -11.6199 
 127   2.0000      -0.423757       -11.5310 
 128   2.0000      -0.421694       -11.4749 
 129   2.0000      -0.420701       -11.4478 
 130   2.0000      -0.417215       -11.3530 
 131   2.0000      -0.409843       -11.1524 
 132   2.0000      -0.409195       -11.1348 
 133   2.0000      -0.407443       -11.0871 
 134   2.0000      -0.407284       -11.0828 
 135   2.0000      -0.389753       -10.6057 
 136   2.0000      -0.372323       -10.1314 
 137   2.0000      -0.361044        -9.8245 
 138   2.0000      -0.350708        -9.5433 
 139   2.0000      -0.262403        -7.1404 
 140   2.0000      -0.243045        -6.6136 
 141   2.0000      -0.222214        -6.0468 
 142   2.0000      -0.219206        -5.9649 
 143   1.0000      -0.154552        -4.2056 
 144   1.0000      -0.154090        -4.1930 
 145   1.0000      -0.155794        -4.2394 
 146   1.0000      -0.152268        -4.1434 
 147   1.0000      -0.145918        -3.9706 
 148   0.0000      -0.050640        -1.3780 
 149   0.0000      -0.024262        -0.6602 
 150   0.0000      -0.009839        -0.2677 
 151   0.0000      -0.006460        -0.1758 
 152   0.0000       0.017902         0.4871 
 153   0.0000       0.019385         0.5275 
 154   0.0000       0.035128         0.9559 
 155   0.0000       0.039565         1.0766 
 156   0.0000       0.043031         1.1709 
 157   0.0000       0.048323         1.3149 
 158   0.0000       0.049601         1.3497 
 159   0.0000       0.057776         1.5722 
 160   0.0000       0.074482         2.0268 
 161   0.0000       0.081184         2.2091 
 162   0.0000       0.089156         2.4260 
 163   0.0000       0.093349         2.5401 
 164   0.0000       0.105814         2.8793 
 165   0.0000       0.114762         3.1228 
 166   0.0000       0.116989         3.1834 
 167   0.0000       0.124782         3.3955 
 168   0.0000       0.126512         3.4426 
 169   0.0000       0.126779         3.4498 
 170   0.0000       0.132609         3.6085 
 171   0.0000       0.133246         3.6258 
 172   0.0000       0.139218         3.7883 
 173   0.0000       0.145473         3.9585 
 174   0.0000       0.145852         3.9688 
 175   0.0000       0.150213         4.0875 
 176   0.0000       0.151227         4.1151 
 177   0.0000       0.153589         4.1794 
 178   0.0000       0.156822         4.2674 
 179   0.0000       0.162875         4.4320 
 180   0.0000       0.178848         4.8667 
 181   0.0000       0.179722         4.8905 
 182   0.0000       0.182309         4.9609 
 183   0.0000       0.186778         5.0825 
 184   0.0000       0.187880         5.1125 
 185   0.0000       0.192889         5.2488 
 186   0.0000       0.195130         5.3098 
 187   0.0000       0.198086         5.3902 
 188   0.0000       0.203987         5.5508 
 189   0.0000       0.206499         5.6191 
 190   0.0000       0.219994         5.9863 
 191   0.0000       0.224392         6.1060 
 192   0.0000       0.225495         6.1360 
 193   0.0000       0.232770         6.3340 
 194   0.0000       0.237164         6.4535 
 195   0.0000       0.238188         6.4814 
 196   0.0000       0.257890         7.0175 
 197   0.0000       0.260597         7.0912 
 198   0.0000       0.275272         7.4905 
 199   0.0000       0.284064         7.7298 
 200   0.0000       0.303991         8.2720 
 201   0.0000       0.305671         8.3177 
 202   0.0000       0.306419         8.3381 
 203   0.0000       0.314337         8.5536 
 204   0.0000       0.323947         8.8151 
 205   0.0000       0.348664         9.4876 
 206   0.0000       0.355693         9.6789 
 207   0.0000       0.364035         9.9059 
 208   0.0000       0.366377         9.9696 
 209   0.0000       0.371065        10.0972 
 210   0.0000       0.377109        10.2617 
 211   0.0000       0.387113        10.5339 
 212   0.0000       0.391015        10.6401 
 213   0.0000       0.391821        10.6620 
 214   0.0000       0.393631        10.7112 
 215   0.0000       0.402581        10.9548 
 216   0.0000       0.403704        10.9853 
 217   0.0000       0.409587        11.1454 
 218   0.0000       0.423636        11.5277 
 219   0.0000       0.426316        11.6006 
 220   0.0000       0.430240        11.7074 
 221   0.0000       0.435229        11.8432 
 222   0.0000       0.444459        12.0944 
 223   0.0000       0.450673        12.2634 
 224   0.0000       0.453931        12.3521 
 225   0.0000       0.457469        12.4484 
 226   0.0000       0.463321        12.6076 
 227   0.0000       0.473062        12.8727 
 228   0.0000       0.475674        12.9438 
 229   0.0000       0.483412        13.1543 
 230   0.0000       0.486401        13.2356 
 231   0.0000       0.492766        13.4088 
 232   0.0000       0.496175        13.5016 
 233   0.0000       0.501691        13.6517 
 234   0.0000       0.505518        13.7559 
 235   0.0000       0.510450        13.8901 
 236   0.0000       0.511644        13.9225 
 237   0.0000       0.518634        14.1128 
 238   0.0000       0.520296        14.1580 
 239   0.0000       0.521095        14.1797 
 240   0.0000       0.526518        14.3273 
 241   0.0000       0.531662        14.4673 
 242   0.0000       0.532059        14.4781 
 243   0.0000       0.538966        14.6660 
 244   0.0000       0.545475        14.8431 
 245   0.0000       0.555314        15.1109 
 246   0.0000       0.561695        15.2845 
 247   0.0000       0.562575        15.3084 
 248   0.0000       0.569245        15.4900 
 249   0.0000       0.575209        15.6522 
 250   0.0000       0.578338        15.7374 
 251   0.0000       0.584754        15.9120 
 252   0.0000       0.586258        15.9529 
 253   0.0000       0.586575        15.9615 
 254   0.0000       0.596203        16.2235 
 255   0.0000       0.606783        16.5114 
 256   0.0000       0.608024        16.5452 
 257   0.0000       0.615650        16.7527 
 258   0.0000       0.619084        16.8461 
 259   0.0000       0.623290        16.9606 
 260   0.0000       0.628337        17.0979 
 261   0.0000       0.630900        17.1677 
 262   0.0000       0.647985        17.6326 
 263   0.0000       0.649659        17.6781 
 264   0.0000       0.653800        17.7908 
 265   0.0000       0.662847        18.0370 
 266   0.0000       0.667954        18.1760 
 267   0.0000       0.668845        18.2002 
 268   0.0000       0.677510        18.4360 
 269   0.0000       0.680155        18.5080 
 270   0.0000       0.683400        18.5963 
 271   0.0000       0.685172        18.6445 
 272   0.0000       0.690555        18.7910 
 273   0.0000       0.698771        19.0145 
 274   0.0000       0.700311        19.0564 
 275   0.0000       0.700513        19.0619 
 276   0.0000       0.704299        19.1649 
 277   0.0000       0.712276        19.3820 
 278   0.0000       0.712610        19.3911 
 279   0.0000       0.721430        19.6311 
 280   0.0000       0.724531        19.7155 
 281   0.0000       0.725297        19.7363 
 282   0.0000       0.726394        19.7662 
 283   0.0000       0.732218        19.9247 
 284   0.0000       0.733810        19.9680 
 285   0.0000       0.738955        20.1080 
 286   0.0000       0.750762        20.4293 
 287   0.0000       0.758720        20.6458 
 288   0.0000       0.759594        20.6696 
 289   0.0000       0.787243        21.4220 
 290   0.0000       0.866172        23.5697 
 291   0.0000       0.911165        24.7940 
 292   0.0000       0.922683        25.1075 
 293   0.0000       0.923457        25.1285 
 294   0.0000       0.927607        25.2415 
 295   0.0000       0.971507        26.4360 
 296   0.0000       0.977480        26.5986 
 297   0.0000       0.982657        26.7394 
 298   0.0000       0.989473        26.9249 
 299   0.0000       1.000034        27.2123 
 300   0.0000       1.003750        27.3134 
 301   0.0000       1.007305        27.4102 
 302   0.0000       1.015549        27.6345 
 303   0.0000       1.029474        28.0134 
 304   0.0000       1.033284        28.1171 
 305   0.0000       1.054519        28.6949 
 306   0.0000       1.056022        28.7358 
 307   0.0000       1.071148        29.1474 
 308   0.0000       1.074997        29.2521 
 309   0.0000       1.088849        29.6291 
 310   0.0000       1.103870        30.0378 
 311   0.0000       1.105730        30.0885 
 312   0.0000       1.130170        30.7535 
 313   0.0000       1.155372        31.4393 
 314   0.0000       1.162055        31.6211 
 315   0.0000       1.180720        32.1290 
 316   0.0000       1.185361        32.2553 
 317   0.0000       1.197302        32.5802 
 318   0.0000       1.200413        32.6649 
 319   0.0000       1.201725        32.7006 
 320   0.0000       1.206619        32.8338 
 321   0.0000       1.216643        33.1065 
 322   0.0000       1.228040        33.4167 
 323   0.0000       1.232777        33.5456 
 324   0.0000       1.241271        33.7767 
 325   0.0000       1.244704        33.8701 
 326   0.0000       1.261384        34.3240 
 327   0.0000       1.272023        34.6135 
 328   0.0000       1.278050        34.7775 
 329   0.0000       1.289997        35.1026 
 330   0.0000       1.323871        36.0244 
 331   0.0000       1.357046        36.9271 
 332   0.0000       1.390884        37.8479 
 333   0.0000       1.467512        39.9330 
 334   0.0000       1.514855        41.2213 
 335   0.0000       1.519239        41.3406 
 336   0.0000       1.555915        42.3386 
 337   0.0000       1.567457        42.6527 
 338   0.0000       1.571146        42.7531 
 339   0.0000       1.593959        43.3738 
 340   0.0000       1.598014        43.4842 
 341   0.0000       1.607069        43.7306 
 342   0.0000       1.620837        44.1052 
 343   0.0000       1.637749        44.5654 
 344   0.0000       1.643061        44.7100 
 345   0.0000       1.653390        44.9910 
 346   0.0000       1.655230        45.0411 
 347   0.0000       1.671454        45.4826 
 348   0.0000       1.673880        45.5486 
 349   0.0000       1.685785        45.8725 
 350   0.0000       1.688326        45.9417 
 351   0.0000       1.695350        46.1328 
 352   0.0000       1.698656        46.2228 
 353   0.0000       1.702009        46.3140 
 354   0.0000       1.707473        46.4627 
 355   0.0000       1.714445        46.6524 
 356   0.0000       1.718308        46.7575 
 357   0.0000       1.733104        47.1602 
 358   0.0000       1.745567        47.4993 
 359   0.0000       1.765869        48.0517 
 360   0.0000       1.768557        48.1249 
 361   0.0000       1.774464        48.2856 
 362   0.0000       1.778487        48.3951 
 363   0.0000       1.790716        48.7279 
 364   0.0000       1.791835        48.7583 
 365   0.0000       1.796917        48.8966 
 366   0.0000       1.800887        49.0046 
 367   0.0000       1.801278        49.0153 
 368   0.0000       1.805221        49.1226 
 369   0.0000       1.807692        49.1898 
 370   0.0000       1.808153        49.2024 
 371   0.0000       1.814048        49.3627 
 372   0.0000       1.814658        49.3794 
 373   0.0000       1.819620        49.5144 
 374   0.0000       1.822399        49.5900 
 375   0.0000       1.826933        49.7134 
 376   0.0000       1.830248        49.8036 
 377   0.0000       1.831297        49.8321 
 378   0.0000       1.837147        49.9913 
 379   0.0000       1.839032        50.0426 
 380   0.0000       1.840810        50.0910 
 381   0.0000       1.844965        50.2040 
 382   0.0000       1.846524        50.2465 
 383   0.0000       1.848818        50.3089 
 384   0.0000       1.849357        50.3236 
 385   0.0000       1.854502        50.4636 
 386   0.0000       1.854692        50.4687 
 387   0.0000       1.858520        50.5729 
 388   0.0000       1.859835        50.6087 
 389   0.0000       1.860488        50.6264 
 390   0.0000       1.861279        50.6480 
 391   0.0000       1.865866        50.7728 
 392   0.0000       1.866849        50.7995 
 393   0.0000       1.868870        50.8545 
 394   0.0000       1.870424        50.8968 
 395   0.0000       1.872254        50.9466 
 396   0.0000       1.873120        50.9702 
 397   0.0000       1.873958        50.9930 
 398   0.0000       1.874816        51.0163 
 399   0.0000       1.876877        51.0724 
 400   0.0000       1.879435        51.1420 
 401   0.0000       1.880238        51.1639 
 402   0.0000       1.882846        51.2349 
 403   0.0000       1.883684        51.2576 
 404   0.0000       1.885386        51.3039 
 405   0.0000       1.886167        51.3252 
 406   0.0000       1.887390        51.3585 
 407   0.0000       1.888192        51.3803 
 408   0.0000       1.888676        51.3935 
 409   0.0000       1.889249        51.4091 
 410   0.0000       1.890054        51.4310 
 411   0.0000       1.891112        51.4598 
 412   0.0000       1.891965        51.4830 
 413   0.0000       1.895852        51.5888 
 414   0.0000       1.896319        51.6015 
 415   0.0000       1.898880        51.6712 
 416   0.0000       1.900070        51.7035 
 417   0.0000       1.900736        51.7217 
 418   0.0000       1.904930        51.8358 
 419   0.0000       1.905901        51.8622 
 420   0.0000       1.906169        51.8695 
 421   0.0000       1.907082        51.8943 
 422   0.0000       1.908388        51.9299 
 423   0.0000       1.911824        52.0234 
 424   0.0000       1.912907        52.0529 
 425   0.0000       1.913823        52.0778 
 426   0.0000       1.916347        52.1465 
 427   0.0000       1.918432        52.2032 
 428   0.0000       1.922288        52.3081 
 429   0.0000       1.922804        52.3221 
 430   0.0000       1.926636        52.4264 
 431   0.0000       1.927364        52.4462 
 432   0.0000       1.932389        52.5830 
 433   0.0000       1.933128        52.6031 
 434   0.0000       1.937053        52.7099 
 435   0.0000       1.939025        52.7636 
 436   0.0000       1.939958        52.7889 
 437   0.0000       1.942197        52.8499 
 438   0.0000       1.945497        52.9397 
 439   0.0000       1.946673        52.9717 
 440   0.0000       1.948285        53.0155 
 441   0.0000       1.950325        53.0710 
 442   0.0000       1.954679        53.1895 
 443   0.0000       1.959058        53.3087 
 444   0.0000       1.960180        53.3392 
 445   0.0000       1.961563        53.3768 
 446   0.0000       1.962816        53.4109 
 447   0.0000       1.965313        53.4789 
 448   0.0000       1.966671        53.5158 
 449   0.0000       1.971208        53.6393 
 450   0.0000       1.971753        53.6541 
 451   0.0000       1.979455        53.8637 
 452   0.0000       1.980070        53.8805 
 453   0.0000       1.982836        53.9557 
 454   0.0000       1.987198        54.0744 
 455   0.0000       1.988119        54.0995 
 456   0.0000       1.991884        54.2019 
 457   0.0000       1.993767        54.2532 
 458   0.0000       1.998828        54.3909 
 459   0.0000       2.002581        54.4930 
 460   0.0000       2.002784        54.4985 
 461   0.0000       2.007669        54.6315 
 462   0.0000       2.009658        54.6856 
 463   0.0000       2.013376        54.7867 
 464   0.0000       2.021642        55.0117 
 465   0.0000       2.022445        55.0335 
 466   0.0000       2.028598        55.2010 
 467   0.0000       2.039614        55.5007 
 468   0.0000       2.041364        55.5483 
 469   0.0000       2.051194        55.8158 
 470   0.0000       2.056791        55.9681 
 471   0.0000       2.061030        56.0835 
 472   0.0000       2.068097        56.2758 
 473   0.0000       2.092962        56.9524 
 474   0.0000       2.110548        57.4309 
 475   0.0000       2.122441        57.7546 
 476   0.0000       2.128514        57.9198 
 477   0.0000       2.137654        58.1685 
 478   0.0000       2.140029        58.2332 
 479   0.0000       2.159043        58.7505 
 480   0.0000       2.161770        58.8248 
 481   0.0000       2.164760        58.9061 
 482   0.0000       2.172568        59.1186 
 483   0.0000       2.173872        59.1541 
 484   0.0000       2.179931        59.3189 
 485   0.0000       2.182323        59.3840 
 486   0.0000       2.196851        59.7794 
 487   0.0000       2.203975        59.9732 
 488   0.0000       2.205370        60.0112 
 489   0.0000       2.224569        60.5336 
 490   0.0000       2.225230        60.5516 
 491   0.0000       2.235031        60.8183 
 492   0.0000       2.244929        61.0876 
 493   0.0000       2.253776        61.3284 
 494   0.0000       2.262766        61.5730 
 495   0.0000       2.284172        62.1555 
 496   0.0000       2.287006        62.2326 
 497   0.0000       2.296378        62.4876 
 498   0.0000       2.297145        62.5085 
 499   0.0000       2.314558        62.9823 
 500   0.0000       2.316410        63.0327 
 501   0.0000       2.324594        63.2554 
 502   0.0000       2.377033        64.6824 
 503   0.0000       2.505590        68.1806 
 504   0.0000       2.527493        68.7766 
 505   0.0000       2.630466        71.5786 
 506   0.0000       2.694002        73.3075 
 507   0.0000       2.746404        74.7335 
 508   0.0000       2.763210        75.1908 
 509   0.0000       2.773379        75.4675 
 510   0.0000       2.838251        77.2327 
 511   0.0000       2.911469        79.2251 
 512   0.0000       2.933610        79.8276 
 513   0.0000       2.957478        80.4771 
 514   0.0000       2.961060        80.5745 
 515   0.0000       2.971300        80.8532 
 516   0.0000       2.972399        80.8831 
 517   0.0000       2.997596        81.5687 
 518   0.0000       3.010377        81.9165 
 519   0.0000       3.014214        82.0209 
 520   0.0000       3.047962        82.9393 
 521   0.0000       3.060542        83.2816 
 522   0.0000       3.618041        98.4519 
 523   0.0000       3.778057       102.8062 
 524   0.0000       3.778477       102.8176 
 525   0.0000       3.783360       102.9505 
 526   0.0000       3.787297       103.0576 
 527   0.0000       3.789376       103.1142 
 528   0.0000       3.791159       103.1627 
 529   0.0000       3.796160       103.2988 
 530   0.0000       3.982929       108.3810 
 531   0.0000       4.022921       109.4692 
 532   0.0000       4.059534       110.4655 
 533   0.0000       4.084929       111.1566 
 534   0.0000       4.093556       111.3913 
 535   0.0000      24.362279       662.9313 
 536   0.0000      24.522019       667.2781 
 537   0.0000      24.651461       670.8004 
 538   0.0000      24.908993       677.8081 
 539   0.0000      25.043763       681.4754 
 540   0.0000      25.224133       686.3836 
 541   0.0000      25.384498       690.7473 
 542   0.0000      25.476715       693.2567 
 543   0.0000      25.484688       693.4736 
 544   0.0000      25.891743       704.5501 
 545   0.0000      25.918124       705.2680 
 546   0.0000      26.038658       708.5479 
 547   0.0000      26.067987       709.3460 
 548   0.0000      26.204709       713.0664 
 549   0.0000      26.255874       714.4586 
 550   0.0000      26.330772       716.4967 
 551   0.0000      26.433213       719.2843 
 552   0.0000      26.450350       719.7506 
 553   0.0000      26.631810       724.6884 
 554   0.0000      26.754200       728.0188 
 555   0.0000      26.899112       731.9621 
 556   0.0000      27.010473       734.9923 
 557   0.0000      27.037055       735.7157 
 558   0.0000      27.085661       737.0383 
 559   0.0000      27.102946       737.5086 
 560   0.0000      27.181154       739.6368 
 561   0.0000      27.351074       744.2605 
 562   0.0000      27.486861       747.9555 
 563   0.0000      27.499310       748.2943 
 564   0.0000      27.789463       756.1897 
 565   0.0000      27.796129       756.3711 
 566   0.0000      28.115169       765.0526 
 567   0.0000      28.164874       766.4052 
 568   0.0000      28.301821       770.1317 
 569   0.0000      28.330782       770.9198 
 570   0.0000      28.427058       773.5396 
 571   0.0000      28.434576       773.7442 
 572   0.0000      29.052912       790.5699 
 573   0.0000      29.714193       808.5643 
 574   0.0000      30.745930       836.6393 
 575   0.0000      31.411727       854.7565 
 576   0.0000      32.386598       881.2841 
 577   0.0000      44.546733      1212.1782 
 578   0.0000      44.642147      1214.7746 
 579   0.0000      44.697333      1216.2763 
 580   0.0000      44.701231      1216.3823 
 581   0.0000      44.733841      1217.2697 
 582   0.0000      44.762556      1218.0511 
 583   0.0000      44.795907      1218.9586 
 584   0.0000      44.798334      1219.0246 
 585   0.0000      44.804276      1219.1863 
 586   0.0000      44.819926      1219.6122 
 587   0.0000      44.837525      1220.0911 
 588   0.0000      44.846170      1220.3263 
 589   0.0000      44.887570      1221.4529 
 590   0.0000      44.918313      1222.2894 
 591   0.0000     205.393167      5589.0322 
 592   0.0000     205.431930      5590.0870 
 593   0.0000     205.453749      5590.6807 
 594   0.0000     205.456372      5590.7521 
 595   0.0000     205.471486      5591.1634 
 596   0.0000     205.484094      5591.5065 
 597   0.0000     205.494524      5591.7903 
 598   0.0000     205.502980      5592.0204 
 599   0.0000     205.504827      5592.0706 
 600   0.0000     205.508969      5592.1833 
 601   0.0000     205.515593      5592.3636 
 602   0.0000     205.519390      5592.4669 
 603   0.0000     205.533554      5592.8523 
 604   0.0000     205.536564      5592.9342 


---------------------------------------------
CAS-SCF STATES FOR BLOCK  1 MULT= 6 NROOTS= 1
---------------------------------------------

ROOT   0:  E=   -3037.2425826670 Eh
      1.00000 [     0]: 11111


---------------------------------------------
CAS-SCF STATES FOR BLOCK  2 MULT= 4 NROOTS=24
---------------------------------------------

ROOT   0:  E=   -3037.1076091140 Eh
      0.14814 [    10]: 11111
      0.13513 [    14]: 10211
      0.12315 [     9]: 11120
      0.12133 [    15]: 10121
      0.09573 [     7]: 11210
      0.06503 [     6]: 12011
      0.04738 [    17]: 02111
      0.04523 [     5]: 12101
      0.04344 [    11]: 11102
      0.03432 [    13]: 11012
      0.02712 [    19]: 01121
      0.02560 [     3]: 20111
      0.01620 [     8]: 11201
      0.01483 [     4]: 12110
      0.01365 [     1]: 21101
      0.01352 [    16]: 10112
      0.01140 [    20]: 01112
      0.00807 [    18]: 01211
      0.00415 [    12]: 11021
      0.00334 [     2]: 21011
      0.00324 [     0]: 21110
ROOT   1:  E=   -3037.1069087675 Eh  0.019 eV    153.7 cm**-1
      0.14248 [     4]: 12110
      0.12822 [    10]: 11111
      0.10576 [    18]: 01211
      0.10250 [     8]: 11201
      0.09256 [    16]: 10112
      0.06211 [    12]: 11021
      0.05934 [     2]: 21011
      0.05503 [    15]: 10121
      0.05130 [     5]: 12101
      0.03073 [    19]: 01121
      0.03030 [     9]: 11120
      0.02474 [    11]: 11102
      0.01973 [    14]: 10211
      0.01755 [    17]: 02111
      0.01727 [     0]: 21110
      0.01622 [    20]: 01112
      0.01523 [     1]: 21101
      0.01478 [     3]: 20111
      0.01083 [     6]: 12011
ROOT   2:  E=   -3037.1066746492 Eh  0.025 eV    205.1 cm**-1
      0.24108 [     0]: 21110
      0.16108 [    20]: 01112
      0.13714 [     6]: 12011
      0.11484 [    14]: 10211
      0.05935 [    10]: 11111
      0.05599 [    13]: 11012
      0.04686 [     5]: 12101
      0.04428 [     7]: 11210
      0.03437 [     1]: 21101
      0.02051 [     4]: 12110
      0.01756 [    19]: 01121
      0.01493 [    15]: 10121
      0.00935 [    11]: 11102
      0.00855 [    16]: 10112
[...]
 3 96   43165.1    231.7   0.000000000   0.00000   0.00004   0.00009   0.00002
 3 97   43165.1    231.7   0.000000000   0.00000   0.00002   0.00005   0.00002
 3 98   43404.0    230.4   0.000000000   0.00000   0.00007   0.00005   0.00005
 3 99   43404.0    230.4   0.000000000   0.00000   0.00004   0.00002   0.00002
 3 100   43446.3    230.2   0.000000000   0.00000   0.00001   0.00003   0.00001
 3 101   43446.3    230.2   0.000000000   0.00000   0.00009   0.00004   0.00000
 4  5       0.0      0.0   0.000000000   0.00000   0.00000   0.00000   0.00000
 4  6   25454.8    392.9   0.000000005   0.00000   0.00122   0.00069   0.00063
 4  7   25454.8    392.9   0.000000002   0.00000   0.00071   0.00037   0.00038
 4  8   25458.8    392.8   0.000000000   0.00000   0.00019   0.00012   0.00015
 4  9   25458.8    392.8   0.000000000   0.00000   0.00028   0.00017   0.00021
 4 10   25886.7    386.3   0.000000001   0.00000   0.00034   0.00069   0.00018
 4 11   25886.7    386.3   0.000000000   0.00000   0.00036   0.00016   0.00019
 4 12   25890.4    386.2   0.000000007   0.00000   0.00099   0.00154   0.00050
 4 13   25890.4    386.2   0.000000001   0.00000   0.00070   0.00034   0.00034
 4 14   25931.9    385.6   0.000000000   0.00000   0.00012   0.00004   0.00031
 4 15   25931.9    385.6   0.000000001   0.00000   0.00027   0.00012   0.00072
 4 16   25946.1    385.4   0.000000001   0.00000   0.00016   0.00010   0.00053
 4 17   25946.1    385.4   0.000000001   0.00000   0.00020   0.00008   0.00045
 4 18   25962.0    385.2   0.000000000   0.00000   0.00018   0.00008   0.00011
 4 19   25962.0    385.2   0.000000000   0.00000   0.00003   0.00007   0.00003
 4 20   25972.3    385.0   0.000000001   0.00000   0.00046   0.00012   0.00058
 4 21   25972.3    385.0   0.000000001   0.00000   0.00051   0.00010   0.00061
 4 22   26036.2    384.1   0.000000000   0.00000   0.00008   0.00014   0.00030
 4 23   26036.2    384.1   0.000000000   0.00000   0.00013   0.00012   0.00044
 4 24   26041.0    384.0   0.000000000   0.00000   0.00016   0.00010   0.00004
 4 25   26041.0    384.0   0.000000000   0.00000   0.00005   0.00003   0.00004
 4 26   26111.6    383.0   0.000000000   0.00000   0.00003   0.00006   0.00020
 4 27   26111.6    383.0   0.000000000   0.00000   0.00002   0.00006   0.00026
 4 28   26112.7    383.0   0.000000000   0.00000   0.00021   0.00018   0.00033
 4 29   26112.7    383.0   0.000000000   0.00000   0.00003   0.00004   0.00011
 4 30   26163.5    382.2   0.000000001   0.00000   0.00053   0.00023   0.00025
 4 31   26163.5    382.2   0.000000000   0.00000   0.00025   0.00016   0.00008
 4 32   26169.4    382.1   0.000000004   0.00000   0.00125   0.00055   0.00051
 4 33   26169.4    382.1   0.000000002   0.00000   0.00061   0.00049   0.00039
 4 34   26184.7    381.9   0.000000000   0.00000   0.00024   0.00003   0.00026
 4 35   26184.7    381.9   0.000000000   0.00000   0.00008   0.00009   0.00013
 4 36   26186.8    381.9   0.000000001   0.00000   0.00035   0.00024   0.00062
 4 37   26186.8    381.9   0.000000001   0.00000   0.00047   0.00021   0.00056
 4 38   26412.8    378.6   0.000000006   0.00000   0.00062   0.00123   0.00100
 4 39   26412.8    378.6   0.000000002   0.00000   0.00056   0.00042   0.00061
 4 40   26415.1    378.6   0.000000000   0.00000   0.00005   0.00015   0.00013
 4 41   26415.1    378.6   0.000000000   0.00000   0.00013   0.00017   0.00014
 4 42   27827.1    359.4   0.000000000   0.00000   0.00006   0.00011   0.00005
 4 43   27827.1    359.4   0.000000000   0.00000   0.00008   0.00010   0.00005
 4 44   27916.9    358.2   0.000000000   0.00000   0.00005   0.00006   0.00004
 4 45   27916.9    358.2   0.000000000   0.00000   0.00002   0.00004   0.00001
 4 46   28221.7    354.3   0.000000000   0.00000   0.00002   0.00003   0.00001
 4 47   28221.7    354.3   0.000000000   0.00000   0.00003   0.00004   0.00002
 4 48   28377.2    352.4   0.000000000   0.00000   0.00029   0.00014   0.00004
 4 49   28377.2    352.4   0.000000000   0.00000   0.00021   0.00011   0.00002
 4 50   28822.3    347.0   0.000000000   0.00000   0.00005   0.00008   0.00002
 4 51   28822.3    347.0   0.000000000   0.00000   0.00024   0.00012   0.00008
 4 52   28869.6    346.4   0.000000000   0.00000   0.00001   0.00002   0.00001
 4 53   28869.6    346.4   0.000000000   0.00000   0.00002   0.00000   0.00001
 4 54   30523.3    327.6   0.000000000   0.00000   0.00014   0.00028   0.00012
 4 55   30523.3    327.6   0.000000000   0.00000   0.00022   0.00013   0.00015
 4 56   30568.1    327.1   0.000000000   0.00000   0.00005   0.00007   0.00008
 4 57   30568.1    327.1   0.000000000   0.00000   0.00019   0.00008   0.00004
 4 58   30710.8    325.6   0.000000001   0.00000   0.00019   0.00044   0.00008
 4 59   30710.8    325.6   0.000000000   0.00000   0.00028   0.00022   0.00015
 4 60   30725.0    325.5   0.000000000   0.00000   0.00022   0.00026   0.00008
 4 61   30725.0    325.5   0.000000000   0.00000   0.00013   0.00029   0.00004
 4 62   31261.7    319.9   0.000000000   0.00000   0.00015   0.00006   0.00005
 4 63   31261.7    319.9   0.000000000   0.00000   0.00004   0.00013   0.00001
 4 64   31302.0    319.5   0.000000001   0.00000   0.00022   0.00059   0.00005
 4 65   31302.0    319.5   0.000000002   0.00000   0.00073   0.00045   0.00023
 4 66   32086.0    311.7   0.000000000   0.00000   0.00005   0.00004   0.00012
 4 67   32086.0    311.7   0.000000000   0.00000   0.00007   0.00016   0.00012
 4 68   32219.8    310.4   0.000000000   0.00000   0.00009   0.00009   0.00003
 4 69   32219.8    310.4   0.000000000   0.00000   0.00010   0.00004   0.00003
 4 70   32476.2    307.9   0.000000000   0.00000   0.00002   0.00003   0.00001
 4 71   32476.2    307.9   0.000000000   0.00000   0.00003   0.00005   0.00004
 4 72   32583.2    306.9   0.000000000   0.00000   0.00012   0.00020   0.00017
 4 73   32583.2    306.9   0.000000000   0.00000   0.00011   0.00009   0.00010
 4 74   41805.9    239.2   0.000000000   0.00000   0.00001   0.00002   0.00001
 4 75   41805.9    239.2   0.000000000   0.00000   0.00001   0.00002   0.00001
 4 76   41807.6    239.2   0.000000000   0.00000   0.00002   0.00005   0.00002
 4 77   41807.6    239.2   0.000000000   0.00000   0.00003   0.00003   0.00001
 4 78   41893.4    238.7   0.000000000   0.00000   0.00003   0.00003   0.00007
 4 79   41893.4    238.7   0.000000000   0.00000   0.00002   0.00001   0.00004
 4 80   41906.4    238.6   0.000000000   0.00000   0.00001   0.00001   0.00002
 4 81   41906.4    238.6   0.000000000   0.00000   0.00002   0.00001   0.00003
 4 82   41967.4    238.3   0.000000000   0.00000   0.00001   0.00002   0.00001
 4 83   41967.4    238.3   0.000000000   0.00000   0.00001   0.00002   0.00001
 4 84   41978.2    238.2   0.000000000   0.00000   0.00003   0.00005   0.00001
 4 85   41978.2    238.2   0.000000000   0.00000   0.00000   0.00002   0.00001
 4 86   42221.5    236.8   0.000000000   0.00000   0.00006   0.00007   0.00002
 4 87   42221.5    236.8   0.000000000   0.00000   0.00005   0.00000   0.00002
 4 88   42255.6    236.7   0.000000000   0.00000   0.00001   0.00001   0.00000
 4 89   42255.6    236.7   0.000000000   0.00000   0.00001   0.00001   0.00000
 4 90   42323.7    236.3   0.000000000   0.00000   0.00002   0.00001   0.00001
 4 91   42323.7    236.3   0.000000000   0.00000   0.00001   0.00000   0.00001
 4 92   42366.1    236.0   0.000000000   0.00000   0.00008   0.00005   0.00005
 4 93   42366.1    236.0   0.000000000   0.00000   0.00003   0.00004   0.00002
 4 94   43113.7    231.9   0.000000000   0.00000   0.00006   0.00012   0.00005
 4 95   43113.7    231.9   0.000000000   0.00000   0.00002   0.00007   0.00001
 4 96   43165.0    231.7   0.000000000   0.00000   0.00001   0.00002   0.00001
 4 97   43165.0    231.7   0.000000000   0.00000   0.00002   0.00004   0.00001
 4 98   43403.9    230.4   0.000000000   0.00000   0.00002   0.00001   0.00001
 4 99   43403.9    230.4   0.000000000   0.00000   0.00000   0.00001   0.00001
 4 100   43446.3    230.2   0.000000000   0.00000   0.00003   0.00002   0.00004
 4 101   43446.3    230.2   0.000000000   0.00000   0.00001   0.00003   0.00003
 5  6   25454.8    392.9   0.000000002   0.00000   0.00071   0.00037   0.00038
 5  7   25454.8    392.9   0.000000005   0.00000   0.00122   0.00069   0.00063
 5  8   25458.8    392.8   0.000000000   0.00000   0.00028   0.00017   0.00021
 5  9   25458.8    392.8   0.000000000   0.00000   0.00019   0.00012   0.00015
 5 10   25886.7    386.3   0.000000000   0.00000   0.00036   0.00016   0.00019
 5 11   25886.7    386.3   0.000000001   0.00000   0.00034   0.00069   0.00018
 5 12   25890.4    386.2   0.000000001   0.00000   0.00070   0.00034   0.00034
 5 13   25890.4    386.2   0.000000007   0.00000   0.00099   0.00154   0.00050
 5 14   25931.9    385.6   0.000000001   0.00000   0.00027   0.00012   0.00072
 5 15   25931.9    385.6   0.000000000   0.00000   0.00012   0.00004   0.00031
 5 16   25946.1    385.4   0.000000001   0.00000   0.00020   0.00008   0.00045
 5 17   25946.1    385.4   0.000000001   0.00000   0.00016   0.00010   0.00053
 5 18   25962.0    385.2   0.000000000   0.00000   0.00003   0.00007   0.00003
 5 19   25962.0    385.2   0.000000000   0.00000   0.00018   0.00008   0.00011
 5 20   25972.3    385.0   0.000000001   0.00000   0.00051   0.00010   0.00061
 5 21   25972.3    385.0   0.000000001   0.00000   0.00046   0.00012   0.00058
 5 22   26036.2    384.1   0.000000000   0.00000   0.00013   0.00012   0.00044
 5 23   26036.2    384.1   0.000000000   0.00000   0.00008   0.00014   0.00030
 5 24   26041.0    384.0   0.000000000   0.00000   0.00005   0.00003   0.00004
 5 25   26041.0    384.0   0.000000000   0.00000   0.00016   0.00010   0.00004
 5 26   26111.6    383.0   0.000000000   0.00000   0.00002   0.00006   0.00026
 5 27   26111.6    383.0   0.000000000   0.00000   0.00003   0.00006   0.00020
 5 28   26112.7    383.0   0.000000000   0.00000   0.00003   0.00004   0.00011
 5 29   26112.7    383.0   0.000000000   0.00000   0.00021   0.00018   0.00033
 5 30   26163.5    382.2   0.000000000   0.00000   0.00025   0.00016   0.00008
 5 31   26163.5    382.2   0.000000001   0.00000   0.00053   0.00023   0.00025
 5 32   26169.4    382.1   0.000000002   0.00000   0.00061   0.00049   0.00039
 5 33   26169.4    382.1   0.000000004   0.00000   0.00125   0.00055   0.00051
 5 34   26184.7    381.9   0.000000000   0.00000   0.00008   0.00009   0.00013
 5 35   26184.7    381.9   0.000000000   0.00000   0.00024   0.00003   0.00026
 5 36   26186.8    381.9   0.000000001   0.00000   0.00047   0.00021   0.00056
 5 37   26186.8    381.9   0.000000001   0.00000   0.00035   0.00024   0.00062
 5 38   26412.8    378.6   0.000000002   0.00000   0.00056   0.00042   0.00061
 5 39   26412.8    378.6   0.000000006   0.00000   0.00062   0.00123   0.00100
 5 40   26415.1    378.6   0.000000000   0.00000   0.00013   0.00017   0.00014
 5 41   26415.1    378.6   0.000000000   0.00000   0.00005   0.00015   0.00013
 5 42   27827.1    359.4   0.000000000   0.00000   0.00008   0.00010   0.00005
 5 43   27827.1    359.4   0.000000000   0.00000   0.00006   0.00011   0.00005
 5 44   27916.9    358.2   0.000000000   0.00000   0.00002   0.00004   0.00001
 5 45   27916.9    358.2   0.000000000   0.00000   0.00005   0.00006   0.00004
 5 46   28221.7    354.3   0.000000000   0.00000   0.00003   0.00004   0.00002
 5 47   28221.7    354.3   0.000000000   0.00000   0.00002   0.00003   0.00001
 5 48   28377.2    352.4   0.000000000   0.00000   0.00021   0.00011   0.00002
 5 49   28377.2    352.4   0.000000000   0.00000   0.00029   0.00014   0.00004
 5 50   28822.3    347.0   0.000000000   0.00000   0.00024   0.00012   0.00008
 5 51   28822.3    347.0   0.000000000   0.00000   0.00005   0.00008   0.00002
 5 52   28869.6    346.4   0.000000000   0.00000   0.00002   0.00000   0.00001
 5 53   28869.6    346.4   0.000000000   0.00000   0.00001   0.00002   0.00001
 5 54   30523.3    327.6   0.000000000   0.00000   0.00022   0.00013   0.00015
 5 55   30523.3    327.6   0.000000000   0.00000   0.00014   0.00028   0.00012
 5 56   30568.1    327.1   0.000000000   0.00000   0.00019   0.00008   0.00004
 5 57   30568.1    327.1   0.000000000   0.00000   0.00005   0.00007   0.00008
 5 58   30710.8    325.6   0.000000000   0.00000   0.00028   0.00022   0.00015
 5 59   30710.8    325.6   0.000000001   0.00000   0.00019   0.00044   0.00008
 5 60   30725.0    325.5   0.000000000   0.00000   0.00013   0.00029   0.00004
 5 61   30725.0    325.5   0.000000000   0.00000   0.00022   0.00026   0.00008
 5 62   31261.7    319.9   0.000000000   0.00000   0.00004   0.00013   0.00001
 5 63   31261.7    319.9   0.000000000   0.00000   0.00015   0.00006   0.00005
 5 64   31302.0    319.5   0.000000002   0.00000   0.00073   0.00045   0.00023
 5 65   31302.0    319.5   0.000000001   0.00000   0.00022   0.00059   0.00005
 5 66   32086.0    311.7   0.000000000   0.00000   0.00007   0.00016   0.00012
 5 67   32086.0    311.7   0.000000000   0.00000   0.00005   0.00004   0.00012
 5 68   32219.8    310.4   0.000000000   0.00000   0.00010   0.00004   0.00003
 5 69   32219.8    310.4   0.000000000   0.00000   0.00009   0.00009   0.00003
 5 70   32476.2    307.9   0.000000000   0.00000   0.00003   0.00005   0.00004
 5 71   32476.2    307.9   0.000000000   0.00000   0.00002   0.00003   0.00001
 5 72   32583.2    306.9   0.000000000   0.00000   0.00011   0.00009   0.00010
 5 73   32583.2    306.9   0.000000000   0.00000   0.00012   0.00020   0.00017
 5 74   41805.9    239.2   0.000000000   0.00000   0.00001   0.00002   0.00001
 5 75   41805.9    239.2   0.000000000   0.00000   0.00001   0.00002   0.00001
 5 76   41807.6    239.2   0.000000000   0.00000   0.00003   0.00003   0.00001
 5 77   41807.6    239.2   0.000000000   0.00000   0.00002   0.00005   0.00002
 5 78   41893.4    238.7   0.000000000   0.00000   0.00002   0.00001   0.00004
 5 79   41893.4    238.7   0.000000000   0.00000   0.00003   0.00003   0.00007
 5 80   41906.4    238.6   0.000000000   0.00000   0.00002   0.00001   0.00003
 5 81   41906.4    238.6   0.000000000   0.00000   0.00001   0.00001   0.00002
 5 82   41967.4    238.3   0.000000000   0.00000   0.00001   0.00002   0.00001
 5 83   41967.4    238.3   0.000000000   0.00000   0.00001   0.00002   0.00001
 5 84   41978.2    238.2   0.000000000   0.00000   0.00000   0.00002   0.00001
 5 85   41978.2    238.2   0.000000000   0.00000   0.00003   0.00005   0.00001
 5 86   42221.5    236.8   0.000000000   0.00000   0.00005   0.00000   0.00002
 5 87   42221.5    236.8   0.000000000   0.00000   0.00006   0.00007   0.00002
 5 88   42255.6    236.7   0.000000000   0.00000   0.00001   0.00001   0.00000
 5 89   42255.6    236.7   0.000000000   0.00000   0.00001   0.00001   0.00000
 5 90   42323.7    236.3   0.000000000   0.00000   0.00001   0.00000   0.00001
 5 91   42323.7    236.3   0.000000000   0.00000   0.00002   0.00001   0.00001
 5 92   42366.1    236.0   0.000000000   0.00000   0.00003   0.00004   0.00002
 5 93   42366.1    236.0   0.000000000   0.00000   0.00008   0.00005   0.00005
 5 94   43113.7    231.9   0.000000000   0.00000   0.00002   0.00007   0.00001
 5 95   43113.7    231.9   0.000000000   0.00000   0.00006   0.00012   0.00005
 5 96   43165.0    231.7   0.000000000   0.00000   0.00002   0.00004   0.00001
 5 97   43165.0    231.7   0.000000000   0.00000   0.00001   0.00002   0.00001
 5 98   43403.9    230.4   0.000000000   0.00000   0.00000   0.00001   0.00001
 5 99   43403.9    230.4   0.000000000   0.00000   0.00002   0.00001   0.00001
 5 100   43446.3    230.2   0.000000000   0.00000   0.00001   0.00003   0.00003
 5 101   43446.3    230.2   0.000000000   0.00000   0.00003   0.00002   0.00004

------------------------------------------------------------------------------
                           SOC CORRECTED DIPOLE MOMENTS
------------------------------------------------------------------------------
      TX        TY        TZ           |T|
   (Debye)   (Debye)   (Debye)      (Debye)
------------------------------------------------------------------------------
  59.79779 -28.64144   6.38524     66.60990

--------------
CASSCF TIMINGS
--------------

Total time                       ...     8014.2 sec
Sum of individual times          ...     8035.4 sec (100.3%)

Calculation of AO operators
   F(Core) operator              ...      110.2 sec (  1.4%)
   G(Act) operator               ...       96.1 sec (  1.2%)
   J(AO) operators               ...        0.0 sec (  0.0%)
Calculation of MO transformed quantities
   J(MO) operators               ...       10.9 sec (  0.1%)
   (pq|rs) integrals             ...        0.0 sec (  0.0%)
   AO->MO one electron integrals ...        0.3 sec (  0.0%)
Configuration interaction steps
   CI-setup phase                ...        0.0 sec (  0.0%)
   CI-solution phase             ...        0.0 sec (  0.0%)
   Generation of densities       ...        0.0 sec (  0.0%)
Orbital improvement steps
   Orbital gradient              ...        0.2 sec (  0.0%)
PT2 
   NEVPT2 time                   ...     7739.3 sec ( 96.6%)
Properties                       ...       41.3 sec (  0.5%)
   SOC integral calculation      ...       37.0 sec (  0.5%)
   SSC RMEs (incl. integrals)    ...        0.0 sec (  0.0%)
   SOC RMEs                      ...        0.0 sec (  0.0%)

Maximum memory used throughout the entire CASSCF-calculation: 1672.2 MB

-------------------------   --------------------
FINAL SINGLE POINT ENERGY     -3044.143091247533
-------------------------   --------------------


                            ***************************************
                            *     ORCA property calculations      *
                            ***************************************

                                    ---------------------
                                    Active property flags
                                    ---------------------
   (+) Dipole Moment


------------------------------------------------------------------------------
                       ORCA ELECTRIC PROPERTIES CALCULATION
------------------------------------------------------------------------------

Dipole Moment Calculation                       ... on
Quadrupole Moment Calculation                   ... off
Polarizability Calculation                      ... off
GBWName                                         ... nevpt2.gbw
Electron density                                ... nevpt2.scfp
The origin for moment calculation is the CENTER OF MASS  = (13.899067, 15.099965 13.863515)

-------------
DIPOLE MOMENT
-------------
                                X             Y             Z
Electronic contribution:    -23.86940      11.39865      -2.48636
Nuclear contribution   :     23.52579     -11.26818       2.51209
                        -----------------------------------------
Total Dipole Moment    :     -0.34361       0.13047       0.02573
                        -----------------------------------------
Magnitude (a.u.)       :      0.36845
Magnitude (Debye)      :      0.93652



--------------------
Rotational spectrum 
--------------------
 
Rotational constants in cm-1:     0.001161     0.001028     0.000926 
Rotational constants in MHz :    34.813629    30.830963    27.761768 

 Dipole components along the rotational axes: 
x,y,z [a.u.] :     0.365929    -0.020551    -0.037763 
x,y,z [Debye]:     0.930118    -0.052236    -0.095987 

 

Timings for individual modules:

Sum of individual times         ...     8058.658 sec (= 134.311 min)
GTO integral calculation        ...       24.431 sec (=   0.407 min)   0.3 %
SCF iterations                  ...       12.989 sec (=   0.216 min)   0.2 %
CASSCF iterations               ...     8021.239 sec (= 133.687 min)  99.5 %
                             ****ORCA TERMINATED NORMALLY****
TOTAL RUN TIME: 0 days 2 hours 14 minutes 21 seconds 679 msec
