
                                 *****************
                                 * O   R   C   A *
                                 *****************

                                            #,                                       
                                            ###                                      
                                            ####                                     
                                            #####                                    
                                            ######                                   
                                           ########,                                 
                                     ,,################,,,,,                         
                               ,,#################################,,                 
                          ,,##########################################,,             
                       ,#########################################, ''#####,          
                    ,#############################################,,   '####,        
                  ,##################################################,,,,####,       
                ,###########''''           ''''###############################       
              ,#####''   ,,,,##########,,,,          '''####'''          '####       
            ,##' ,,,,###########################,,,                        '##       
           ' ,,###''''                  '''############,,,                           
         ,,##''                                '''############,,,,        ,,,,,,###''
      ,#''                                            '''#######################'''  
     '                                                          ''''####''''         
             ,#######,   #######,   ,#######,      ##                                
            ,#'     '#,  ##    ##  ,#'     '#,    #''#        ######   ,####,        
            ##       ##  ##   ,#'  ##            #'  '#       #        #'  '#        
            ##       ##  #######   ##           ,######,      #####,   #    #        
            '#,     ,#'  ##    ##  '#,     ,#' ,#      #,         ##   #,  ,#        
             '#######'   ##     ##  '#######'  #'      '#     #####' # '####'        



                  #######################################################
                  #                        -***-                        #
                  #          Department of theory and spectroscopy      #
                  #    Directorship and core code : Frank Neese         #
                  #        Max Planck Institute fuer Kohlenforschung    #
                  #                Kaiser Wilhelm Platz 1               #
                  #                 D-45470 Muelheim/Ruhr               #
                  #                      Germany                        #
                  #                                                     #
                  #                  All rights reserved                #
                  #                        -***-                        #
                  #######################################################


                         Program Version 5.0.3 -  RELEASE  -


 With contributions from (in alphabetic order):
   Daniel Aravena         : Magnetic Suceptibility
   Michael Atanasov       : Ab Initio Ligand Field Theory (pilot matlab implementation)
   Alexander A. Auer      : GIAO ZORA, VPT2 properties, NMR spectrum
   Ute Becker             : Parallelization
   Giovanni Bistoni       : ED, misc. LED, open-shell LED, HFLD
   Martin Brehm           : Molecular dynamics
   Dmytro Bykov           : SCF Hessian
   Vijay G. Chilkuri      : MRCI spin determinant printing, contributions to CSF-ICE
   Dipayan Datta          : RHF DLPNO-CCSD density
   Achintya Kumar Dutta   : EOM-CC, STEOM-CC
   Dmitry Ganyushin       : Spin-Orbit,Spin-Spin,Magnetic field MRCI
   Miquel Garcia          : C-PCM and meta-GGA Hessian, CC/C-PCM, Gaussian charge scheme
   Yang Guo               : DLPNO-NEVPT2, F12-NEVPT2, CIM, IAO-localization
   Andreas Hansen         : Spin unrestricted coupled pair/coupled cluster methods
   Benjamin Helmich-Paris : MC-RPA, TRAH-SCF, COSX integrals
   Lee Huntington         : MR-EOM, pCC
   Robert Izsak           : Overlap fitted RIJCOSX, COSX-SCS-MP3, EOM
   Marcus Kettner         : VPT2
   Christian Kollmar      : KDIIS, OOCD, Brueckner-CCSD(T), CCSD density, CASPT2, CASPT2-K
   Simone Kossmann        : Meta GGA functionals, TD-DFT gradient, OOMP2, MP2 Hessian
   Martin Krupicka        : Initial AUTO-CI
   Lucas Lang             : DCDCAS
   Marvin Lechner         : AUTO-CI (C++ implementation), FIC-MRCC
   Dagmar Lenk            : GEPOL surface, SMD
   Dimitrios Liakos       : Extrapolation schemes; Compound Job, initial MDCI parallelization
   Dimitrios Manganas     : Further ROCIS development; embedding schemes
   Dimitrios Pantazis     : SARC Basis sets
   Anastasios Papadopoulos: AUTO-CI, single reference methods and gradients
   Taras Petrenko         : DFT Hessian,TD-DFT gradient, ASA, ECA, R-Raman, ABS, FL, XAS/XES, NRVS
   Peter Pinski           : DLPNO-MP2, DLPNO-MP2 Gradient
   Christoph Reimann      : Effective Core Potentials
   Marius Retegan         : Local ZFS, SOC
   Christoph Riplinger    : Optimizer, TS searches, QM/MM, DLPNO-CCSD(T), (RO)-DLPNO pert. Triples
   Tobias Risthaus        : Range-separated hybrids, TD-DFT gradient, RPA, STAB
   Michael Roemelt        : Original ROCIS implementation
   Masaaki Saitow         : Open-shell DLPNO-CCSD energy and density
   Barbara Sandhoefer     : DKH picture change effects
   Avijit Sen             : IP-ROCIS
   Kantharuban Sivalingam : CASSCF convergence, NEVPT2, FIC-MRCI
   Bernardo de Souza      : ESD, SOC TD-DFT
   Georgi Stoychev        : AutoAux, RI-MP2 NMR, DLPNO-MP2 response
   Willem Van den Heuvel  : Paramagnetic NMR
   Boris Wezisla          : Elementary symmetry handling
   Frank Wennmohs         : Technical directorship


 We gratefully acknowledge several colleagues who have allowed us to
 interface, adapt or use parts of their codes:
   Stefan Grimme, W. Hujo, H. Kruse, P. Pracht,  : VdW corrections, initial TS optimization,
                  C. Bannwarth, S. Ehlert          DFT functionals, gCP, sTDA/sTD-DF
   Ed Valeev, F. Pavosevic, A. Kumar             : LibInt (2-el integral package), F12 methods
   Garnet Chan, S. Sharma, J. Yang, R. Olivares  : DMRG
   Ulf Ekstrom                                   : XCFun DFT Library
   Mihaly Kallay                                 : mrcc  (arbitrary order and MRCC methods)
   Jiri Pittner, Ondrej Demel                    : Mk-CCSD
   Frank Weinhold                                : gennbo (NPA and NBO analysis)
   Christopher J. Cramer and Donald G. Truhlar   : smd solvation model
   Lars Goerigk                                  : TD-DFT with DH, B97 family of functionals
   V. Asgeirsson, H. Jonsson                     : NEB implementation
   FAccTs GmbH                                   : IRC, NEB, NEB-TS, DLPNO-Multilevel, CI-OPT
                                                   MM, QMMM, 2- and 3-layer-ONIOM, Crystal-QMMM,
                                                   LR-CPCM, SF, NACMEs, symmetry and pop. for TD-DFT,
                                                   nearIR, NL-DFT gradient (VV10), updates on ESD,
                                                   ML-optimized integration grids
   S Lehtola, MJT Oliveira, MAL Marques          : LibXC Library
   Liviu Ungur et al                             : ANISO software


 Your calculation uses the libint2 library for the computation of 2-el integrals
 For citations please refer to: http://libint.valeyev.net

 Your ORCA version has been built with support for libXC version: 5.1.0
 For citations please refer to: https://tddft.org/programs/libxc/

 This ORCA versions uses:
   CBLAS   interface :  Fast vector & matrix operations
   LAPACKE interface :  Fast linear algebra routines
   SCALAPACK package :  Parallel linear algebra routines
   Shared memory     :  Shared parallel matrices
   BLAS/LAPACK       :  OpenBLAS 0.3.15  USE64BITINT DYNAMIC_ARCH NO_AFFINITY Sandybridge SINGLE_THREADED
        Core in use  :  Sandybridge
   Copyright (c) 2011-2014, The OpenBLAS Project




***************************************
The coordinates will be read from file: pbe.xyz
***************************************


================================================================================

cite the ECPs for Au [Def2-ECP] as follows:
Ce-Yb(ecp-28): M. Dolg, H. Stoll, H.Preuss, J. Chem. Phys., 1989, 90, 1730-1734.
Y-Cd(ecp-28), Hf-Hg(ecp-46): D. Andrae,U. Haeussermann, M. Dolg, H. Stoll, H. Preuss, Theor. Chim. Acta, 1990, 77, 123-141.
In-Sb(ecp-28), Tl-Bi(ecp-46): B. Metz, H. Stoll, M. Dolg, J. Chem. Phys., 2000, 113, 2563-2569.
Te-Xe(ecp-28), Po-Rn(ecp-46): K. A. Peterson, D. Figgen, E. Goll, H. Stoll, M. Dolg, J. Chem. Phys., 2003, 119, 11113-11123.
Rb(ecp-28), Cs(ecp-46): T. Leininger, A. Nicklass, W. Kuechle, H. Stoll, M. Dolg, A. Bergner, Chem. Phys. Lett., 1996, 255, 274-280.
Sr(ecp-28), Ba(ecp-46): M. Kaupp, P. V. Schleyer, H. Stoll and H. Preuss, J. Chem. Phys., 1991, 94, 1360-1366.
La(ecp-46): M. Dolg, H. Stoll, A. Savin, H. Preuss, Theor. Chim. Acta, 1989, 75, 173-194.
Lu(ecp-28): X. Cao, M. Dolg, J. Chem. Phys., 2001, 115, 7348-7355.

ECP parameters for Au [Def2-ECP] have been obtained from:
TURBOMOLE (7.0.2)

----- Orbital basis set information -----
Your calculation utilizes the basis: def2-TZVP
   F. Weigend and R. Ahlrichs, Phys. Chem. Chem. Phys. 7, 3297 (2005).

----- AuxJ basis set information -----
Your calculation utilizes the auxiliary basis: def2/J
   F. Weigend, Phys. Chem. Chem. Phys. 8, 1057 (2006).

----- AuxC basis set information -----
Your calculation utilizes the auxiliary basis: def2-TZVP/C
  H-La, Hf-Rn : A. Hellweg, C. Hattig, S. Hofener and W. Klopper, Theor. Chem. Acc. 117, 587 (2007).
        Ce-Lu : J. Chmela and M. E. Harding, Mol. Phys. (2018).

================================================================================
                                        WARNINGS
                       Please study these warnings very carefully!
================================================================================


INFO   : the flag for use of the SHARK integral package has been found!

================================================================================
                                       INPUT FILE
================================================================================
NAME = casscf.inp
|  1> !CASSCF def2-TZVP def2-TZVP/C
|  2> !MOREAD RIJCOSX
|  3> %maxcore 6000
|  4> %moinp "pbe.qro"
|  5> %pal nprocs 2 end 
|  6> 
|  7> %casscf
|  8>  mult 5,3
|  9>  bweight 1,1
| 10>  nroots 5,45
| 11>  nel 6
| 12>  norb 5
| 13> end
| 14> 
| 15> 
| 16> *xyzfile 0 5 pbe.xyz
| 17> 
| 18> 
| 19>                          ****END OF INPUT****
================================================================================

                       ****************************
                       * Single Point Calculation *
                       ****************************

---------------------------------
CARTESIAN COORDINATES (ANGSTROEM)
---------------------------------
  Au     7.547249    7.336289    3.852044
  Au     4.831003    7.641231    4.334740
  Au     4.836273    5.755754    6.370296
  Au     7.558319    5.478969    5.912984
  Au     9.287035    7.709757    5.978770
  Au     6.593218    6.140445    8.481452
  Au     6.561848    9.868892    4.400605
  Au     8.324029    8.368095    8.547542
  Au     5.596777   10.530026    6.969272
  Au     3.868363    8.299372    6.903423
  Au     5.607696    8.673088    9.029924
  Au     8.318790   10.253743    6.511569
  Fe     6.577554    8.004658    6.441081

----------------------------
CARTESIAN COORDINATES (A.U.)
----------------------------
  NO LB      ZA    FRAG     MASS         X           Y           Z
   0 Au   19.0000*   0   196.966   14.262234   13.863576    7.279308
   1 Au   19.0000*   0   196.966    9.129272   14.439835    8.191471
   2 Au   19.0000*   0   196.966    9.139231   10.876799   12.038115
   3 Au   19.0000*   0   196.966   14.283153   10.353751   11.173920
   4 Au   19.0000*   0   196.966   17.549953   14.569328   11.298237
   5 Au   19.0000*   0   196.966   12.459377   11.603759   16.027621
   6 Au   19.0000*   0   196.966   12.400095   18.649503    8.315938
   7 Au   19.0000*   0   196.966   15.730134   15.813408   16.152514
   8 Au   19.0000*   0   196.966   10.576375   19.898865   13.170015
   9 Au   19.0000*   0   196.966    7.310146   15.683541   13.045579
  10 Au   19.0000*   0   196.966   10.597010   16.389762   17.064084
  11 Au   19.0000*   0   196.966   15.720234   19.376765   12.305082
  12 Fe   26.0000    0    55.850   12.429776   15.126612   12.171880
* core charge reduced due to ECP

--------------------------------
INTERNAL COORDINATES (ANGSTROEM)
--------------------------------
 Au     0   0   0     0.000000000000     0.00000000     0.00000000
 Au     1   0   0     2.775604669096     0.00000000     0.00000000
 Au     2   1   0     2.774624857587    92.92716429     0.00000000
 Au     3   2   1     2.774036861434    87.06081320     0.79218104
 Au     1   2   3     2.772957824028   117.76324945   304.15228325
 Au     3   2   1     2.773413533747   117.73588068    55.85929595
 Au     1   2   3     2.772366429030    61.14399184   235.06159845
 Au     5   1   2     2.821238178730   121.03662635     0.22171628
 Au     7   1   2     2.822500991311   121.03644727    68.93075705
 Au     3   2   1     2.773277689717    61.12498221   124.90379894
 Au     6   3   2     2.772428204266    92.98710392    55.50661415
 Au     7   1   2     2.773287906249    92.99241547   124.67083550
 Fe     9   7   1     2.760143575431    59.33862433     0.08132441

---------------------------
INTERNAL COORDINATES (A.U.)
---------------------------
 Au     0   0   0     0.000000000000     0.00000000     0.00000000
 Au     1   0   0     5.245132680625     0.00000000     0.00000000
 Au     2   1   0     5.243281105209    92.92716429     0.00000000
 Au     3   2   1     5.242169953512    87.06081320     0.79218104
 Au     1   2   3     5.240130868327   117.76324945   304.15228325
 Au     3   2   1     5.240992034893   117.73588068    55.85929595
 Au     1   2   3     5.239013293744    61.14399184   235.06159845
 Au     5   1   2     5.331367516363   121.03662635     0.22171628
 Au     7   1   2     5.333753886299   121.03644727    68.93075705
 Au     3   2   1     5.240735326880    61.12498221   124.90379894
 Au     6   3   2     5.239130032023    92.98710392    55.50661415
 Au     7   1   2     5.240754633326    92.99241547   124.67083550
 Fe     9   7   1     5.215915447867    59.33862433     0.08132441

---------------------
BASIS SET INFORMATION
---------------------
There are 2 groups of distinct atoms

 Group   1 Type Au  : 8s7p6d1f contracted to 6s4p3d1f pattern {311111/4111/411/1}
 Group   2 Type Fe  : 17s11p7d1f contracted to 6s4p4d1f pattern {842111/6311/4111/1}

Atom   0Au   basis set group =>   1
Atom   1Au   basis set group =>   1
Atom   2Au   basis set group =>   1
Atom   3Au   basis set group =>   1
Atom   4Au   basis set group =>   1
Atom   5Au   basis set group =>   1
Atom   6Au   basis set group =>   1
Atom   7Au   basis set group =>   1
Atom   8Au   basis set group =>   1
Atom   9Au   basis set group =>   1
Atom  10Au   basis set group =>   1
Atom  11Au   basis set group =>   1
Atom  12Fe   basis set group =>   2
---------------------------------
AUXILIARY/J BASIS SET INFORMATION
---------------------------------
There are 2 groups of distinct atoms

 Group   1 Type Au  : 11s5p5d3f3g contracted to 8s5p5d2f3g pattern {41111111/11111/11111/21/111}
 Group   2 Type Fe  : 19s5p5d3f3g contracted to 8s5p5d2f3g pattern {121111111/11111/11111/21/111}

Atom   0Au   basis set group =>   1
Atom   1Au   basis set group =>   1
Atom   2Au   basis set group =>   1
Atom   3Au   basis set group =>   1
Atom   4Au   basis set group =>   1
Atom   5Au   basis set group =>   1
Atom   6Au   basis set group =>   1
Atom   7Au   basis set group =>   1
Atom   8Au   basis set group =>   1
Atom   9Au   basis set group =>   1
Atom  10Au   basis set group =>   1
Atom  11Au   basis set group =>   1
Atom  12Fe   basis set group =>   2
---------------------------------
AUXILIARY/C BASIS SET INFORMATION
---------------------------------
There are 2 groups of distinct atoms

 Group   1 Type Au  : 8s8p7d5f3g2h contracted to 8s8p7d5f3g2h pattern {11111111/11111111/1111111/11111/111/11}
 Group   2 Type Fe  : 11s9p8d6f5g2h contracted to 9s8p8d6f5g2h pattern {311111111/21111111/11111111/111111/11111/11}

Atom   0Au   basis set group =>   1
Atom   1Au   basis set group =>   1
Atom   2Au   basis set group =>   1
Atom   3Au   basis set group =>   1
Atom   4Au   basis set group =>   1
Atom   5Au   basis set group =>   1
Atom   6Au   basis set group =>   1
Atom   7Au   basis set group =>   1
Atom   8Au   basis set group =>   1
Atom   9Au   basis set group =>   1
Atom  10Au   basis set group =>   1
Atom  11Au   basis set group =>   1
Atom  12Fe   basis set group =>   2
-------------------------
ECP PARAMETER INFORMATION
-------------------------

 Group 1, Type Au ECP Def2-ECP (replacing 60 core electrons, lmax=3)

Atom   0Au   ECP group =>   1
Atom   1Au   ECP group =>   1
Atom   2Au   ECP group =>   1
Atom   3Au   ECP group =>   1
Atom   4Au   ECP group =>   1
Atom   5Au   ECP group =>   1
Atom   6Au   ECP group =>   1
Atom   7Au   ECP group =>   1
Atom   8Au   ECP group =>   1
Atom   9Au   ECP group =>   1
Atom  10Au   ECP group =>   1
Atom  11Au   ECP group =>   1



           ************************************************************
           *        Program running with 2 parallel MPI-processes     *
           *              working on a common directory               *
           ************************************************************
------------------------------------------------------------------------------
                           ORCA GTO INTEGRAL CALCULATION
                           -- RI-GTO INTEGRALS CHOSEN --
------------------------------------------------------------------------------
------------------------------------------------------------------------------
                   ___                                                        
                  /   \      - P O W E R E D   B Y -                         
                 /     \                                                     
                 |  |  |   _    _      __       _____    __    __             
                 |  |  |  | |  | |    /  \     |  _  \  |  |  /  |          
                  \  \/   | |  | |   /    \    | | | |  |  | /  /          
                 / \  \   | |__| |  /  /\  \   | |_| |  |  |/  /          
                |  |  |   |  __  | /  /__\  \  |    /   |      \           
                |  |  |   | |  | | |   __   |  |    \   |  |\   \          
                \     /   | |  | | |  |  |  |  | |\  \  |  | \   \       
                 \___/    |_|  |_| |__|  |__|  |_| \__\ |__|  \__/        
                                                                              
                      - O R C A' S   B I G   F R I E N D -                    
                                      &                                       
                       - I N T E G R A L  F E E D E R -                       
                                                                              
 v1 FN, 2020, v2 2021                                                         
------------------------------------------------------------------------------


Reading SHARK input file casscf.SHARKINP.tmp ... ok
----------------------
SHARK INTEGRAL PACKAGE
----------------------

Number of atoms                             ...     13
Number of basis functions                   ...    525
Number of shells                            ...    183
Maximum angular momentum                    ...      3
Integral batch strategy                     ... SHARK/LIBINT Hybrid
RI-J (if used) integral strategy            ... SPLIT-RIJ (Revised 2003 algorithm where possible)
Printlevel                                  ...      1
Contraction scheme used                     ... SEGMENTED contraction
Coulomb Range Separation                    ... NOT USED
Exchange Range Separation                   ... NOT USED
Finite Nucleus Model                        ... NOT USED
Auxiliary Coulomb fitting basis             ... AVAILABLE
   # of basis functions in Aux-J            ...   1157
   # of shells in Aux-J                     ...    299
   Maximum angular momentum in Aux-J        ...      4
Auxiliary J/K fitting basis                 ... NOT available
Auxiliary Correlation fitting basis         ... AVAILABLE
   # of basis functions in Aux-C            ...   1994
   # of shells in Aux-C                     ...    434
   Maximum angular momentum in Aux-C        ...      5
Auxiliary 'external' fitting basis          ... NOT available
Integral threshold                          ...     1.000000e-10
Primitive cut-off                           ...     1.000000e-11
Primitive pair pre-selection threshold      ...     1.000000e-11

Calculating pre-screening integrals         ... done (  2.1 sec) Dimension = 183
Organizing shell pair data                  ... done (  1.8 sec)
Shell pair information
Total number of shell pairs                 ...     16836
Shell pairs after pre-screening             ...     13902
Total number of primitive shell pairs       ...     45389
Primitive shell pairs kept                  ...     27447
          la=0 lb=0:   2157 shell pairs
          la=1 lb=0:   3140 shell pairs
          la=1 lb=1:   1206 shell pairs
          la=2 lb=0:   2756 shell pairs
          la=2 lb=1:   1938 shell pairs
          la=2 lb=2:    790 shell pairs
          la=3 lb=0:    750 shell pairs
          la=3 lb=1:    572 shell pairs
          la=3 lb=2:    508 shell pairs
          la=3 lb=3:     85 shell pairs

Calculating one electron integrals          ... done (  0.4 sec)
Calculating ECP integrals                   ... done ( 57.7 sec)
Calculating RI/J V-Matrix + Cholesky decomp.... done (  1.6 sec)
Calculating RI/C V-Matrix + Cholesky decomp.... done (  4.5 sec)
Calculating Nuclear repulsion               ... done (  0.0 sec) ENN=   4504.072836483460 Eh

SHARK setup successfully completed in  72.6 seconds

Maximum memory used throughout the entire GTOINT-calculation: 69.7 MB


           ************************************************************
           *        Program running with 2 parallel MPI-processes     *
           *              working on a common directory               *
           ************************************************************
-------------------------------------------------------------------------------
                                 ORCA SCF
-------------------------------------------------------------------------------

------------
SCF SETTINGS
------------
Hamiltonian:
 Ab initio Hamiltonian  Method          .... Hartree-Fock(GTOs)
 RI-approximation to the Coulomb term is turned on
   Number of AuxJ basis functions       .... 1157
   RIJ-COSX (HFX calculated with COS-X)).... on


General Settings:
 Integral files         IntName         .... casscf
 Hartree-Fock type      HFTyp           .... CASSCF
 Total Charge           Charge          ....    0
 Multiplicity           Mult            ....    5
 Number of Electrons    NEL             ....  254
 Basis Dimension        Dim             ....  525
 Nuclear Repulsion      ENuc            ....   4504.0728364835 Eh


Diagonalization of the overlap matrix:
Smallest eigenvalue                        ... 6.071e-04
Time for diagonalization                   ...    0.379 sec
Threshold for overlap eigenvalues          ... 1.000e-08
Number of eigenvalues below threshold      ... 0
Time for construction of square roots      ...    0.235 sec
Total time needed                          ...    0.629 sec

---------------------
INITIAL GUESS: MOREAD
---------------------
Guess MOs are being read from file: pbe.qro
Input Geometry matches current geometry (good)
Input basis set matches current basis set (good)
MOs were renormalized
Gram-Schmidt orthogonalization of all MOs with pivot on actives
                      ------------------
                      INITIAL GUESS DONE (  15.8 sec)
                      ------------------
--------------------
COSX GRID GENERATION
--------------------

GRIDX 1
-------
General Integration Accuracy     IntAcc      ... 3.816
Radial Grid Type                 RadialGrid  ... OptM3 with GC (2021)
Angular Grid (max. ang.)         AngularGrid ... 1 (Lebedev-50)
Angular grid pruning method      GridPruning ... 4 (adaptive)
Weight generation scheme         WeightScheme... Becke
Basis function cutoff            BFCut       ... 1.0000e-10
Integration weight cutoff        WCut        ... 1.0000e-14
Angular grids for H and He will be reduced by one unit
Partially contracted basis set               ... on
Rotationally invariant grid construction     ... off

Total number of grid points                  ...    15140
Total number of batches                      ...      243
Average number of points per batch           ...       62
Average number of grid points per atom       ...     1165
UseSFitting                                  ... on

GRIDX 2
-------
General Integration Accuracy     IntAcc      ... 4.020
Radial Grid Type                 RadialGrid  ... OptM3 with GC (2021)
Angular Grid (max. ang.)         AngularGrid ... 2 (Lebedev-110)
Angular grid pruning method      GridPruning ... 4 (adaptive)
Weight generation scheme         WeightScheme... Becke
Basis function cutoff            BFCut       ... 1.0000e-10
Integration weight cutoff        WCut        ... 1.0000e-14
Angular grids for H and He will be reduced by one unit
Partially contracted basis set               ... on
Rotationally invariant grid construction     ... off

Total number of grid points                  ...    45996
Total number of batches                      ...      724
Average number of points per batch           ...       63
Average number of grid points per atom       ...     3538
UseSFitting                                  ... on

GRIDX 3
-------
General Integration Accuracy     IntAcc      ... 4.338
Radial Grid Type                 RadialGrid  ... OptM3 with GC (2021)
Angular Grid (max. ang.)         AngularGrid ... 3 (Lebedev-194)
Angular grid pruning method      GridPruning ... 4 (adaptive)
Weight generation scheme         WeightScheme... Becke
Basis function cutoff            BFCut       ... 1.0000e-10
Integration weight cutoff        WCut        ... 1.0000e-14
Angular grids for H and He will be reduced by one unit
Partially contracted basis set               ... on
Rotationally invariant grid construction     ... off

Total number of grid points                  ...    84082
Total number of batches                      ...     1318
Average number of points per batch           ...       63
Average number of grid points per atom       ...     6468
UseSFitting                                  ... on

Time for X-Grid setup             =   20.334 sec



 ... the calculation is a CASSCF calculation -I'm leaving here GOOD LUCK!!!



           ************************************************************
           *        Program running with 2 parallel MPI-processes     *
           *              working on a common directory               *
           ************************************************************
-------------------------------------------------------------------------------
                              ORCA-CASSCF
-------------------------------------------------------------------------------

Setting up the integral package       ... done
Setting up the integral package (RI)  ... done
Building the CAS space                ... done (5 configurations for Mult=5)
Building the CAS space                ... done (35 configurations for Mult=3)

SYSTEM-SPECIFIC SETTINGS:
Number of active electrons          ...    6
Number of active orbitals           ...    5
Total number of electrons           ...  254
Total number of orbitals            ...  525
Total number aux. functions         ... 1994

Determined orbital ranges:
   Internal       0 -  123 ( 124 orbitals)
   Active       124 -  128 (   5 orbitals)
   External     129 -  524 ( 396 orbitals)
Number of rotation parameters      ...  51704

CI-STEP:
CI strategy                         ... General CI
Number of multiplicity blocks       ...    2
BLOCK  1 WEIGHT=   0.5000
  Multiplicity                      ...    5
  #(Configurations)                 ...    5
  #(CSFs)                           ...    5
  #(Roots)                          ...    5
    ROOT=0 WEIGHT=    0.100000
    ROOT=1 WEIGHT=    0.100000
    ROOT=2 WEIGHT=    0.100000
    ROOT=3 WEIGHT=    0.100000
    ROOT=4 WEIGHT=    0.100000

BLOCK  2 WEIGHT=   0.5000
  Multiplicity                      ...    3
  #(Configurations)                 ...   35
  #(CSFs)                           ...   45
  #(Roots)                          ...   45
    ROOT=0 WEIGHT=    0.011111
    ROOT=1 WEIGHT=    0.011111
    ROOT=2 WEIGHT=    0.011111
    ROOT=3 WEIGHT=    0.011111
    ROOT=4 WEIGHT=    0.011111
    ROOT=5 WEIGHT=    0.011111
    ROOT=6 WEIGHT=    0.011111
    ROOT=7 WEIGHT=    0.011111
    ROOT=8 WEIGHT=    0.011111
    ROOT=9 WEIGHT=    0.011111
    ROOT=10 WEIGHT=    0.011111
    ROOT=11 WEIGHT=    0.011111
    ROOT=12 WEIGHT=    0.011111
    ROOT=13 WEIGHT=    0.011111
    ROOT=14 WEIGHT=    0.011111
    ROOT=15 WEIGHT=    0.011111
    ROOT=16 WEIGHT=    0.011111
    ROOT=17 WEIGHT=    0.011111
    ROOT=18 WEIGHT=    0.011111
    ROOT=19 WEIGHT=    0.011111
    ROOT=20 WEIGHT=    0.011111
    ROOT=21 WEIGHT=    0.011111
    ROOT=22 WEIGHT=    0.011111
    ROOT=23 WEIGHT=    0.011111
    ROOT=24 WEIGHT=    0.011111
    ROOT=25 WEIGHT=    0.011111
    ROOT=26 WEIGHT=    0.011111
    ROOT=27 WEIGHT=    0.011111
    ROOT=28 WEIGHT=    0.011111
    ROOT=29 WEIGHT=    0.011111
    ROOT=30 WEIGHT=    0.011111
    ROOT=31 WEIGHT=    0.011111
    ROOT=32 WEIGHT=    0.011111
    ROOT=33 WEIGHT=    0.011111
    ROOT=34 WEIGHT=    0.011111
    ROOT=35 WEIGHT=    0.011111
    ROOT=36 WEIGHT=    0.011111
    ROOT=37 WEIGHT=    0.011111
    ROOT=38 WEIGHT=    0.011111
    ROOT=39 WEIGHT=    0.011111
    ROOT=40 WEIGHT=    0.011111
    ROOT=41 WEIGHT=    0.011111
    ROOT=42 WEIGHT=    0.011111
    ROOT=43 WEIGHT=    0.011111
    ROOT=44 WEIGHT=    0.011111

  PrintLevel                        ...    1
  N(GuessMat)                       ...       512
  MaxDim(CI)                        ...        10
  MaxIter(CI)                       ...        64
  Energy Tolerance CI               ...  1.00e-08
  Residual Tolerance CI             ...  1.00e-08
  Shift(CI)                         ...  1.00e-04

INTEGRAL-TRANSFORMATION-STEP:
  Algorithm                         ... RI-MO

ORBITAL-IMPROVEMENT-STEP:
  Algorithm                         ... SuperCI(PT)
  Default Parametrization           ... CAYLEY
  Act-Act rotations                 ... depends on algorithm used

  Note: SuperCI(PT) will ignore FreezeIE, FreezeAct and FreezeGrad. In general Default settings are encouraged.
        In conjunction with ShiftUp, ShiftDn or GradScaling the performance of SuperCI(PT) is less optimal.  

  MaxRot                            ... 2.00e-01 
  Max. no of vectors (DIIS)         ... 15
  DThresh (cut-off) metric          ... 1.00e-06
  Switch step at gradient           ...  3.00e-02 
  Switch step at iteration          ...        50   
  Switch step to                    ... SuperCI(PT)    

SCF-SETTINGS:
  Incremental                       ... off
  RIJCOSX approximation             ... on
  UseFinalGrid                      ... on
  RI-JK approximation               ... off
  AO integral handling              ... DIRECT
  Integral Neglect Thresh           ...  1.00e-10
  Primitive cutoff TCut             ...  1.00e-11
  Energy convergence tolerance      ...  1.00e-07
  Orbital gradient convergence      ...  1.00e-03
  Max. number of iterations         ...        75  


FINAL ORBITALS:
  Active   Orbitals                 ... natural 
  Internal Orbitals                 ... canonical 
  External Orbitals                 ... canonical 

------------------
CAS-SCF ITERATIONS
------------------


MACRO-ITERATION   1: 
   --- Inactive Energy E0 = -2869.31867732 Eh
CI-ITERATION   0: 
 -2879.654130707   0.000000000000 (    0.00)
 -2879.653466444   0.000000000000
 -2879.650950663   0.000000000000
 -2879.633983820   0.000000000000
 -2879.606743732   0.000000000000
   CI-PROBLEM SOLVED
   DENSITIES MADE
CI-ITERATION   0: 
 -2879.597153752   0.000000000000 (    0.05)
 -2879.596923631   0.000000000000
 -2879.593087718   0.000000000000
 -2879.593084446   0.000000000000
 -2879.593071574   0.000000000000
 -2879.590305783   0.000000000000
 -2879.588316036   0.000000000000
 -2879.587911251   0.000000000000
 -2879.586232603   0.000000000000
 -2879.585813426   0.000000000000
 -2879.583870771   0.000000000000
 -2879.582740472   0.000000000000
 -2879.582525479   0.000000000000
 -2879.579600276   0.000000000000
 -2879.575167116   0.000000000000
 -2879.574034314   0.000000000000
 -2879.573932646   0.000000000000
 -2879.573679000   0.000000000000
 -2879.569414825   0.000000000000
 -2879.569234909   0.000000000000
 -2879.568329740   0.000000000000
 -2879.566265614   0.000000000000
 -2879.565278230   0.000000000000
 -2879.561913191   0.000000000000
 -2879.555421526   0.000000000000
 -2879.554933579   0.000000000000
 -2879.550205995   0.000000000000
 -2879.546047429   0.000000000000
 -2879.545597441   0.000000000000
 -2879.542689032   0.000000000000
 -2879.542031794   0.000000000000
 -2879.536101417   0.000000000000
 -2879.533260348   0.000000000000
 -2879.531629053   0.000000000000
 -2879.531574176   0.000000000000
 -2879.503380742   0.000000000000
 -2879.492263070   0.000000000000
 -2879.492101102   0.000000000000
 -2879.491329742   0.000000000000
 -2879.478121966   0.000000000000
 -2879.477873549   0.000000000000
 -2879.477319839   0.000000000000
 -2879.469553532   0.000000000000
 -2879.466237825   0.000000000000
 -2879.465811889   0.000000000000
   CI-PROBLEM SOLVED
   DENSITIES MADE

                 <<<<<<<<<<<<<<<<<<INITIAL CI STATE CHECK>>>>>>>>>>>>>>>>>>

BLOCK  1 MULT= 5 NROOTS= 5 
ROOT   0:  E=   -2879.6541307071 Eh
      0.99947 [     0]: 11112
ROOT   1:  E=   -2879.6534664439 Eh  0.018 eV    145.8 cm**-1
      0.99947 [     1]: 11121
ROOT   2:  E=   -2879.6509506632 Eh  0.087 eV    697.9 cm**-1
      1.00000 [     4]: 21111
ROOT   3:  E=   -2879.6339838203 Eh  0.548 eV   4421.7 cm**-1
      1.00000 [     2]: 11211
ROOT   4:  E=   -2879.6067437323 Eh  1.289 eV  10400.2 cm**-1
      1.00000 [     3]: 12111

BLOCK  2 MULT= 3 NROOTS=45 
ROOT   0:  E=   -2879.5971537515 Eh
      0.86498 [    10]: 11112
      0.07661 [     2]: 01221
      0.01751 [     8]: 10221
      0.01683 [    30]: 21201
      0.01462 [    26]: 21021
      0.00452 [     3]: 02112
ROOT   1:  E=   -2879.5969236314 Eh  0.006 eV     50.5 cm**-1
      0.84938 [    11]: 11121
      0.09665 [     1]: 01212
      0.01583 [    31]: 21210
      0.01465 [     7]: 10212
      0.01413 [    25]: 21012
      0.00424 [     4]: 02121
ROOT   2:  E=   -2879.5930877175 Eh  0.111 eV    892.4 cm**-1
      0.48852 [    11]: 11121
      0.32349 [    10]: 11112
      0.02826 [     1]: 01212
      0.02648 [    25]: 21012
      0.02123 [    23]: 20121
      0.01854 [    22]: 20112
      0.01829 [     7]: 10212
      0.01760 [    26]: 21021
      0.01480 [     2]: 01221
      0.01279 [     8]: 10221
      0.00928 [    31]: 21210
      0.00613 [    30]: 21201
      0.00608 [    15]: 12012
      0.00418 [    16]: 12021
ROOT   3:  E=   -2879.5930844462 Eh  0.111 eV    893.1 cm**-1
      0.48903 [    10]: 11112
      0.31858 [    11]: 11121
      0.02683 [    26]: 21021
      0.02338 [    22]: 20112
      0.02281 [     2]: 01221
      0.01858 [     1]: 01212
      0.01731 [    25]: 21012
      0.01676 [    23]: 20121
      0.01597 [     8]: 10221
      0.01426 [     7]: 10212
      0.00926 [    30]: 21201
      0.00605 [    31]: 21210
      0.00519 [    16]: 12021
      0.00473 [    15]: 12012
      0.00472 [     0]: 01122
ROOT   4:  E=   -2879.5930715740 Eh  0.111 eV    895.9 cm**-1
      0.66340 [     0]: 01122
      0.22846 [    13]: 11211
      0.05929 [    27]: 21102
      0.03440 [    29]: 21120
      0.00456 [    10]: 11112
      0.00413 [    17]: 12102
ROOT   5:  E=   -2879.5903057832 Eh  0.186 eV   1503.0 cm**-1
      0.79142 [    28]: 21111
      0.18806 [     9]: 11022
      0.01067 [    18]: 12111
      0.00871 [    12]: 11202
ROOT   6:  E=   -2879.5883160360 Eh  0.240 eV   1939.7 cm**-1
      0.39170 [    27]: 21102
      0.37885 [    29]: 21120
      0.05833 [     6]: 10122
      0.05098 [    32]: 22011
      0.04038 [    24]: 20211
      0.03885 [    17]: 12102
      0.03618 [    19]: 12120
ROOT   7:  E=   -2879.5879112507 Eh  0.252 eV   2028.5 cm**-1
      0.85245 [    28]: 21111
      0.05267 [    14]: 11220
      0.05217 [    12]: 11202
      0.03713 [    18]: 12111
      0.00397 [     9]: 11022
ROOT   8:  E=   -2879.5862326032 Eh  0.297 eV   2396.9 cm**-1
      0.48545 [     1]: 01212
      0.17468 [    25]: 21012
      0.14598 [    11]: 11121
      0.11442 [     7]: 10212
      0.05841 [    23]: 20121
      0.01639 [     4]: 02121
ROOT   9:  E=   -2879.5858134263 Eh  0.309 eV   2488.9 cm**-1
      0.51703 [     2]: 01221
      0.18052 [    26]: 21021
      0.12303 [    10]: 11112
      0.10385 [     8]: 10221
      0.05498 [    22]: 20112
      0.01579 [     3]: 02112
ROOT  10:  E=   -2879.5838707709 Eh  0.361 eV   2915.3 cm**-1
      0.80506 [     6]: 10122
      0.05950 [    27]: 21102
      0.05580 [    29]: 21120
      0.03190 [    24]: 20211
      0.01818 [    13]: 11211
      0.01356 [    17]: 12102
      0.01283 [    19]: 12120
      0.00276 [     5]: 02211
ROOT  11:  E=   -2879.5827404718 Eh  0.392 eV   3163.3 cm**-1
      0.45792 [    25]: 21012
      0.16667 [    11]: 11121
      0.13008 [     7]: 10212
      0.11251 [    23]: 20121
      0.07755 [     1]: 01212
      0.02378 [    15]: 12012
      0.02138 [    31]: 21210
      0.00869 [     4]: 02121
ROOT  12:  E=   -2879.5825254788 Eh  0.398 eV   3210.5 cm**-1
      0.44555 [    26]: 21021
      0.16551 [    10]: 11112
      0.12580 [     8]: 10221
      0.12113 [    22]: 20112
      0.08211 [     2]: 01221
      0.02850 [    16]: 12021
      0.02063 [    30]: 21201
      0.00960 [     3]: 02112
ROOT  13:  E=   -2879.5796002763 Eh  0.478 eV   3852.5 cm**-1
      0.87387 [    13]: 11211
      0.04000 [     6]: 10122
      0.03787 [    17]: 12102
      0.02819 [    19]: 12120
      0.00782 [     5]: 02211
      0.00678 [    32]: 22011
ROOT  14:  E=   -2879.5751671161 Eh  0.598 eV   4825.5 cm**-1
      0.51461 [    13]: 11211
      0.20906 [    29]: 21120
      0.19062 [    27]: 21102
      0.03531 [    19]: 12120
      0.02605 [     0]: 01122
      0.02363 [    17]: 12102
ROOT  15:  E=   -2879.5740343141 Eh  0.629 eV   5074.1 cm**-1
      0.40172 [    10]: 11112
      0.18608 [     8]: 10221
      0.13107 [     2]: 01221
      0.13043 [    30]: 21201
      0.06245 [    26]: 21021
      0.04804 [     3]: 02112
      0.02102 [    34]: 22110
      0.01593 [    22]: 20112
ROOT  16:  E=   -2879.5739326455 Eh  0.632 eV   5096.4 cm**-1
      0.39752 [     9]: 11022
      0.20139 [    12]: 11202
      0.20050 [    28]: 21111
      0.15644 [    14]: 11220
      0.04389 [    18]: 12111
ROOT  17:  E=   -2879.5736790000 Eh  0.639 eV   5152.1 cm**-1
      0.39077 [    11]: 11121
      0.18676 [     7]: 10212
      0.13446 [     1]: 01212
      0.13120 [    31]: 21210
      0.06202 [    25]: 21012
      0.04929 [     4]: 02121
      0.02556 [    33]: 22101
      0.01729 [    23]: 20121
ROOT  18:  E=   -2879.5694148253 Eh  0.755 eV   6088.0 cm**-1
      0.36955 [    23]: 20121
      0.18613 [    11]: 11121
      0.17918 [     7]: 10212
      0.11577 [    15]: 12012
      0.07239 [    25]: 21012
      0.03662 [     4]: 02121
      0.01763 [    31]: 21210
      0.01108 [     1]: 01212
      0.00795 [    33]: 22101
      0.00319 [    21]: 12210
ROOT  19:  E=   -2879.5692349086 Eh  0.760 eV   6127.5 cm**-1
      0.38741 [    22]: 20112
      0.18097 [     8]: 10221
      0.16668 [    10]: 11112
      0.11484 [    16]: 12021
      0.06900 [    26]: 21021
      0.03963 [     3]: 02112
      0.02120 [    30]: 21201
      0.00835 [     2]: 01221
      0.00742 [    34]: 22110
      0.00402 [    20]: 12201
ROOT  20:  E=   -2879.5683297396 Eh  0.784 eV   6326.1 cm**-1
      0.58771 [    28]: 21111
      0.23439 [    18]: 12111
      0.06855 [    12]: 11202
      0.05713 [    14]: 11220
      0.05171 [     9]: 11022
ROOT  21:  E=   -2879.5662656138 Eh  0.841 eV   6779.2 cm**-1
      0.66924 [    13]: 11211
      0.10186 [    17]: 12102
      0.09701 [    19]: 12120
      0.07394 [     0]: 01122
      0.03086 [    29]: 21120
      0.02581 [    27]: 21102
ROOT  22:  E=   -2879.5652782300 Eh  0.867 eV   6995.9 cm**-1
      0.43042 [    14]: 11220
      0.37134 [    12]: 11202
      0.09908 [    28]: 21111
      0.09660 [    18]: 12111
ROOT  23:  E=   -2879.5619131911 Eh  0.959 eV   7734.4 cm**-1
      0.67643 [    32]: 22011
      0.18041 [    24]: 20211
      0.03592 [    19]: 12120
      0.03054 [    17]: 12102
      0.02057 [    29]: 21120
      0.01875 [     6]: 10122
      0.01536 [    27]: 21102
      0.01490 [     5]: 02211
      0.00702 [    13]: 11211
ROOT  24:  E=   -2879.5554215257 Eh  1.136 eV   9159.2 cm**-1
      0.69281 [    33]: 22101
      0.05976 [     7]: 10212
      0.05638 [    15]: 12012
      0.05400 [    11]: 11121
      0.04937 [    23]: 20121
      0.04385 [    25]: 21012
      0.02714 [     4]: 02121
      0.01398 [     1]: 01212
ROOT  25:  E=   -2879.5549335786 Eh  1.149 eV   9266.3 cm**-1
      0.69415 [    34]: 22110
      0.05993 [     8]: 10221
      0.05640 [    10]: 11112
      0.05590 [    16]: 12021
      0.04754 [    22]: 20112
      0.04289 [    26]: 21021
      0.02865 [     3]: 02112
      0.01186 [     2]: 01221
ROOT  26:  E=   -2879.5502059953 Eh  1.278 eV  10303.8 cm**-1
      0.96004 [    18]: 12111
      0.02655 [    28]: 21111
      0.00703 [    12]: 11202
      0.00577 [    14]: 11220
ROOT  27:  E=   -2879.5460474291 Eh  1.391 eV  11216.5 cm**-1
      0.19679 [     3]: 02112
      0.18443 [    10]: 11112
      0.15152 [    22]: 20112
      0.13404 [    30]: 21201
      0.11326 [     8]: 10221
      0.11084 [    34]: 22110
      0.04515 [    16]: 12021
      0.02833 [     2]: 01221
      0.02021 [    20]: 12201
      0.01454 [    26]: 21021
ROOT  28:  E=   -2879.5455974412 Eh  1.403 eV  11315.3 cm**-1
      0.21518 [     4]: 02121
      0.17135 [    11]: 11121
      0.16761 [    23]: 20121
      0.12714 [    31]: 21210
      0.10596 [    33]: 22101
      0.10282 [     7]: 10212
      0.04205 [    15]: 12012
      0.02867 [     1]: 01212
      0.02484 [    21]: 12210
      0.01353 [    25]: 21012
ROOT  29:  E=   -2879.5426890324 Eh  1.482 eV  11953.6 cm**-1
      0.46717 [    18]: 12111
      0.35865 [    28]: 21111
      0.16880 [     9]: 11022
      0.00294 [    12]: 11202
ROOT  30:  E=   -2879.5420317941 Eh  1.500 eV  12097.9 cm**-1
      0.50586 [    13]: 11211
      0.17604 [    19]: 12120
      0.15316 [    17]: 12102
      0.11482 [     0]: 01122
      0.02301 [    27]: 21102
      0.02088 [    29]: 21120
      0.00473 [     5]: 02211
ROOT  31:  E=   -2879.5361014171 Eh  1.661 eV  13399.4 cm**-1
      0.71858 [     5]: 02211
      0.11421 [    24]: 20211
      0.11316 [    32]: 22011
      0.02693 [    17]: 12102
      0.00917 [    13]: 11211
      0.00888 [    19]: 12120
      0.00435 [    29]: 21120
      0.00281 [    27]: 21102
ROOT  32:  E=   -2879.5332603479 Eh  1.739 eV  14023.0 cm**-1
      0.67194 [    20]: 12201
      0.16239 [    16]: 12021
      0.09915 [    30]: 21201
      0.01985 [     8]: 10221
      0.01657 [     2]: 01221
      0.01598 [    10]: 11112
      0.00717 [    34]: 22110
      0.00442 [     3]: 02112
ROOT  33:  E=   -2879.5316290525 Eh  1.783 eV  14381.0 cm**-1
      0.65858 [    21]: 12210
      0.16462 [    15]: 12012
      0.08415 [    31]: 21210
      0.03239 [    18]: 12111
      0.01699 [     7]: 10212
      0.01360 [    11]: 11121
      0.01292 [     1]: 01212
      0.00906 [    33]: 22101
      0.00294 [     4]: 02121
ROOT  34:  E=   -2879.5315741762 Eh  1.785 eV  14393.1 cm**-1
      0.87303 [    18]: 12111
      0.03715 [    12]: 11202
      0.03575 [    14]: 11220
      0.02437 [    21]: 12210
      0.01812 [    28]: 21111
      0.00618 [    15]: 12012
      0.00309 [    31]: 21210
ROOT  35:  E=   -2879.5033807420 Eh  2.552 eV  20580.8 cm**-1
      0.20782 [    29]: 21120
      0.20214 [    17]: 12102
      0.20060 [    19]: 12120
      0.19732 [    27]: 21102
      0.11428 [     0]: 01122
      0.07686 [    13]: 11211
ROOT  36:  E=   -2879.4922630702 Eh  2.854 eV  23020.8 cm**-1
      0.57391 [    31]: 21210
      0.10441 [    25]: 21012
      0.07087 [     1]: 01212
      0.06453 [    11]: 11121
      0.05972 [    21]: 12210
      0.04454 [    33]: 22101
      0.03919 [    15]: 12012
      0.01893 [    23]: 20121
      0.01514 [     4]: 02121
      0.00622 [     7]: 10212
ROOT  37:  E=   -2879.4921011019 Eh  2.859 eV  23056.4 cm**-1
      0.25644 [    14]: 11220
      0.24782 [    12]: 11202
      0.24201 [    18]: 12111
      0.18875 [     9]: 11022
      0.06295 [    28]: 21111
ROOT  38:  E=   -2879.4913297415 Eh  2.880 eV  23225.7 cm**-1
      0.55131 [    30]: 21201
      0.10977 [    26]: 21021
      0.07210 [    20]: 12201
      0.06824 [     2]: 01221
      0.06415 [    10]: 11112
      0.04864 [    16]: 12021
      0.04622 [    34]: 22110
      0.01960 [    22]: 20112
      0.01381 [     3]: 02112
      0.00515 [     8]: 10221
ROOT  39:  E=   -2879.4781219662 Eh  3.239 eV  26124.5 cm**-1
      0.37314 [    24]: 20211
      0.19208 [    17]: 12102
      0.18931 [    19]: 12120
      0.07146 [     6]: 10122
      0.06250 [    13]: 11211
      0.03537 [     5]: 02211
      0.02693 [    32]: 22011
      0.02471 [    29]: 21120
      0.02374 [    27]: 21102
ROOT  40:  E=   -2879.4778735488 Eh  3.246 eV  26179.0 cm**-1
      0.62662 [     3]: 02112
      0.15906 [    22]: 20112
      0.09920 [    34]: 22110
      0.07623 [    10]: 11112
      0.01624 [     2]: 01221
      0.00920 [     8]: 10221
      0.00599 [    16]: 12021
      0.00254 [    30]: 21201
ROOT  41:  E=   -2879.4773198394 Eh  3.261 eV  26300.5 cm**-1
      0.60933 [     4]: 02121
      0.16790 [    23]: 20121
      0.09793 [    33]: 22101
      0.08450 [    11]: 11121
      0.01453 [     1]: 01212
      0.01126 [     7]: 10212
      0.00796 [    15]: 12012
      0.00271 [    31]: 21210
ROOT  42:  E=   -2879.4695535320 Eh  3.472 eV  28005.0 cm**-1
      0.25765 [    24]: 20211
      0.21551 [     5]: 02211
      0.17648 [    19]: 12120
      0.17393 [    17]: 12102
      0.12453 [    32]: 22011
      0.02859 [    13]: 11211
      0.01020 [    29]: 21120
      0.00891 [    27]: 21102
      0.00409 [     6]: 10122
ROOT  43:  E=   -2879.4662378250 Eh  3.562 eV  28732.7 cm**-1
      0.53069 [    15]: 12012
      0.22384 [    21]: 12210
      0.14445 [     7]: 10212
      0.06111 [    11]: 11121
      0.01436 [     4]: 02121
      0.00952 [    25]: 21012
      0.00785 [    33]: 22101
      0.00530 [     1]: 01212
      0.00270 [    31]: 21210
ROOT  44:  E=   -2879.4658118894 Eh  3.574 eV  28826.2 cm**-1
      0.52600 [    16]: 12021
      0.22566 [    20]: 12201
      0.14926 [     8]: 10221
      0.06084 [    10]: 11112
      0.01152 [    26]: 21021
      0.01071 [     3]: 02112
      0.00636 [    34]: 22110
      0.00474 [     2]: 01221
      0.00466 [    30]: 21201

                 <<<<<<<<<<<<<<<<<<INITIAL CI STATE CHECK>>>>>>>>>>>>>>>>>>

   E(CAS)= -2879.594609446 Eh DE=    0.000000e+00
   --- Energy gap subspaces: Ext-Act = 0.135   Act-Int = 0.121
   N(occ)=  1.20000 1.20000 1.20000 1.20000 1.20000
   ||g|| =     2.498100e+00 Max(G)=   -5.326696e-01 Rot=452,1
   --- Orbital Update [SuperCI(PT)]
   --- Canonicalize Internal Space
   --- Canonicalize External Space
   --- SX_PT (Skipped TA=0 IT=0): ||X|| =      0.599089662 Max(X)(128,121) =     -0.189475038 
   --- SFit(Active Orbitals)

MACRO-ITERATION   2: 
   --- Inactive Energy E0 = -2865.60275027 Eh
CI-ITERATION   0: 
 -2880.026826283   0.000000000000 (    0.38)
 -2880.022650881   0.000000000000
 -2880.010828825   0.000000000000
 -2880.010195354   0.000000000000
 -2879.996869836   0.000000000000
   CI-PROBLEM SOLVED
   DENSITIES MADE
CI-ITERATION   0: 
 -2879.974435999   0.000000000000 (    0.00)
 -2879.962799350   0.000000000000
 -2879.962771021   0.000000000000
 -2879.959884325   0.000000000000
 -2879.959546349   0.000000000000
 -2879.952329646   0.000000000000
 -2879.951037726   0.000000000000
 -2879.947279171   0.000000000000
 -2879.946479789   0.000000000000
 -2879.942211374   0.000000000000
 -2879.938410099   0.000000000000
 -2879.938394741   0.000000000000
 -2879.935946113   0.000000000000
 -2879.935417653   0.000000000000
 -2879.934756099   0.000000000000
 -2879.927282165   0.000000000000
 -2879.926464051   0.000000000000
 -2879.925222216   0.000000000000
 -2879.920250958   0.000000000000
 -2879.919962914   0.000000000000
 -2879.918296992   0.000000000000
 -2879.917598058   0.000000000000
 -2879.913487076   0.000000000000
 -2879.908897013   0.000000000000
 -2879.904927543   0.000000000000
 -2879.901334046   0.000000000000
 -2879.900157349   0.000000000000
 -2879.899572235   0.000000000000
 -2879.899290435   0.000000000000
 -2879.896154688   0.000000000000
 -2879.895702456   0.000000000000
 -2879.890328666   0.000000000000
 -2879.885916126   0.000000000000
 -2879.885411690   0.000000000000
 -2879.881176864   0.000000000000
 -2879.819486901   0.000000000000
 -2879.819214639   0.000000000000
 -2879.816081598   0.000000000000
 -2879.812947781   0.000000000000
 -2879.806205917   0.000000000000
 -2879.796881582   0.000000000000
 -2879.796403321   0.000000000000
 -2879.796101557   0.000000000000
 -2879.795458040   0.000000000000
 -2879.778293795   0.000000000000
   CI-PROBLEM SOLVED
   DENSITIES MADE
   E(CAS)= -2879.955583875 Eh DE=   -3.609744e-01
   --- Energy gap subspaces: Ext-Act = 0.365   Act-Int = -0.199
   N(occ)=  1.20000 1.20000 1.20000 1.20000 1.20000
   ||g|| =     1.431766e+00 Max(G)=   -3.444849e-01 Rot=129,124
   --- Orbital Update [SuperCI(PT)]
   --- Canonicalize Internal Space
   --- Canonicalize External Space
   --- SX_PT (Skipped TA=0 IT=0): ||X|| =      0.423060408 Max(X)(129,124) =     -0.230026426 
   --- SFit(Active Orbitals)

MACRO-ITERATION   3: 
   --- Inactive Energy E0 = -2867.13110991 Eh
CI-ITERATION   0: 
 -2880.103616295   0.000000000000 (    0.00)
 -2880.102954204   0.000000000000
 -2880.091487777   0.000000000000
 -2880.090795862   0.000000000000
 -2880.072851123   0.000000000000
   CI-PROBLEM SOLVED
   DENSITIES MADE
CI-ITERATION   0: 
 -2880.020413293   0.000000000000 (    0.12)
 -2880.020369488   0.000000000000
 -2880.019798204   0.000000000000
 -2880.019479542   0.000000000000
 -2880.019371382   0.000000000000
 -2880.014496298   0.000000000000
 -2880.013832027   0.000000000000
 -2880.012999956   0.000000000000
 -2880.012985456   0.000000000000
 -2880.009581064   0.000000000000
 -2880.009329547   0.000000000000
 -2880.008771262   0.000000000000
 -2880.008694733   0.000000000000
 -2880.008359688   0.000000000000
 -2879.997796811   0.000000000000
 -2879.997608208   0.000000000000
 -2879.997493747   0.000000000000
 -2879.997452625   0.000000000000
 -2879.996638683   0.000000000000
 -2879.996546382   0.000000000000
 -2879.993987829   0.000000000000
 -2879.992943459   0.000000000000
 -2879.989278247   0.000000000000
 -2879.988381377   0.000000000000
 -2879.985572936   0.000000000000
 -2879.985562060   0.000000000000
 -2879.981587496   0.000000000000
 -2879.981091098   0.000000000000
 -2879.977598253   0.000000000000
 -2879.977596920   0.000000000000
 -2879.961967077   0.000000000000
 -2879.961686497   0.000000000000
 -2879.958720457   0.000000000000
 -2879.957937064   0.000000000000
 -2879.955191463   0.000000000000
 -2879.885122205   0.000000000000
 -2879.885095464   0.000000000000
 -2879.874435389   0.000000000000
 -2879.874190903   0.000000000000
 -2879.871417544   0.000000000000
 -2879.868785116   0.000000000000
 -2879.868714900   0.000000000000
 -2879.867614688   0.000000000000
 -2879.867610001   0.000000000000
 -2879.864446846   0.000000000000
   CI-PROBLEM SOLVED
   DENSITIES MADE
   E(CAS)= -2880.030154456 Eh DE=   -7.457058e-02
   --- Energy gap subspaces: Ext-Act = 0.088   Act-Int = 0.155
   N(occ)=  1.20000 1.20000 1.20000 1.20000 1.20000
   ||g|| =     9.291210e-01 Max(G)=   -2.149729e-01 Rot=452,17
   --- Orbital Update [SuperCI(PT)]
   --- Canonicalize Internal Space
   --- Canonicalize External Space
   --- SX_PT (Skipped TA=0 IT=0): ||X|| =      0.348423751 Max(X)(128,121) =     -0.172613032 
   --- SFit(Active Orbitals)

MACRO-ITERATION   4: 
   --- Inactive Energy E0 = -2865.30276435 Eh
CI-ITERATION   0: 
 -2880.162843017   0.000000000000 (    0.00)
 -2880.157515930   0.000000000000
 -2880.154332917   0.000000000000
 -2880.154275002   0.000000000000
 -2880.154258256   0.000000000000
   CI-PROBLEM SOLVED
   DENSITIES MADE
CI-ITERATION   0: 
 -2880.076431007   0.000000000000 (    0.16)
 -2880.076381283   0.000000000000
 -2880.075982090   0.000000000000
 -2880.073302173   0.000000000000
 -2880.072389064   0.000000000000
 -2880.069943005   0.000000000000
 -2880.069274763   0.000000000000
 -2880.069236468   0.000000000000
 -2880.068864803   0.000000000000
 -2880.067970028   0.000000000000
 -2880.067967768   0.000000000000
 -2880.060884519   0.000000000000
 -2880.059476647   0.000000000000
 -2880.059247200   0.000000000000
 -2880.059223436   0.000000000000
 -2880.057341093   0.000000000000
 -2880.055791729   0.000000000000
 -2880.055722804   0.000000000000
 -2880.051938929   0.000000000000
 -2880.047240628   0.000000000000
 -2880.046335679   0.000000000000
 -2880.046306682   0.000000000000
 -2880.046059554   0.000000000000
 -2880.045843541   0.000000000000
 -2880.045189842   0.000000000000
 -2880.045124478   0.000000000000
 -2880.044821645   0.000000000000
 -2880.037624729   0.000000000000
 -2880.037322870   0.000000000000
 -2880.037315783   0.000000000000
 -2880.017316336   0.000000000000
 -2880.015763853   0.000000000000
 -2880.010703038   0.000000000000
 -2880.009639548   0.000000000000
 -2880.009600413   0.000000000000
 -2879.923013411   0.000000000000
 -2879.922823948   0.000000000000
 -2879.922044353   0.000000000000
 -2879.921666012   0.000000000000
 -2879.920314477   0.000000000000
 -2879.914311905   0.000000000000
 -2879.914235082   0.000000000000
 -2879.909202836   0.000000000000
 -2879.907926101   0.000000000000
 -2879.907904557   0.000000000000
   CI-PROBLEM SOLVED
   DENSITIES MADE
   E(CAS)= -2880.088911624 Eh DE=   -5.875717e-02
   --- Energy gap subspaces: Ext-Act = 0.211   Act-Int = 0.012
   N(occ)=  1.20000 1.20000 1.20000 1.20000 1.20000
   ||g|| =     3.917843e-01 Max(G)=    4.745411e-02 Rot=128,121
   --- Orbital Update [SuperCI(PT)]
   --- Canonicalize Internal Space
   --- Canonicalize External Space
   --- SX_PT (Skipped TA=0 IT=0): ||X|| =      0.137840559 Max(X)(128,121) =     -0.066595472 
   --- SFit(Active Orbitals)

MACRO-ITERATION   5: 
   --- Inactive Energy E0 = -2865.06133118 Eh
CI-ITERATION   0: 
 -2880.175440714   0.000000000000 (    0.00)
 -2880.172895775   0.000000000000
 -2880.167162770   0.000000000000
 -2880.166573542   0.000000000000
 -2880.166559821   0.000000000000
   CI-PROBLEM SOLVED
   DENSITIES MADE
CI-ITERATION   0: 
 -2880.086730025   0.000000000000 (    0.05)
 -2880.086674326   0.000000000000
 -2880.085757770   0.000000000000
 -2880.082538026   0.000000000000
 -2880.081999728   0.000000000000
 -2880.078738836   0.000000000000
 -2880.078720697   0.000000000000
 -2880.078674589   0.000000000000
 -2880.078196744   0.000000000000
 -2880.076962780   0.000000000000
 -2880.076952558   0.000000000000
 -2880.069397832   0.000000000000
 -2880.068652131   0.000000000000
 -2880.068323046   0.000000000000
 -2880.068301492   0.000000000000
 -2880.065508254   0.000000000000
 -2880.064254109   0.000000000000
 -2880.064199136   0.000000000000
 -2880.060359860   0.000000000000
 -2880.055455963   0.000000000000
 -2880.055005784   0.000000000000
 -2880.054983837   0.000000000000
 -2880.054792033   0.000000000000
 -2880.054250893   0.000000000000
 -2880.054177311   0.000000000000
 -2880.053777238   0.000000000000
 -2880.053724051   0.000000000000
 -2880.046010407   0.000000000000
 -2880.045933900   0.000000000000
 -2880.045930886   0.000000000000
 -2880.023830696   0.000000000000
 -2880.022573431   0.000000000000
 -2880.017416264   0.000000000000
 -2880.016761635   0.000000000000
 -2880.016733011   0.000000000000
 -2879.924584289   0.000000000000
 -2879.924531088   0.000000000000
 -2879.924475958   0.000000000000
 -2879.922814297   0.000000000000
 -2879.921267195   0.000000000000
 -2879.918453460   0.000000000000
 -2879.918410381   0.000000000000
 -2879.912878936   0.000000000000
 -2879.911590603   0.000000000000
 -2879.911550004   0.000000000000
   CI-PROBLEM SOLVED
   DENSITIES MADE
   E(CAS)= -2880.099117212 Eh DE=   -1.020559e-02
   --- Energy gap subspaces: Ext-Act = 0.189   Act-Int = 0.029
   N(occ)=  1.20000 1.20000 1.20000 1.20000 1.20000
   ||g|| =     2.915964e-01 Max(G)=    3.902926e-02 Rot=128,121
   --- Orbital Update [SuperCI(PT)]
   --- Canonicalize Internal Space
   --- Canonicalize External Space
   --- SX_PT (Skipped TA=0 IT=0): ||X|| =      0.106634365 Max(X)(128,121) =      0.051875038 
   --- SFit(Active Orbitals)

MACRO-ITERATION   6: 
   --- Inactive Energy E0 = -2864.55455254 Eh
CI-ITERATION   0: 
 -2880.183268844   0.000000000000 (    0.00)
 -2880.182426053   0.000000000000
 -2880.174067306   0.000000000000
 -2880.172604951   0.000000000000
 -2880.172536438   0.000000000000
   CI-PROBLEM SOLVED
   DENSITIES MADE
CI-ITERATION   0: 
 -2880.093439346   0.000000000000 (    0.00)
 -2880.093363502   0.000000000000
 -2880.091937734   0.000000000000
 -2880.087624803   0.000000000000
 -2880.087561399   0.000000000000
 -2880.083997165   0.000000000000
 -2880.083899055   0.000000000000
 -2880.083220196   0.000000000000
 -2880.083045712   0.000000000000
 -2880.081110110   0.000000000000
 -2880.081075218   0.000000000000
 -2880.073882521   0.000000000000
 -2880.073427813   0.000000000000
 -2880.072495608   0.000000000000
 -2880.072441385   0.000000000000
 -2880.069404251   0.000000000000
 -2880.067872905   0.000000000000
 -2880.067806418   0.000000000000
 -2880.064942658   0.000000000000
 -2880.059634440   0.000000000000
 -2880.059173389   0.000000000000
 -2880.058447106   0.000000000000
 -2880.058422519   0.000000000000
 -2880.058077293   0.000000000000
 -2880.057291399   0.000000000000
 -2880.057237670   0.000000000000
 -2880.056902244   0.000000000000
 -2880.049459131   0.000000000000
 -2880.049246486   0.000000000000
 -2880.049241129   0.000000000000
 -2880.026780154   0.000000000000
 -2880.025340990   0.000000000000
 -2880.020153019   0.000000000000
 -2880.019569482   0.000000000000
 -2880.019539429   0.000000000000
 -2879.924673408   0.000000000000
 -2879.924301178   0.000000000000
 -2879.924225544   0.000000000000
 -2879.921105890   0.000000000000
 -2879.919900887   0.000000000000
 -2879.918849119   0.000000000000
 -2879.918839892   0.000000000000
 -2879.913360106   0.000000000000
 -2879.911995669   0.000000000000
 -2879.911936663   0.000000000000
   CI-PROBLEM SOLVED
   DENSITIES MADE
   E(CAS)= -2880.104337604 Eh DE=   -5.220392e-03
   --- Energy gap subspaces: Ext-Act = 0.212   Act-Int = 0.004
   N(occ)=  1.20000 1.20000 1.20000 1.20000 1.20000
   ||g|| =     1.639272e-01 Max(G)=   -4.576735e-02 Rot=452,17
   --- Orbital Update [SuperCI(PT)]
   --- Canonicalize Internal Space
   --- Canonicalize External Space
   --- SX_PT (Skipped TA=0 IT=0): ||X|| =      0.049894148 Max(X)(128,122) =      0.021151939 
   --- SFit(Active Orbitals)

MACRO-ITERATION   7: 
   --- Inactive Energy E0 = -2864.46924219 Eh
CI-ITERATION   0: 
 -2880.184884662   0.000000000000 (    0.00)
 -2880.184128951   0.000000000000
 -2880.175352082   0.000000000000
 -2880.173696340   0.000000000000
 -2880.173616176   0.000000000000
   CI-PROBLEM SOLVED
   DENSITIES MADE
CI-ITERATION   0: 
 -2880.094927655   0.000000000000 (    0.05)
 -2880.094851442   0.000000000000
 -2880.093392421   0.000000000000
 -2880.088981436   0.000000000000
 -2880.088968224   0.000000000000
 -2880.085234873   0.000000000000
 -2880.085137517   0.000000000000
 -2880.084332437   0.000000000000
 -2880.084192806   0.000000000000
 -2880.082258688   0.000000000000
 -2880.082219327   0.000000000000
 -2880.075038802   0.000000000000
 -2880.074835929   0.000000000000
 -2880.073788331   0.000000000000
 -2880.073729893   0.000000000000
 -2880.070587358   0.000000000000
 -2880.069040486   0.000000000000
 -2880.068973243   0.000000000000
 -2880.066143566   0.000000000000
 -2880.060883618   0.000000000000
 -2880.060552048   0.000000000000
 -2880.059913368   0.000000000000
 -2880.059886554   0.000000000000
 -2880.059327357   0.000000000000
 -2880.058550306   0.000000000000
 -2880.058496817   0.000000000000
 -2880.058192325   0.000000000000
 -2880.050940610   0.000000000000
 -2880.050655438   0.000000000000
 -2880.050647424   0.000000000000
 -2880.027826301   0.000000000000
 -2880.026389073   0.000000000000
 -2880.021408493   0.000000000000
 -2880.020852391   0.000000000000
 -2880.020823203   0.000000000000
 -2879.925565811   0.000000000000
 -2879.925311567   0.000000000000
 -2879.925245591   0.000000000000
 -2879.921523109   0.000000000000
 -2879.920850680   0.000000000000
 -2879.919985539   0.000000000000
 -2879.919974876   0.000000000000
 -2879.914993512   0.000000000000
 -2879.913568866   0.000000000000
 -2879.913506429   0.000000000000
   CI-PROBLEM SOLVED
   DENSITIES MADE
   E(CAS)= -2880.105640107 Eh DE=   -1.302503e-03
   --- Energy gap subspaces: Ext-Act = 0.225   Act-Int = -0.009
   N(occ)=  1.20000 1.20000 1.20000 1.20000 1.20000
   ||g|| =     6.259158e-02 Max(G)=    9.822235e-03 Rot=128,121
   --- Orbital Update [SuperCI(PT)]
   --- Canonicalize Internal Space
   --- Canonicalize External Space
   --- SX_PT (Skipped TA=0 IT=0): ||X|| =      0.025347630 Max(X)(128,123) =     -0.012989925 
   --- SFit(Active Orbitals)

MACRO-ITERATION   8: 
   --- Inactive Energy E0 = -2864.36895955 Eh
CI-ITERATION   0: 
 -2880.185675290   0.000000000000 (    0.00)
 -2880.185187946   0.000000000000
 -2880.175995304   0.000000000000
 -2880.174284842   0.000000000000
 -2880.174201373   0.000000000000
   CI-PROBLEM SOLVED
   DENSITIES MADE
CI-ITERATION   0: 
 -2880.095238870   0.000000000000 (    0.00)
 -2880.095166823   0.000000000000
 -2880.093751560   0.000000000000
 -2880.089319116   0.000000000000
 -2880.089205671   0.000000000000
 -2880.085378881   0.000000000000
 -2880.085284754   0.000000000000
 -2880.084480951   0.000000000000
 -2880.084265707   0.000000000000
 -2880.082422078   0.000000000000
 -2880.082381605   0.000000000000
 -2880.075114383   0.000000000000
 -2880.075087677   0.000000000000
 -2880.073990206   0.000000000000
 -2880.073931208   0.000000000000
 -2880.070644213   0.000000000000
 -2880.069149692   0.000000000000
 -2880.069085454   0.000000000000
 -2880.066203375   0.000000000000
 -2880.060955649   0.000000000000
 -2880.060705566   0.000000000000
 -2880.060159517   0.000000000000
 -2880.060130960   0.000000000000
 -2880.059426442   0.000000000000
 -2880.058661771   0.000000000000
 -2880.058609565   0.000000000000
 -2880.058349428   0.000000000000
 -2880.051150950   0.000000000000
 -2880.050833277   0.000000000000
 -2880.050823807   0.000000000000
 -2880.027596701   0.000000000000
 -2880.026218324   0.000000000000
 -2880.021318502   0.000000000000
 -2880.020793761   0.000000000000
 -2880.020766141   0.000000000000
 -2879.924807399   0.000000000000
 -2879.924521686   0.000000000000
 -2879.924465132   0.000000000000
 -2879.920441666   0.000000000000
 -2879.920022784   0.000000000000
 -2879.919434390   0.000000000000
 -2879.919421249   0.000000000000
 -2879.914531313   0.000000000000
 -2879.913227509   0.000000000000
 -2879.913169760   0.000000000000
   CI-PROBLEM SOLVED
   DENSITIES MADE
   E(CAS)= -2880.105986092 Eh DE=   -3.459849e-04
   --- Energy gap subspaces: Ext-Act = 0.232   Act-Int = -0.016
   N(occ)=  1.20000 1.20000 1.20000 1.20000 1.20000
   ||g|| =     2.008072e-02 Max(G)=   -3.775955e-03 Rot=452,17
   --- Orbital Update [SuperCI(PT)]
   --- Canonicalize Internal Space
   --- Canonicalize External Space
   --- SX_PT (Skipped TA=0 IT=0): ||X|| =      0.009725470 Max(X)(128,123) =     -0.005056857 
   --- SFit(Active Orbitals)

MACRO-ITERATION   9: 
   --- Inactive Energy E0 = -2864.32336250 Eh
CI-ITERATION   0: 
 -2880.185949244   0.000000000000 (    0.00)
 -2880.185443946   0.000000000000
 -2880.176119335   0.000000000000
 -2880.174371920   0.000000000000
 -2880.174286882   0.000000000000
   CI-PROBLEM SOLVED
   DENSITIES MADE
CI-ITERATION   0: 
 -2880.095268737   0.000000000000 (    0.00)
 -2880.095198286   0.000000000000
 -2880.093799856   0.000000000000
 -2880.089366389   0.000000000000
 -2880.089240264   0.000000000000
 -2880.085324333   0.000000000000
 -2880.085232816   0.000000000000
 -2880.084436531   0.000000000000
 -2880.084178812   0.000000000000
 -2880.082400212   0.000000000000
 -2880.082359491   0.000000000000
 -2880.075126865   0.000000000000
 -2880.075047581   0.000000000000
 -2880.074013843   0.000000000000
 -2880.073955074   0.000000000000
 -2880.070596279   0.000000000000
 -2880.069119683   0.000000000000
 -2880.069056447   0.000000000000
 -2880.066134981   0.000000000000
 -2880.060908133   0.000000000000
 -2880.060706101   0.000000000000
 -2880.060234699   0.000000000000
 -2880.060205568   0.000000000000
 -2880.059405932   0.000000000000
 -2880.058652192   0.000000000000
 -2880.058600812   0.000000000000
 -2880.058387144   0.000000000000
 -2880.051218800   0.000000000000
 -2880.050883339   0.000000000000
 -2880.050873263   0.000000000000
 -2880.027428049   0.000000000000
 -2880.026069033   0.000000000000
 -2880.021245730   0.000000000000
 -2880.020735661   0.000000000000
 -2880.020708865   0.000000000000
 -2879.924457913   0.000000000000
 -2879.924224109   0.000000000000
 -2879.924171234   0.000000000000
 -2879.919921148   0.000000000000
 -2879.919728418   0.000000000000
 -2879.919176224   0.000000000000
 -2879.919162231   0.000000000000
 -2879.914470499   0.000000000000
 -2879.913151925   0.000000000000
 -2879.913094209   0.000000000000
   CI-PROBLEM SOLVED
   DENSITIES MADE
   E(CAS)= -2880.106035774 Eh DE=   -4.968198e-05
   --- Energy gap subspaces: Ext-Act = 0.236   Act-Int = -0.020
   N(occ)=  1.20000 1.20000 1.20000 1.20000 1.20000
   ||g|| =     6.311232e-03 Max(G)=   -9.579539e-04 Rot=452,17
   --- Orbital Update [SuperCI(PT)]
   --- Canonicalize Internal Space
   --- Canonicalize External Space
   --- SX_PT (Skipped TA=0 IT=0): ||X|| =      0.001492520 Max(X)(129,124) =      0.000500247 
   --- SFit(Active Orbitals)

MACRO-ITERATION  10: 
   --- Inactive Energy E0 = -2864.32307132 Eh
CI-ITERATION   0: 
 -2880.185949605   0.000000000000 (    0.38)
 -2880.185428442   0.000000000000
 -2880.176075592   0.000000000000
 -2880.174345396   0.000000000000
 -2880.174261424   0.000000000000
   CI-PROBLEM SOLVED
   DENSITIES MADE
CI-ITERATION   0: 
 -2880.095296300   0.000000000000 (    0.05)
 -2880.095225943   0.000000000000
 -2880.093828831   0.000000000000
 -2880.089384613   0.000000000000
 -2880.089259156   0.000000000000
 -2880.085329723   0.000000000000
 -2880.085238651   0.000000000000
 -2880.084443561   0.000000000000
 -2880.084190704   0.000000000000
 -2880.082418535   0.000000000000
 -2880.082377997   0.000000000000
 -2880.075135576   0.000000000000
 -2880.075064542   0.000000000000
 -2880.074025805   0.000000000000
 -2880.073967394   0.000000000000
 -2880.070601806   0.000000000000
 -2880.069132407   0.000000000000
 -2880.069069426   0.000000000000
 -2880.066159180   0.000000000000
 -2880.060926560   0.000000000000
 -2880.060722606   0.000000000000
 -2880.060240904   0.000000000000
 -2880.060212579   0.000000000000
 -2880.059426580   0.000000000000
 -2880.058663315   0.000000000000
 -2880.058612920   0.000000000000
 -2880.058383700   0.000000000000
 -2880.051233601   0.000000000000
 -2880.050893498   0.000000000000
 -2880.050883262   0.000000000000
 -2880.027453725   0.000000000000
 -2880.026098690   0.000000000000
 -2880.021276995   0.000000000000
 -2880.020761922   0.000000000000
 -2880.020734970   0.000000000000
 -2879.924519355   0.000000000000
 -2879.924290324   0.000000000000
 -2879.924237431   0.000000000000
 -2879.919965432   0.000000000000
 -2879.919805691   0.000000000000
 -2879.919224798   0.000000000000
 -2879.919211887   0.000000000000
 -2879.914521497   0.000000000000
 -2879.913227685   0.000000000000
 -2879.913171679   0.000000000000
   CI-PROBLEM SOLVED
   DENSITIES MADE
   E(CAS)= -2880.106037732 Eh DE=   -1.958138e-06
   --- Energy gap subspaces: Ext-Act = 0.237   Act-Int = -0.021
   N(occ)=  1.20000 1.20000 1.20000 1.20000 1.20000
   ||g|| =     1.823824e-03 Max(G)=    2.058735e-04 Rot=129,124
   --- Orbital Update [SuperCI(PT)]
   --- Canonicalize Internal Space
   --- Canonicalize External Space
   --- SX_PT (Skipped TA=0 IT=0): ||X|| =      0.000439982 Max(X)(129,124) =      0.000139185 
   --- SFit(Active Orbitals)

MACRO-ITERATION  11: 
   --- Inactive Energy E0 = -2864.32373190 Eh
CI-ITERATION   0: 
 -2880.185957803   0.000000000000 (    0.39)
 -2880.185413345   0.000000000000
 -2880.176065764   0.000000000000
 -2880.174329675   0.000000000000
 -2880.174245401   0.000000000000
   CI-PROBLEM SOLVED
   DENSITIES MADE
CI-ITERATION   0: 
 -2880.095311027   0.000000000000 (    1.57)
 -2880.095240294   0.000000000000
 -2880.093837426   0.000000000000
 -2880.089389514   0.000000000000
 -2880.089269678   0.000000000000
 -2880.085337570   0.000000000000
 -2880.085246317   0.000000000000
 -2880.084446383   0.000000000000
 -2880.084197409   0.000000000000
 -2880.082420500   0.000000000000
 -2880.082379829   0.000000000000
 -2880.075140290   0.000000000000
 -2880.075072240   0.000000000000
 -2880.074028556   0.000000000000
 -2880.073969987   0.000000000000
 -2880.070608983   0.000000000000
 -2880.069134042   0.000000000000
 -2880.069070759   0.000000000000
 -2880.066169529   0.000000000000
 -2880.060935082   0.000000000000
 -2880.060729590   0.000000000000
 -2880.060241896   0.000000000000
 -2880.060213850   0.000000000000
 -2880.059433399   0.000000000000
 -2880.058665202   0.000000000000
 -2880.058614958   0.000000000000
 -2880.058380692   0.000000000000
 -2880.051237332   0.000000000000
 -2880.050896039   0.000000000000
 -2880.050885794   0.000000000000
 -2880.027467590   0.000000000000
 -2880.026107229   0.000000000000
 -2880.021288052   0.000000000000
 -2880.020771659   0.000000000000
 -2880.020744628   0.000000000000
 -2879.924543332   0.000000000000
 -2879.924323818   0.000000000000
 -2879.924270612   0.000000000000
 -2879.919983891   0.000000000000
 -2879.919835902   0.000000000000
 -2879.919239041   0.000000000000
 -2879.919226127   0.000000000000
 -2879.914557542   0.000000000000
 -2879.913248548   0.000000000000
 -2879.913191925   0.000000000000
   CI-PROBLEM SOLVED
   DENSITIES MADE
   E(CAS)= -2880.106037911 Eh DE=   -1.785966e-07
   --- Energy gap subspaces: Ext-Act = 0.237   Act-Int = -0.021
   N(occ)=  1.20000 1.20000 1.20000 1.20000 1.20000
   ||g|| =     4.294634e-04 Max(G)=    7.119445e-05 Rot=452,17
                     ---- THE CAS-SCF GRADIENT HAS CONVERGED ----
                            --- FINALIZING ORBITALS ---
                    ---- DOING ONE FINAL ITERATION FOR PRINTING ----
   --- Forming Natural Orbitals
   --- Canonicalize Internal Space
   --- Canonicalize External Space

MACRO-ITERATION  12: 
   --- Inactive Energy E0 = -2864.32373190 Eh
   --- All densities will be recomputed
CI-ITERATION   0: 
 -2880.185957800   0.000000000000 (    0.00)
 -2880.185413343   0.000000000000
 -2880.176065761   0.000000000000
 -2880.174329672   0.000000000000
 -2880.174245399   0.000000000000
   CI-PROBLEM SOLVED
   DENSITIES MADE
CI-ITERATION   0: 
 -2880.095311023   0.000000000000 (    0.05)
 -2880.095240291   0.000000000000
 -2880.093837424   0.000000000000
 -2880.089389512   0.000000000000
 -2880.089269676   0.000000000000
 -2880.085337566   0.000000000000
 -2880.085246314   0.000000000000
 -2880.084446380   0.000000000000
 -2880.084197407   0.000000000000
 -2880.082420497   0.000000000000
 -2880.082379826   0.000000000000
 -2880.075140287   0.000000000000
 -2880.075072237   0.000000000000
 -2880.074028552   0.000000000000
 -2880.073969985   0.000000000000
 -2880.070608980   0.000000000000
 -2880.069134039   0.000000000000
 -2880.069070757   0.000000000000
 -2880.066169527   0.000000000000
 -2880.060935079   0.000000000000
 -2880.060729587   0.000000000000
 -2880.060241892   0.000000000000
 -2880.060213847   0.000000000000
 -2880.059433396   0.000000000000
 -2880.058665198   0.000000000000
 -2880.058614955   0.000000000000
 -2880.058380688   0.000000000000
 -2880.051237329   0.000000000000
 -2880.050896036   0.000000000000
 -2880.050885791   0.000000000000
 -2880.027467587   0.000000000000
 -2880.026107227   0.000000000000
 -2880.021288049   0.000000000000
 -2880.020771656   0.000000000000
 -2880.020744625   0.000000000000
 -2879.924543329   0.000000000000
 -2879.924323815   0.000000000000
 -2879.924270609   0.000000000000
 -2879.919983888   0.000000000000
 -2879.919835899   0.000000000000
 -2879.919239038   0.000000000000
 -2879.919226124   0.000000000000
 -2879.914557538   0.000000000000
 -2879.913248545   0.000000000000
 -2879.913191923   0.000000000000
   CI-PROBLEM SOLVED
   DENSITIES MADE
   E(CAS)= -2880.106037908 Eh DE=    2.879915e-09
   --- Energy gap subspaces: Ext-Act = 0.225   Act-Int = -0.040
   N(occ)=  1.20000 1.20000 1.20000 1.20000 1.20000
   ||g|| =     4.294631e-04 Max(G)=    7.430653e-05 Rot=125,123
--------------
CASSCF RESULTS
--------------

Final CASSCF energy       : -2880.106037908 Eh  -78371.6696 eV

----------------
ORBITAL ENERGIES
----------------

  NO   OCC          E(Eh)            E(eV) 
   0   2.0000    -261.400157     -7113.0599 
   1   2.0000     -31.960519      -869.6899 
   2   2.0000     -27.440727      -746.7001 
   3   2.0000     -27.440724      -746.7000 
   4   2.0000     -27.440668      -746.6985 
   5   2.0000      -4.714065      -128.2762 
   6   2.0000      -4.713897      -128.2717 
   7   2.0000      -4.713874      -128.2710 
   8   2.0000      -4.713826      -128.2697 
   9   2.0000      -4.713679      -128.2657 
  10   2.0000      -4.713675      -128.2656 
  11   2.0000      -4.713645      -128.2648 
  12   2.0000      -4.713495      -128.2607 
  13   2.0000      -4.713482      -128.2604 
  14   2.0000      -4.713460      -128.2598 
  15   2.0000      -4.713437      -128.2592 
  16   2.0000      -4.713425      -128.2588 
  17   2.0000      -4.194182      -114.1295 
  18   2.0000      -2.773599       -75.4735 
  19   2.0000      -2.773506       -75.4709 
  20   2.0000      -2.773486       -75.4704 
  21   2.0000      -2.754791       -74.9617 
  22   2.0000      -2.754350       -74.9497 
  23   2.0000      -2.754132       -74.9437 
  24   2.0000      -2.753986       -74.9398 
  25   2.0000      -2.753978       -74.9396 
  26   2.0000      -2.753515       -74.9269 
  27   2.0000      -2.753501       -74.9266 
  28   2.0000      -2.753217       -74.9189 
  29   2.0000      -2.752054       -74.8872 
  30   2.0000      -2.751762       -74.8792 
  31   2.0000      -2.751742       -74.8787 
  32   2.0000      -2.751539       -74.8732 
  33   2.0000      -2.751226       -74.8647 
  34   2.0000      -2.750245       -74.8380 
  35   2.0000      -2.750175       -74.8361 
  36   2.0000      -2.750006       -74.8315 
  37   2.0000      -2.749988       -74.8310 
  38   2.0000      -2.749362       -74.8139 
  39   2.0000      -2.749352       -74.8137 
  40   2.0000      -2.749201       -74.8096 
  41   2.0000      -2.749188       -74.8092 
  42   2.0000      -2.748432       -74.7886 
  43   2.0000      -2.747626       -74.7667 
  44   2.0000      -2.746916       -74.7474 
  45   2.0000      -2.746023       -74.7231 
  46   2.0000      -2.745788       -74.7167 
  47   2.0000      -2.745619       -74.7121 
  48   2.0000      -2.745598       -74.7115 
  49   2.0000      -2.745400       -74.7061 
  50   2.0000      -2.745340       -74.7045 
  51   2.0000      -2.745326       -74.7041 
  52   2.0000      -2.745269       -74.7026 
  53   2.0000      -2.744417       -74.6794 
  54   2.0000      -2.743931       -74.6662 
  55   2.0000      -2.743845       -74.6638 
  56   2.0000      -2.743833       -74.6635 
  57   2.0000      -0.589210       -16.0332 
  58   2.0000      -0.557720       -15.1763 
  59   2.0000      -0.549195       -14.9444 
  60   2.0000      -0.548570       -14.9274 
  61   2.0000      -0.548551       -14.9268 
  62   2.0000      -0.545761       -14.8509 
  63   2.0000      -0.539689       -14.6857 
  64   2.0000      -0.539481       -14.6800 
  65   2.0000      -0.536918       -14.6103 
  66   2.0000      -0.536866       -14.6089 
  67   2.0000      -0.536864       -14.6088 
  68   2.0000      -0.535755       -14.5786 
  69   2.0000      -0.533848       -14.5267 
  70   2.0000      -0.533173       -14.5084 
  71   2.0000      -0.527151       -14.3445 
  72   2.0000      -0.527023       -14.3410 
  73   2.0000      -0.523715       -14.2510 
  74   2.0000      -0.522177       -14.2091 
  75   2.0000      -0.517935       -14.0937 
  76   2.0000      -0.508029       -13.8242 
  77   2.0000      -0.507830       -13.8187 
  78   2.0000      -0.504927       -13.7398 
  79   2.0000      -0.503788       -13.7088 
  80   2.0000      -0.503618       -13.7041 
  81   2.0000      -0.503222       -13.6934 
  82   2.0000      -0.501606       -13.6494 
  83   2.0000      -0.496637       -13.5142 
  84   2.0000      -0.496222       -13.5029 
  85   2.0000      -0.494690       -13.4612 
  86   2.0000      -0.481692       -13.1075 
  87   2.0000      -0.481547       -13.1036 
  88   2.0000      -0.477127       -12.9833 
  89   2.0000      -0.475042       -12.9266 
  90   2.0000      -0.474696       -12.9171 
  91   2.0000      -0.474547       -12.9131 
  92   2.0000      -0.463005       -12.5990 
  93   2.0000      -0.461884       -12.5685 
  94   2.0000      -0.461803       -12.5663 
  95   2.0000      -0.460133       -12.5208 
  96   2.0000      -0.455206       -12.3868 
  97   2.0000      -0.453593       -12.3429 
  98   2.0000      -0.452604       -12.3160 
  99   2.0000      -0.452560       -12.3148 
 100   2.0000      -0.441203       -12.0057 
 101   2.0000      -0.439784       -11.9671 
 102   2.0000      -0.437753       -11.9119 
 103   2.0000      -0.437619       -11.9082 
 104   2.0000      -0.433673       -11.8008 
 105   2.0000      -0.430620       -11.7178 
 106   2.0000      -0.425760       -11.5855 
 107   2.0000      -0.424700       -11.5567 
 108   2.0000      -0.423201       -11.5159 
 109   2.0000      -0.423009       -11.5107 
 110   2.0000      -0.422883       -11.5072 
 111   2.0000      -0.422369       -11.4933 
 112   2.0000      -0.422313       -11.4917 
 113   2.0000      -0.421372       -11.4661 
 114   2.0000      -0.417806       -11.3691 
[...]
      px      :     2.080641
      py      :     2.208742
      dz2     :     2.005513  d :     9.974643
      dxz     :     1.998529
      dyz     :     1.976830
      dx2y2   :     1.994941
      dxy     :     1.998829
      f0      :     0.000542  f :     0.004067
      f+1     :     0.000829
      f-1     :     0.000593
      f+2     :     0.000495
      f-2     :     0.000443
      f+3     :     0.000722
      f-3     :     0.000443
  7 Aus       :     2.521472  s :     2.521472
      pz      :     2.175753  p :     6.476150
      px      :     2.191209
      py      :     2.109188
      dz2     :     2.003996  d :     9.974383
      dxz     :     1.978597
      dyz     :     1.997348
      dx2y2   :     1.996541
      dxy     :     1.997901
      f0      :     0.000551  f :     0.004053
      f+1     :     0.000645
      f-1     :     0.000735
      f+2     :     0.000544
      f-2     :     0.000405
      f+3     :     0.000716
      f-3     :     0.000457
  8 Aus       :     2.521463  s :     2.521463
      pz      :     2.168142  p :     6.476230
      px      :     2.187447
      py      :     2.120641
      dz2     :     1.993206  d :     9.974366
      dxz     :     1.995398
      dyz     :     1.998925
      dx2y2   :     1.993721
      dxy     :     1.993115
      f0      :     0.000519  f :     0.004058
      f+1     :     0.000594
      f-1     :     0.000757
      f+2     :     0.000526
      f-2     :     0.000386
      f+3     :     0.000743
      f-3     :     0.000533
  9 Aus       :     2.521108  s :     2.521108
      pz      :     2.179499  p :     6.475965
      px      :     2.094113
      py      :     2.202353
      dz2     :     1.992949  d :     9.974693
      dxz     :     2.002133
      dyz     :     1.993468
      dx2y2   :     1.981040
      dxy     :     2.005102
      f0      :     0.000523  f :     0.004068
      f+1     :     0.000850
      f-1     :     0.000534
      f+2     :     0.000503
      f-2     :     0.000400
      f+3     :     0.000760
      f-3     :     0.000498
 10 Aus       :     2.515459  s :     2.515459
      pz      :     2.123542  p :     6.470163
      px      :     2.197427
      py      :     2.149195
      dz2     :     1.993398  d :     9.979617
      dxz     :     1.996271
      dyz     :     1.997730
      dx2y2   :     1.996930
      dxy     :     1.995287
      f0      :     0.000516  f :     0.004380
      f+1     :     0.000680
      f-1     :     0.000675
      f+2     :     0.000824
      f-2     :     0.000463
      f+3     :     0.000718
      f-3     :     0.000506
 11 Aus       :     2.515514  s :     2.515514
      pz      :     2.110554  p :     6.469946
      px      :     2.201491
      py      :     2.157901
      dz2     :     1.989652  d :     9.979733
      dxz     :     1.996839
      dyz     :     1.998233
      dx2y2   :     2.010804
      dxy     :     1.984204
      f0      :     0.000457  f :     0.004372
      f+1     :     0.000649
      f-1     :     0.000637
      f+2     :     0.000804
      f-2     :     0.000475
      f+3     :     0.000754
      f-3     :     0.000596
 12 Fes       :     6.257143  s :     6.257143
      pz      :     4.207735  p :    12.627809
      px      :     4.210867
      py      :     4.209207
      dz2     :     1.576514  d :     7.428656
      dxz     :     1.441650
      dyz     :     1.407121
      dx2y2   :     1.551956
      dxy     :     1.451416
      f0      :     0.000041  f :     0.000411
      f+1     :     0.000078
      f-1     :     0.000070
      f+2     :     0.000065
      f-2     :     0.000033
      f+3     :     0.000084
      f-3     :     0.000040

SPIN
  0 Aus       :     0.002099  s :     0.002099
      pz      :     0.000900  p :     0.002782
      px      :     0.001135
      py      :     0.000747
      dz2     :     0.001390  d :     0.003981
      dxz     :     0.001243
      dyz     :     0.001040
      dx2y2   :     0.000209
      dxy     :     0.000099
      f0      :     0.000012  f :     0.000052
      f+1     :     0.000022
      f-1     :     0.000013
      f+2     :     0.000001
      f-2     :     0.000002
      f+3     :     0.000001
      f-3     :     0.000000
  1 Aus       :     0.002302  s :     0.002302
      pz      :     0.001231  p :     0.002816
      px      :     0.001211
      py      :     0.000374
      dz2     :     0.000726  d :     0.005161
      dxz     :     0.002629
      dyz     :     0.000878
      dx2y2   :     0.000469
      dxy     :     0.000459
      f0      :     0.000005  f :     0.000078
      f+1     :     0.000036
      f-1     :     0.000005
      f+2     :     0.000019
      f-2     :     0.000007
      f+3     :     0.000004
      f-3     :     0.000002
  2 Aus       :     0.002101  s :     0.002101
      pz      :     0.000436  p :     0.002781
      px      :     0.001280
      py      :     0.001066
      dz2     :     0.000429  d :     0.003973
      dxz     :     0.000386
      dyz     :     0.000636
      dx2y2   :     0.000533
      dxy     :     0.001990
      f0      :     0.000002  f :     0.000052
      f+1     :     0.000006
      f-1     :     0.000009
      f+2     :     0.000001
      f-2     :     0.000002
      f+3     :     0.000026
      f-3     :     0.000007
  3 Aus       :     0.002303  s :     0.002303
      pz      :     0.000772  p :     0.002816
      px      :     0.000979
      py      :     0.001065
      dz2     :     0.000691  d :     0.005160
      dxz     :     0.000159
      dyz     :     0.001168
      dx2y2   :     0.001450
      dxy     :     0.001692
      f0      :     0.000006  f :     0.000078
      f+1     :     0.000004
      f-1     :     0.000013
      f+2     :     0.000010
      f-2     :     0.000003
      f+3     :     0.000030
      f-3     :     0.000011
  4 Aus       :     0.002295  s :     0.002295
      pz      :     0.000844  p :     0.002812
      px      :     0.000977
      py      :     0.000991
      dz2     :     0.000726  d :     0.005096
      dxz     :     0.001091
      dyz     :     0.000150
      dx2y2   :     0.002154
      dxy     :     0.000976
      f0      :     0.000005  f :     0.000076
      f+1     :     0.000017
      f-1     :     0.000002
      f+2     :     0.000011
      f-2     :     0.000001
      f+3     :     0.000030
      f-3     :     0.000011
  5 Aus       :     0.002293  s :     0.002293
      pz      :     0.001273  p :     0.002812
      px      :     0.000181
      py      :     0.001359
      dz2     :     0.000600  d :     0.005105
      dxz     :     0.000708
      dyz     :     0.002788
      dx2y2   :     0.000396
      dxy     :     0.000613
      f0      :     0.000005  f :     0.000076
      f+1     :     0.000003
      f-1     :     0.000034
      f+2     :     0.000023
      f-2     :     0.000005
      f+3     :     0.000003
      f-3     :     0.000003
  6 Aus       :     0.002293  s :     0.002293
      pz      :     0.001273  p :     0.002812
      px      :     0.000181
      py      :     0.001359
      dz2     :     0.000600  d :     0.005103
      dxz     :     0.000707
      dyz     :     0.002788
      dx2y2   :     0.000396
      dxy     :     0.000613
      f0      :     0.000005  f :     0.000076
      f+1     :     0.000003
      f-1     :     0.000034
      f+2     :     0.000023
      f-2     :     0.000005
      f+3     :     0.000003
      f-3     :     0.000003
  7 Aus       :     0.002303  s :     0.002303
      pz      :     0.001231  p :     0.002816
      px      :     0.001211
      py      :     0.000374
      dz2     :     0.000726  d :     0.005161
      dxz     :     0.002628
      dyz     :     0.000878
      dx2y2   :     0.000469
      dxy     :     0.000459
      f0      :     0.000005  f :     0.000078
      f+1     :     0.000036
      f-1     :     0.000005
      f+2     :     0.000019
      f-2     :     0.000007
      f+3     :     0.000004
      f-3     :     0.000002
  8 Aus       :     0.002303  s :     0.002303
      pz      :     0.000772  p :     0.002817
      px      :     0.000979
      py      :     0.001065
      dz2     :     0.000692  d :     0.005164
      dxz     :     0.000159
      dyz     :     0.001170
      dx2y2   :     0.001451
      dxy     :     0.001693
      f0      :     0.000006  f :     0.000078
      f+1     :     0.000004
      f-1     :     0.000013
      f+2     :     0.000010
      f-2     :     0.000003
      f+3     :     0.000030
      f-3     :     0.000011
  9 Aus       :     0.002294  s :     0.002294
      pz      :     0.000844  p :     0.002813
      px      :     0.000978
      py      :     0.000991
      dz2     :     0.000727  d :     0.005100
      dxz     :     0.001092
      dyz     :     0.000150
      dx2y2   :     0.002155
      dxy     :     0.000977
      f0      :     0.000005  f :     0.000076
      f+1     :     0.000017
      f-1     :     0.000002
      f+2     :     0.000011
      f-2     :     0.000001
      f+3     :     0.000030
      f-3     :     0.000011
 10 Aus       :     0.002098  s :     0.002098
      pz      :     0.000900  p :     0.002782
      px      :     0.001135
      py      :     0.000747
      dz2     :     0.001390  d :     0.003982
      dxz     :     0.001244
      dyz     :     0.001040
      dx2y2   :     0.000209
      dxy     :     0.000099
      f0      :     0.000012  f :     0.000052
      f+1     :     0.000022
      f-1     :     0.000013
      f+2     :     0.000001
      f-2     :     0.000002
      f+3     :     0.000001
      f-3     :     0.000000
 11 Aus       :     0.002101  s :     0.002101
      pz      :     0.000435  p :     0.002781
      px      :     0.001279
      py      :     0.001066
      dz2     :     0.000429  d :     0.003972
      dxz     :     0.000386
      dyz     :     0.000635
      dx2y2   :     0.000533
      dxy     :     0.001989
      f0      :     0.000002  f :     0.000052
      f+1     :     0.000006
      f-1     :     0.000009
      f+2     :     0.000001
      f-2     :     0.000002
      f+3     :     0.000026
      f-3     :     0.000007
 12 Fes       :     0.000001  s :     0.000001
      pz      :     0.000000  p :     0.000000
      px      :     0.000000
      py      :     0.000000
      dz2     :     0.571661  d :     2.881792
      dxz     :     0.578788
      dyz     :     0.580671
      dx2y2   :     0.571614
      dxy     :     0.579059
      f0      :     0.000000  f :     0.000000
      f+1     :     0.000000
      f-1     :     0.000000
      f+2     :     0.000000
      f-2     :     0.000000
      f+3     :     0.000000
      f-3     :     0.000000


                      *****************************
                      * MAYER POPULATION ANALYSIS *
                      *****************************

  NA   - Mulliken gross atomic population
  ZA   - Total nuclear charge
  QA   - Mulliken gross atomic charge
  VA   - Mayer's total valence
  BVA  - Mayer's bonded valence
  FA   - Mayer's free valence

  ATOM       NA         ZA         QA         VA         BVA        FA
  0 Au    18.8043    19.0000     0.1957     1.3858     1.3789     0.0069
  1 Au    18.8307    19.0000     0.1693     1.4025     1.3943     0.0083
  2 Au    18.8042    19.0000     0.1958     1.3856     1.3787     0.0069
  3 Au    18.8308    19.0000     0.1692     1.4025     1.3942     0.0083
  4 Au    18.8294    19.0000     0.1706     1.4012     1.3930     0.0082
  5 Au    18.8293    19.0000     0.1707     1.4016     1.3934     0.0082
  6 Au    18.8293    19.0000     0.1707     1.4016     1.3934     0.0082
  7 Au    18.8307    19.0000     0.1693     1.4024     1.3941     0.0083
  8 Au    18.8308    19.0000     0.1692     1.4027     1.3944     0.0083
  9 Au    18.8294    19.0000     0.1706     1.4015     1.3933     0.0082
 10 Au    18.8043    19.0000     0.1957     1.3859     1.3790     0.0069
 11 Au    18.8042    19.0000     0.1958     1.3854     1.3786     0.0069
 12 Fe    28.1426    26.0000    -2.1426     9.4767     4.8797     4.5969

  Mayer bond orders larger than 0.100000
B(  0-Au,  1-Au) :   0.2207 B(  0-Au,  3-Au) :   0.2214 B(  0-Au,  4-Au) :   0.2215 
B(  0-Au,  6-Au) :   0.2216 B(  0-Au, 12-Fe) :   0.3931 B(  1-Au,  2-Au) :   0.2213 
B(  1-Au,  6-Au) :   0.2164 B(  1-Au,  9-Au) :   0.2168 B(  1-Au, 12-Fe) :   0.4140 
B(  2-Au,  3-Au) :   0.2217 B(  2-Au,  5-Au) :   0.2212 B(  2-Au,  9-Au) :   0.2213 
B(  2-Au, 12-Fe) :   0.3927 B(  3-Au,  4-Au) :   0.2159 B(  3-Au,  5-Au) :   0.2161 
B(  3-Au, 12-Fe) :   0.4140 B(  4-Au,  7-Au) :   0.2168 B(  4-Au, 11-Au) :   0.2211 
B(  4-Au, 12-Fe) :   0.4129 B(  5-Au,  7-Au) :   0.2164 B(  5-Au, 10-Au) :   0.2216 
B(  5-Au, 12-Fe) :   0.4131 B(  6-Au,  8-Au) :   0.2161 B(  6-Au, 11-Au) :   0.2213 
B(  6-Au, 12-Fe) :   0.4131 B(  7-Au, 10-Au) :   0.2207 B(  7-Au, 11-Au) :   0.2212 
B(  7-Au, 12-Fe) :   0.4141 B(  8-Au,  9-Au) :   0.2160 B(  8-Au, 10-Au) :   0.2215 
B(  8-Au, 11-Au) :   0.2217 B(  8-Au, 12-Fe) :   0.4141 B(  9-Au, 10-Au) :   0.2216 
B(  9-Au, 12-Fe) :   0.4129 B( 10-Au, 12-Fe) :   0.3931 B( 11-Au, 12-Fe) :   0.3927 



-------------------------------------------------------------
 Forming the transition density       ... done in 0.736252 sec
-------------------------------------------------------------



==========================================
CASSCF UV, CD spectra and dipole moments
==========================================
-------------------
ABSORPTION SPECTRUM
-------------------

Center of mass           = ( 12.4298, 15.1266, 12.1718)
Nuclear contribution to the dipole moment =     0.000163,    0.000749,    0.001131 au

Calculating the Dipole integrals                  ... done
Transforming integrals                            ... done
Calculating the Linear Momentum integrals         ... done
Transforming integrals                            ... done
Calculating the Angular Momentum integrals        ... done
Transforming integrals                            ... done

------------------------------------------------------------------------------------------
                                ABSORPTION SPECTRUM
------------------------------------------------------------------------------------------
  States           Energy   Wavelength   fosc          T2        TX         TY        TZ  
                   (cm-1)     (nm)                   (D**2)      (D)        (D)       (D) 
------------------------------------------------------------------------------------------
  0( 0)-> 1( 0) 5     119.5   83685.8   0.000000000   0.00000   0.00000   0.00000  -0.00000
  0( 0)-> 2( 0) 5    2171.1   4606.1   0.000000000   0.00000   0.00000   0.00001  -0.00000
  0( 0)-> 3( 0) 5    2552.1   3918.4   0.000000000   0.00000   0.00003  -0.00001   0.00000
  0( 0)-> 4( 0) 5    2570.6   3890.2   0.000000000   0.00000   0.00001  -0.00002  -0.00000
------------------------------------------------------------------------------------------



------------------------------------------------------------------------------
                             CD SPECTRUM
------------------------------------------------------------------------------
      States        Energy   Wavelength   R*T        RX        RY        RZ   
                    (cm-1)      (nm)   (1e40*sgs)   (au)      (au)      (au)  
------------------------------------------------------------------------------
  0( 0)-> 1( 0) 5     119.5   83685.8    -0.00000  -0.00038   0.00005  -0.00027
  0( 0)-> 2( 0) 5    2171.1   4606.1     0.00012  -0.67071   0.53209  -0.38877
  0( 0)-> 3( 0) 5    2552.1   3918.4    -0.00002  -0.09617  -0.35164  -0.31367
  0( 0)-> 4( 0) 5    2570.6   3890.2    -0.00006  -0.30328  -0.17193   0.28701
------------------------------------------------------------------------------

------------------------------------------------------------------------------
                                 DIPOLE MOMENTS
------------------------------------------------------------------------------
  Root  Block           TX        TY        TZ           |T|
                      (Debye)   (Debye)   (Debye)      (Debye)
------------------------------------------------------------------------------
    0    0            0.00009   0.00008   0.00005      0.00013

--------------
CASSCF TIMINGS
--------------

Total time                       ...    10055.5 sec
Sum of individual times          ...     9957.2 sec ( 99.0%)

Calculation of AO operators
   F(Core) operator              ...     4921.1 sec ( 48.9%)
   G(Act) operator               ...     4561.0 sec ( 45.4%)
   J(AO) operators               ...        0.0 sec (  0.0%)
Calculation of MO transformed quantities
   J(MO) operators               ...      376.8 sec (  3.7%)
   (pq|rs) integrals             ...        0.0 sec (  0.0%)
   AO->MO one electron integrals ...        4.4 sec (  0.0%)
Configuration interaction steps
   CI-setup phase                ...        0.7 sec (  0.0%)
   CI-solution phase             ...       67.4 sec (  0.7%)
   Generation of densities       ...        8.9 sec (  0.1%)
Orbital improvement steps
   Orbital gradient              ...        1.3 sec (  0.0%)
   O(1) converger                ...       14.8 sec (  0.1%)
Properties                       ...        0.7 sec (  0.0%)
   SOC integral calculation      ...        0.0 sec (  0.0%)
   SSC RMEs (incl. integrals)    ...        0.0 sec (  0.0%)
   SOC RMEs                      ...        0.0 sec (  0.0%)

Maximum memory used throughout the entire CASSCF-calculation: 312.4 MB

-------------------------   --------------------
FINAL SINGLE POINT ENERGY     -2880.106037907627
-------------------------   --------------------


                            ***************************************
                            *     ORCA property calculations      *
                            ***************************************

                                    ---------------------
                                    Active property flags
                                    ---------------------
   (+) Dipole Moment


------------------------------------------------------------------------------
                       ORCA ELECTRIC PROPERTIES CALCULATION
------------------------------------------------------------------------------

Dipole Moment Calculation                       ... on
Quadrupole Moment Calculation                   ... off
Polarizability Calculation                      ... off
GBWName                                         ... casscf.gbw
Electron density                                ... casscf.scfp
The origin for moment calculation is the CENTER OF MASS  = (12.429768, 15.126575 12.171825)

-------------
DIPOLE MOMENT
-------------
                                X             Y             Z
Electronic contribution:     -0.00013      -0.00071      -0.00111
Nuclear contribution   :      0.00016       0.00075       0.00113
                        -----------------------------------------
Total Dipole Moment    :      0.00004       0.00003       0.00002
                        -----------------------------------------
Magnitude (a.u.)       :      0.00005
Magnitude (Debye)      :      0.00014



--------------------
Rotational spectrum 
--------------------
 
Rotational constants in cm-1:     0.001398     0.001395     0.001333 
Rotational constants in MHz :    41.902041    41.819732    39.950130 

 Dipole components along the rotational axes: 
x,y,z [a.u.] :     0.000029     0.000043     0.000014 
x,y,z [Debye]:     0.000073     0.000108     0.000035 

 

Timings for individual modules:

Sum of individual times         ...    10195.177 sec (= 169.920 min)
GTO integral calculation        ...       73.168 sec (=   1.219 min)   0.7 %
SCF iterations                  ...       44.353 sec (=   0.739 min)   0.4 %
CASSCF iterations               ...    10077.656 sec (= 167.961 min)  98.8 %
                             ****ORCA TERMINATED NORMALLY****
TOTAL RUN TIME: 0 days 2 hours 49 minutes 56 seconds 508 msec
