
                                 *****************
                                 * O   R   C   A *
                                 *****************

                                            #,                                       
                                            ###                                      
                                            ####                                     
                                            #####                                    
                                            ######                                   
                                           ########,                                 
                                     ,,################,,,,,                         
                               ,,#################################,,                 
                          ,,##########################################,,             
                       ,#########################################, ''#####,          
                    ,#############################################,,   '####,        
                  ,##################################################,,,,####,       
                ,###########''''           ''''###############################       
              ,#####''   ,,,,##########,,,,          '''####'''          '####       
            ,##' ,,,,###########################,,,                        '##       
           ' ,,###''''                  '''############,,,                           
         ,,##''                                '''############,,,,        ,,,,,,###''
      ,#''                                            '''#######################'''  
     '                                                          ''''####''''         
             ,#######,   #######,   ,#######,      ##                                
            ,#'     '#,  ##    ##  ,#'     '#,    #''#        ######   ,####,        
            ##       ##  ##   ,#'  ##            #'  '#       #        #'  '#        
            ##       ##  #######   ##           ,######,      #####,   #    #        
            '#,     ,#'  ##    ##  '#,     ,#' ,#      #,         ##   #,  ,#        
             '#######'   ##     ##  '#######'  #'      '#     #####' # '####'        



                  #######################################################
                  #                        -***-                        #
                  #          Department of theory and spectroscopy      #
                  #    Directorship and core code : Frank Neese         #
                  #        Max Planck Institute fuer Kohlenforschung    #
                  #                Kaiser Wilhelm Platz 1               #
                  #                 D-45470 Muelheim/Ruhr               #
                  #                      Germany                        #
                  #                                                     #
                  #                  All rights reserved                #
                  #                        -***-                        #
                  #######################################################


                         Program Version 5.0.3 -  RELEASE  -


 With contributions from (in alphabetic order):
   Daniel Aravena         : Magnetic Suceptibility
   Michael Atanasov       : Ab Initio Ligand Field Theory (pilot matlab implementation)
   Alexander A. Auer      : GIAO ZORA, VPT2 properties, NMR spectrum
   Ute Becker             : Parallelization
   Giovanni Bistoni       : ED, misc. LED, open-shell LED, HFLD
   Martin Brehm           : Molecular dynamics
   Dmytro Bykov           : SCF Hessian
   Vijay G. Chilkuri      : MRCI spin determinant printing, contributions to CSF-ICE
   Dipayan Datta          : RHF DLPNO-CCSD density
   Achintya Kumar Dutta   : EOM-CC, STEOM-CC
   Dmitry Ganyushin       : Spin-Orbit,Spin-Spin,Magnetic field MRCI
   Miquel Garcia          : C-PCM and meta-GGA Hessian, CC/C-PCM, Gaussian charge scheme
   Yang Guo               : DLPNO-NEVPT2, F12-NEVPT2, CIM, IAO-localization
   Andreas Hansen         : Spin unrestricted coupled pair/coupled cluster methods
   Benjamin Helmich-Paris : MC-RPA, TRAH-SCF, COSX integrals
   Lee Huntington         : MR-EOM, pCC
   Robert Izsak           : Overlap fitted RIJCOSX, COSX-SCS-MP3, EOM
   Marcus Kettner         : VPT2
   Christian Kollmar      : KDIIS, OOCD, Brueckner-CCSD(T), CCSD density, CASPT2, CASPT2-K
   Simone Kossmann        : Meta GGA functionals, TD-DFT gradient, OOMP2, MP2 Hessian
   Martin Krupicka        : Initial AUTO-CI
   Lucas Lang             : DCDCAS
   Marvin Lechner         : AUTO-CI (C++ implementation), FIC-MRCC
   Dagmar Lenk            : GEPOL surface, SMD
   Dimitrios Liakos       : Extrapolation schemes; Compound Job, initial MDCI parallelization
   Dimitrios Manganas     : Further ROCIS development; embedding schemes
   Dimitrios Pantazis     : SARC Basis sets
   Anastasios Papadopoulos: AUTO-CI, single reference methods and gradients
   Taras Petrenko         : DFT Hessian,TD-DFT gradient, ASA, ECA, R-Raman, ABS, FL, XAS/XES, NRVS
   Peter Pinski           : DLPNO-MP2, DLPNO-MP2 Gradient
   Christoph Reimann      : Effective Core Potentials
   Marius Retegan         : Local ZFS, SOC
   Christoph Riplinger    : Optimizer, TS searches, QM/MM, DLPNO-CCSD(T), (RO)-DLPNO pert. Triples
   Tobias Risthaus        : Range-separated hybrids, TD-DFT gradient, RPA, STAB
   Michael Roemelt        : Original ROCIS implementation
   Masaaki Saitow         : Open-shell DLPNO-CCSD energy and density
   Barbara Sandhoefer     : DKH picture change effects
   Avijit Sen             : IP-ROCIS
   Kantharuban Sivalingam : CASSCF convergence, NEVPT2, FIC-MRCI
   Bernardo de Souza      : ESD, SOC TD-DFT
   Georgi Stoychev        : AutoAux, RI-MP2 NMR, DLPNO-MP2 response
   Willem Van den Heuvel  : Paramagnetic NMR
   Boris Wezisla          : Elementary symmetry handling
   Frank Wennmohs         : Technical directorship


 We gratefully acknowledge several colleagues who have allowed us to
 interface, adapt or use parts of their codes:
   Stefan Grimme, W. Hujo, H. Kruse, P. Pracht,  : VdW corrections, initial TS optimization,
                  C. Bannwarth, S. Ehlert          DFT functionals, gCP, sTDA/sTD-DF
   Ed Valeev, F. Pavosevic, A. Kumar             : LibInt (2-el integral package), F12 methods
   Garnet Chan, S. Sharma, J. Yang, R. Olivares  : DMRG
   Ulf Ekstrom                                   : XCFun DFT Library
   Mihaly Kallay                                 : mrcc  (arbitrary order and MRCC methods)
   Jiri Pittner, Ondrej Demel                    : Mk-CCSD
   Frank Weinhold                                : gennbo (NPA and NBO analysis)
   Christopher J. Cramer and Donald G. Truhlar   : smd solvation model
   Lars Goerigk                                  : TD-DFT with DH, B97 family of functionals
   V. Asgeirsson, H. Jonsson                     : NEB implementation
   FAccTs GmbH                                   : IRC, NEB, NEB-TS, DLPNO-Multilevel, CI-OPT
                                                   MM, QMMM, 2- and 3-layer-ONIOM, Crystal-QMMM,
                                                   LR-CPCM, SF, NACMEs, symmetry and pop. for TD-DFT,
                                                   nearIR, NL-DFT gradient (VV10), updates on ESD,
                                                   ML-optimized integration grids
   S Lehtola, MJT Oliveira, MAL Marques          : LibXC Library
   Liviu Ungur et al                             : ANISO software


 Your calculation uses the libint2 library for the computation of 2-el integrals
 For citations please refer to: http://libint.valeyev.net

 Your ORCA version has been built with support for libXC version: 5.1.0
 For citations please refer to: https://tddft.org/programs/libxc/

 This ORCA versions uses:
   CBLAS   interface :  Fast vector & matrix operations
   LAPACKE interface :  Fast linear algebra routines
   SCALAPACK package :  Parallel linear algebra routines
   Shared memory     :  Shared parallel matrices
   BLAS/LAPACK       :  OpenBLAS 0.3.15  USE64BITINT DYNAMIC_ARCH NO_AFFINITY Sandybridge SINGLE_THREADED
        Core in use  :  Sandybridge
   Copyright (c) 2011-2014, The OpenBLAS Project




***************************************
The coordinates will be read from file: pbe.xyz
***************************************


================================================================================

cite the ECPs for Au [Def2-ECP] as follows:
Ce-Yb(ecp-28): M. Dolg, H. Stoll, H.Preuss, J. Chem. Phys., 1989, 90, 1730-1734.
Y-Cd(ecp-28), Hf-Hg(ecp-46): D. Andrae,U. Haeussermann, M. Dolg, H. Stoll, H. Preuss, Theor. Chim. Acta, 1990, 77, 123-141.
In-Sb(ecp-28), Tl-Bi(ecp-46): B. Metz, H. Stoll, M. Dolg, J. Chem. Phys., 2000, 113, 2563-2569.
Te-Xe(ecp-28), Po-Rn(ecp-46): K. A. Peterson, D. Figgen, E. Goll, H. Stoll, M. Dolg, J. Chem. Phys., 2003, 119, 11113-11123.
Rb(ecp-28), Cs(ecp-46): T. Leininger, A. Nicklass, W. Kuechle, H. Stoll, M. Dolg, A. Bergner, Chem. Phys. Lett., 1996, 255, 274-280.
Sr(ecp-28), Ba(ecp-46): M. Kaupp, P. V. Schleyer, H. Stoll and H. Preuss, J. Chem. Phys., 1991, 94, 1360-1366.
La(ecp-46): M. Dolg, H. Stoll, A. Savin, H. Preuss, Theor. Chim. Acta, 1989, 75, 173-194.
Lu(ecp-28): X. Cao, M. Dolg, J. Chem. Phys., 2001, 115, 7348-7355.

ECP parameters for Au [Def2-ECP] have been obtained from:
TURBOMOLE (7.0.2)

----- Orbital basis set information -----
Your calculation utilizes the basis: def2-TZVP
   F. Weigend and R. Ahlrichs, Phys. Chem. Chem. Phys. 7, 3297 (2005).

----- AuxJ basis set information -----
Your calculation utilizes the auxiliary basis: def2/J
   F. Weigend, Phys. Chem. Chem. Phys. 8, 1057 (2006).

----- AuxC basis set information -----
Your calculation utilizes the auxiliary basis: def2-TZVP/C
  H-La, Hf-Rn : A. Hellweg, C. Hattig, S. Hofener and W. Klopper, Theor. Chem. Acc. 117, 587 (2007).
        Ce-Lu : J. Chmela and M. E. Harding, Mol. Phys. (2018).

================================================================================
                                        WARNINGS
                       Please study these warnings very carefully!
================================================================================


IMPORTANT NOTE: CASSCF must signal convergence for a subsequent CASPT2/NEVPT2! 
                Set maxiter=1 to run CASPT2/NEVPT2 with arbitrary orbitals.


INFO   : the flag for use of the SHARK integral package has been found!

================================================================================
                                       INPUT FILE
================================================================================
NAME = nevpt2.inp
|  1> !SC-NEVPT2 def2-TZVP def2-TZVP/C
|  2> !MOREAD RIJCOSX def2/J
|  3> %maxcore 4000
|  4> %moinp "casscf.gbw"
|  5> %pal nprocs 6 end 
|  6> 
|  7> %casscf
|  8>  mult 5,3
|  9>  bweight 1,1
| 10>  nroots 5,45
| 11>  nel 6
| 12>  norb 5
| 13>  ptsettings
| 14>   d4tpre 1e-14 # default = 1e-10
| 15>   d3tpre 1e-14
| 16>  end
| 17>  rel           
| 18>    dosoc true   
| 19>    gtensor true 
| 20>  end           
| 21> end
| 22> 
| 23> 
| 24> *xyzfile 0 5 pbe.xyz
| 25> 
| 26> 
| 27>                          ****END OF INPUT****
================================================================================

                       ****************************
                       * Single Point Calculation *
                       ****************************

---------------------------------
CARTESIAN COORDINATES (ANGSTROEM)
---------------------------------
  Au     7.547249    7.336289    3.852044
  Au     4.831003    7.641231    4.334740
  Au     4.836273    5.755754    6.370296
  Au     7.558319    5.478969    5.912984
  Au     9.287035    7.709757    5.978770
  Au     6.593218    6.140445    8.481452
  Au     6.561848    9.868892    4.400605
  Au     8.324029    8.368095    8.547542
  Au     5.596777   10.530026    6.969272
  Au     3.868363    8.299372    6.903423
  Au     5.607696    8.673088    9.029924
  Au     8.318790   10.253743    6.511569
  Fe     6.577554    8.004658    6.441081

----------------------------
CARTESIAN COORDINATES (A.U.)
----------------------------
  NO LB      ZA    FRAG     MASS         X           Y           Z
   0 Au   19.0000*   0   196.966   14.262234   13.863576    7.279308
   1 Au   19.0000*   0   196.966    9.129272   14.439835    8.191471
   2 Au   19.0000*   0   196.966    9.139231   10.876799   12.038115
   3 Au   19.0000*   0   196.966   14.283153   10.353751   11.173920
   4 Au   19.0000*   0   196.966   17.549953   14.569328   11.298237
   5 Au   19.0000*   0   196.966   12.459377   11.603759   16.027621
   6 Au   19.0000*   0   196.966   12.400095   18.649503    8.315938
   7 Au   19.0000*   0   196.966   15.730134   15.813408   16.152514
   8 Au   19.0000*   0   196.966   10.576375   19.898865   13.170015
   9 Au   19.0000*   0   196.966    7.310146   15.683541   13.045579
  10 Au   19.0000*   0   196.966   10.597010   16.389762   17.064084
  11 Au   19.0000*   0   196.966   15.720234   19.376765   12.305082
  12 Fe   26.0000    0    55.850   12.429776   15.126612   12.171880
* core charge reduced due to ECP

--------------------------------
INTERNAL COORDINATES (ANGSTROEM)
--------------------------------
 Au     0   0   0     0.000000000000     0.00000000     0.00000000
 Au     1   0   0     2.775604669096     0.00000000     0.00000000
 Au     2   1   0     2.774624857587    92.92716429     0.00000000
 Au     3   2   1     2.774036861434    87.06081320     0.79218104
 Au     1   2   3     2.772957824028   117.76324945   304.15228325
 Au     3   2   1     2.773413533747   117.73588068    55.85929595
 Au     1   2   3     2.772366429030    61.14399184   235.06159845
 Au     5   1   2     2.821238178730   121.03662635     0.22171628
 Au     7   1   2     2.822500991311   121.03644727    68.93075705
 Au     3   2   1     2.773277689717    61.12498221   124.90379894
 Au     6   3   2     2.772428204266    92.98710392    55.50661415
 Au     7   1   2     2.773287906249    92.99241547   124.67083550
 Fe     9   7   1     2.760143575431    59.33862433     0.08132441

---------------------------
INTERNAL COORDINATES (A.U.)
---------------------------
 Au     0   0   0     0.000000000000     0.00000000     0.00000000
 Au     1   0   0     5.245132680625     0.00000000     0.00000000
 Au     2   1   0     5.243281105209    92.92716429     0.00000000
 Au     3   2   1     5.242169953512    87.06081320     0.79218104
 Au     1   2   3     5.240130868327   117.76324945   304.15228325
 Au     3   2   1     5.240992034893   117.73588068    55.85929595
 Au     1   2   3     5.239013293744    61.14399184   235.06159845
 Au     5   1   2     5.331367516363   121.03662635     0.22171628
 Au     7   1   2     5.333753886299   121.03644727    68.93075705
 Au     3   2   1     5.240735326880    61.12498221   124.90379894
 Au     6   3   2     5.239130032023    92.98710392    55.50661415
 Au     7   1   2     5.240754633326    92.99241547   124.67083550
 Fe     9   7   1     5.215915447867    59.33862433     0.08132441

---------------------
BASIS SET INFORMATION
---------------------
There are 2 groups of distinct atoms

 Group   1 Type Au  : 8s7p6d1f contracted to 6s4p3d1f pattern {311111/4111/411/1}
 Group   2 Type Fe  : 17s11p7d1f contracted to 6s4p4d1f pattern {842111/6311/4111/1}

Atom   0Au   basis set group =>   1
Atom   1Au   basis set group =>   1
Atom   2Au   basis set group =>   1
Atom   3Au   basis set group =>   1
Atom   4Au   basis set group =>   1
Atom   5Au   basis set group =>   1
Atom   6Au   basis set group =>   1
Atom   7Au   basis set group =>   1
Atom   8Au   basis set group =>   1
Atom   9Au   basis set group =>   1
Atom  10Au   basis set group =>   1
Atom  11Au   basis set group =>   1
Atom  12Fe   basis set group =>   2
---------------------------------
AUXILIARY/J BASIS SET INFORMATION
---------------------------------
There are 2 groups of distinct atoms

 Group   1 Type Au  : 11s5p5d3f3g contracted to 8s5p5d2f3g pattern {41111111/11111/11111/21/111}
 Group   2 Type Fe  : 19s5p5d3f3g contracted to 8s5p5d2f3g pattern {121111111/11111/11111/21/111}

Atom   0Au   basis set group =>   1
Atom   1Au   basis set group =>   1
Atom   2Au   basis set group =>   1
Atom   3Au   basis set group =>   1
Atom   4Au   basis set group =>   1
Atom   5Au   basis set group =>   1
Atom   6Au   basis set group =>   1
Atom   7Au   basis set group =>   1
Atom   8Au   basis set group =>   1
Atom   9Au   basis set group =>   1
Atom  10Au   basis set group =>   1
Atom  11Au   basis set group =>   1
Atom  12Fe   basis set group =>   2
---------------------------------
AUXILIARY/C BASIS SET INFORMATION
---------------------------------
There are 2 groups of distinct atoms

 Group   1 Type Au  : 8s8p7d5f3g2h contracted to 8s8p7d5f3g2h pattern {11111111/11111111/1111111/11111/111/11}
 Group   2 Type Fe  : 11s9p8d6f5g2h contracted to 9s8p8d6f5g2h pattern {311111111/21111111/11111111/111111/11111/11}

Atom   0Au   basis set group =>   1
Atom   1Au   basis set group =>   1
Atom   2Au   basis set group =>   1
Atom   3Au   basis set group =>   1
Atom   4Au   basis set group =>   1
Atom   5Au   basis set group =>   1
Atom   6Au   basis set group =>   1
Atom   7Au   basis set group =>   1
Atom   8Au   basis set group =>   1
Atom   9Au   basis set group =>   1
Atom  10Au   basis set group =>   1
Atom  11Au   basis set group =>   1
Atom  12Fe   basis set group =>   2
-------------------------
ECP PARAMETER INFORMATION
-------------------------

 Group 1, Type Au ECP Def2-ECP (replacing 60 core electrons, lmax=3)

Atom   0Au   ECP group =>   1
Atom   1Au   ECP group =>   1
Atom   2Au   ECP group =>   1
Atom   3Au   ECP group =>   1
Atom   4Au   ECP group =>   1
Atom   5Au   ECP group =>   1
Atom   6Au   ECP group =>   1
Atom   7Au   ECP group =>   1
Atom   8Au   ECP group =>   1
Atom   9Au   ECP group =>   1
Atom  10Au   ECP group =>   1
Atom  11Au   ECP group =>   1



           ************************************************************
           *        Program running with 6 parallel MPI-processes     *
           *              working on a common directory               *
           ************************************************************
------------------------------------------------------------------------------
                           ORCA GTO INTEGRAL CALCULATION
                           -- RI-GTO INTEGRALS CHOSEN --
------------------------------------------------------------------------------
------------------------------------------------------------------------------
                   ___                                                        
                  /   \      - P O W E R E D   B Y -                         
                 /     \                                                     
                 |  |  |   _    _      __       _____    __    __             
                 |  |  |  | |  | |    /  \     |  _  \  |  |  /  |          
                  \  \/   | |  | |   /    \    | | | |  |  | /  /          
                 / \  \   | |__| |  /  /\  \   | |_| |  |  |/  /          
                |  |  |   |  __  | /  /__\  \  |    /   |      \           
                |  |  |   | |  | | |   __   |  |    \   |  |\   \          
                \     /   | |  | | |  |  |  |  | |\  \  |  | \   \       
                 \___/    |_|  |_| |__|  |__|  |_| \__\ |__|  \__/        
                                                                              
                      - O R C A' S   B I G   F R I E N D -                    
                                      &                                       
                       - I N T E G R A L  F E E D E R -                       
                                                                              
 v1 FN, 2020, v2 2021                                                         
------------------------------------------------------------------------------


Reading SHARK input file nevpt2.SHARKINP.tmp ... ok
----------------------
SHARK INTEGRAL PACKAGE
----------------------

Number of atoms                             ...     13
Number of basis functions                   ...    525
Number of shells                            ...    183
Maximum angular momentum                    ...      3
Integral batch strategy                     ... SHARK/LIBINT Hybrid
RI-J (if used) integral strategy            ... SPLIT-RIJ (Revised 2003 algorithm where possible)
Printlevel                                  ...      1
Contraction scheme used                     ... SEGMENTED contraction
Coulomb Range Separation                    ... NOT USED
Exchange Range Separation                   ... NOT USED
Finite Nucleus Model                        ... NOT USED
Auxiliary Coulomb fitting basis             ... AVAILABLE
   # of basis functions in Aux-J            ...   1157
   # of shells in Aux-J                     ...    299
   Maximum angular momentum in Aux-J        ...      4
Auxiliary J/K fitting basis                 ... NOT available
Auxiliary Correlation fitting basis         ... AVAILABLE
   # of basis functions in Aux-C            ...   1994
   # of shells in Aux-C                     ...    434
   Maximum angular momentum in Aux-C        ...      5
Auxiliary 'external' fitting basis          ... NOT available
Integral threshold                          ...     1.000000e-10
Primitive cut-off                           ...     1.000000e-11
Primitive pair pre-selection threshold      ...     1.000000e-11

Calculating pre-screening integrals         ... done (  0.2 sec) Dimension = 183
Organizing shell pair data                  ... done (  0.4 sec)
Shell pair information
Total number of shell pairs                 ...     16836
Shell pairs after pre-screening             ...     13902
Total number of primitive shell pairs       ...     45389
Primitive shell pairs kept                  ...     27447
          la=0 lb=0:   2157 shell pairs
          la=1 lb=0:   3140 shell pairs
          la=1 lb=1:   1206 shell pairs
          la=2 lb=0:   2756 shell pairs
          la=2 lb=1:   1938 shell pairs
          la=2 lb=2:    790 shell pairs
          la=3 lb=0:    750 shell pairs
          la=3 lb=1:    572 shell pairs
          la=3 lb=2:    508 shell pairs
          la=3 lb=3:     85 shell pairs

Calculating one electron integrals          ... done (  0.1 sec)
Calculating ECP integrals                   ... done ( 11.3 sec)
Calculating RI/J V-Matrix + Cholesky decomp.... done (  0.1 sec)
Calculating RI/C V-Matrix + Cholesky decomp.... done (  0.3 sec)
Calculating Nuclear repulsion               ... done (  0.0 sec) ENN=   4504.072836483460 Eh

SHARK setup successfully completed in  12.8 seconds

Maximum memory used throughout the entire GTOINT-calculation: 39.4 MB


           ************************************************************
           *        Program running with 6 parallel MPI-processes     *
           *              working on a common directory               *
           ************************************************************
-------------------------------------------------------------------------------
                                 ORCA SCF
-------------------------------------------------------------------------------

------------
SCF SETTINGS
------------
Hamiltonian:
 Ab initio Hamiltonian  Method          .... Hartree-Fock(GTOs)
 RI-approximation to the Coulomb term is turned on
   Number of AuxJ basis functions       .... 1157
   RIJ-COSX (HFX calculated with COS-X)).... on


General Settings:
 Integral files         IntName         .... nevpt2
 Hartree-Fock type      HFTyp           .... CASSCF
 Total Charge           Charge          ....    0
 Multiplicity           Mult            ....    5
 Number of Electrons    NEL             ....  254
 Basis Dimension        Dim             ....  525
 Nuclear Repulsion      ENuc            ....   4504.0728364835 Eh


Diagonalization of the overlap matrix:
Smallest eigenvalue                        ... 6.071e-04
Time for diagonalization                   ...    0.075 sec
Threshold for overlap eigenvalues          ... 1.000e-08
Number of eigenvalues below threshold      ... 0
Time for construction of square roots      ...    0.077 sec
Total time needed                          ...    0.154 sec

---------------------
INITIAL GUESS: MOREAD
---------------------
Guess MOs are being read from file: casscf.gbw
Input Geometry matches current geometry (good)
Input basis set matches current basis set (good)
MOs were renormalized
Gram-Schmidt orthogonalization of all MOs with pivot on actives
                      ------------------
                      INITIAL GUESS DONE (   5.3 sec)
                      ------------------
--------------------
COSX GRID GENERATION
--------------------

GRIDX 1
-------
General Integration Accuracy     IntAcc      ... 3.816
Radial Grid Type                 RadialGrid  ... OptM3 with GC (2021)
Angular Grid (max. ang.)         AngularGrid ... 1 (Lebedev-50)
Angular grid pruning method      GridPruning ... 4 (adaptive)
Weight generation scheme         WeightScheme... Becke
Basis function cutoff            BFCut       ... 1.0000e-10
Integration weight cutoff        WCut        ... 1.0000e-14
Angular grids for H and He will be reduced by one unit
Partially contracted basis set               ... on
Rotationally invariant grid construction     ... off

Total number of grid points                  ...    15140
Total number of batches                      ...      243
Average number of points per batch           ...       62
Average number of grid points per atom       ...     1165
UseSFitting                                  ... on

GRIDX 2
-------
General Integration Accuracy     IntAcc      ... 4.020
Radial Grid Type                 RadialGrid  ... OptM3 with GC (2021)
Angular Grid (max. ang.)         AngularGrid ... 2 (Lebedev-110)
Angular grid pruning method      GridPruning ... 4 (adaptive)
Weight generation scheme         WeightScheme... Becke
Basis function cutoff            BFCut       ... 1.0000e-10
Integration weight cutoff        WCut        ... 1.0000e-14
Angular grids for H and He will be reduced by one unit
Partially contracted basis set               ... on
Rotationally invariant grid construction     ... off

Total number of grid points                  ...    45996
Total number of batches                      ...      724
Average number of points per batch           ...       63
Average number of grid points per atom       ...     3538
UseSFitting                                  ... on

GRIDX 3
-------
General Integration Accuracy     IntAcc      ... 4.338
Radial Grid Type                 RadialGrid  ... OptM3 with GC (2021)
Angular Grid (max. ang.)         AngularGrid ... 3 (Lebedev-194)
Angular grid pruning method      GridPruning ... 4 (adaptive)
Weight generation scheme         WeightScheme... Becke
Basis function cutoff            BFCut       ... 1.0000e-10
Integration weight cutoff        WCut        ... 1.0000e-14
Angular grids for H and He will be reduced by one unit
Partially contracted basis set               ... on
Rotationally invariant grid construction     ... off

Total number of grid points                  ...    84082
Total number of batches                      ...     1318
Average number of points per batch           ...       63
Average number of grid points per atom       ...     6468
UseSFitting                                  ... on

Time for X-Grid setup             =    2.070 sec



 ... the calculation is a CASSCF calculation -I'm leaving here GOOD LUCK!!!



           ************************************************************
           *        Program running with 6 parallel MPI-processes     *
           *              working on a common directory               *
           ************************************************************
-------------------------------------------------------------------------------
                              ORCA-CASSCF
-------------------------------------------------------------------------------

Setting up the integral package       ... done
Setting up the integral package (RI)  ... done
Building the CAS space                ... done (5 configurations for Mult=5)
Building the CAS space                ... done (35 configurations for Mult=3)

 CASSCF (estimated) memory needed     ... 113.4 MB
 NEVPT2 (estimated) memory needed     ... 377.6 MB


SYSTEM-SPECIFIC SETTINGS:
Number of active electrons          ...    6
Number of active orbitals           ...    5
Total number of electrons           ...  254
Total number of orbitals            ...  525
Total number aux. functions         ... 1994

Determined orbital ranges:
   Internal       0 -  123 ( 124 orbitals)
   Active       124 -  128 (   5 orbitals)
   External     129 -  524 ( 396 orbitals)
Number of rotation parameters      ...  51704

CI-STEP:
CI strategy                         ... General CI
Number of multiplicity blocks       ...    2
BLOCK  1 WEIGHT=   0.5000
  Multiplicity                      ...    5
  #(Configurations)                 ...    5
  #(CSFs)                           ...    5
  #(Roots)                          ...    5
    ROOT=0 WEIGHT=    0.100000
    ROOT=1 WEIGHT=    0.100000
    ROOT=2 WEIGHT=    0.100000
    ROOT=3 WEIGHT=    0.100000
    ROOT=4 WEIGHT=    0.100000

BLOCK  2 WEIGHT=   0.5000
  Multiplicity                      ...    3
  #(Configurations)                 ...   35
  #(CSFs)                           ...   45
  #(Roots)                          ...   45
    ROOT=0 WEIGHT=    0.011111
    ROOT=1 WEIGHT=    0.011111
    ROOT=2 WEIGHT=    0.011111
    ROOT=3 WEIGHT=    0.011111
    ROOT=4 WEIGHT=    0.011111
    ROOT=5 WEIGHT=    0.011111
    ROOT=6 WEIGHT=    0.011111
    ROOT=7 WEIGHT=    0.011111
    ROOT=8 WEIGHT=    0.011111
    ROOT=9 WEIGHT=    0.011111
    ROOT=10 WEIGHT=    0.011111
    ROOT=11 WEIGHT=    0.011111
    ROOT=12 WEIGHT=    0.011111
    ROOT=13 WEIGHT=    0.011111
    ROOT=14 WEIGHT=    0.011111
    ROOT=15 WEIGHT=    0.011111
    ROOT=16 WEIGHT=    0.011111
    ROOT=17 WEIGHT=    0.011111
    ROOT=18 WEIGHT=    0.011111
    ROOT=19 WEIGHT=    0.011111
    ROOT=20 WEIGHT=    0.011111
    ROOT=21 WEIGHT=    0.011111
    ROOT=22 WEIGHT=    0.011111
    ROOT=23 WEIGHT=    0.011111
    ROOT=24 WEIGHT=    0.011111
    ROOT=25 WEIGHT=    0.011111
    ROOT=26 WEIGHT=    0.011111
    ROOT=27 WEIGHT=    0.011111
    ROOT=28 WEIGHT=    0.011111
    ROOT=29 WEIGHT=    0.011111
    ROOT=30 WEIGHT=    0.011111
    ROOT=31 WEIGHT=    0.011111
    ROOT=32 WEIGHT=    0.011111
    ROOT=33 WEIGHT=    0.011111
    ROOT=34 WEIGHT=    0.011111
    ROOT=35 WEIGHT=    0.011111
    ROOT=36 WEIGHT=    0.011111
    ROOT=37 WEIGHT=    0.011111
    ROOT=38 WEIGHT=    0.011111
    ROOT=39 WEIGHT=    0.011111
    ROOT=40 WEIGHT=    0.011111
    ROOT=41 WEIGHT=    0.011111
    ROOT=42 WEIGHT=    0.011111
    ROOT=43 WEIGHT=    0.011111
    ROOT=44 WEIGHT=    0.011111

  PrintLevel                        ...    1
  N(GuessMat)                       ...       512
  MaxDim(CI)                        ...        10
  MaxIter(CI)                       ...        64
  Energy Tolerance CI               ...  1.00e-08
  Residual Tolerance CI             ...  1.00e-08
  Shift(CI)                         ...  1.00e-04

INTEGRAL-TRANSFORMATION-STEP:
  Algorithm                         ... RI-MO

ORBITAL-IMPROVEMENT-STEP:
  Algorithm                         ... SuperCI(PT)
  Default Parametrization           ... CAYLEY
  Act-Act rotations                 ... depends on algorithm used

  Note: SuperCI(PT) will ignore FreezeIE, FreezeAct and FreezeGrad. In general Default settings are encouraged.
        In conjunction with ShiftUp, ShiftDn or GradScaling the performance of SuperCI(PT) is less optimal.  

  MaxRot                            ... 2.00e-01 
  Max. no of vectors (DIIS)         ... 15
  DThresh (cut-off) metric          ... 1.00e-06
  Switch step at gradient           ...  3.00e-02 
  Switch step at iteration          ...        50   
  Switch step to                    ... SuperCI(PT)    

SCF-SETTINGS:
  Incremental                       ... off
  RIJCOSX approximation             ... on
  UseFinalGrid                      ... on
  RI-JK approximation               ... off
  AO integral handling              ... DIRECT
  Integral Neglect Thresh           ...  1.00e-10
  Primitive cutoff TCut             ...  1.00e-11
  Energy convergence tolerance      ...  1.00e-07
  Orbital gradient convergence      ...  1.00e-03
  Max. number of iterations         ...        75  

PT2-SETTINGS:
  A PT2 calculation will be performed on top of the CASSCF wave function (PT2 = SC-NEVPT2)   
 CI step strategy                   ... General CI
  D4C handling                      ... on the fly 
  CI truncation for D4C at          ...  1.00e-14
  CI truncation for D3  at          ...  1.00e-14
  Orbitals                          ... canonical for each state 
  Last  frozen  orbital             ... 4
  First deleted orbital             ... 525
  RI Step                           ... store IJV(array) (MC_ONDISK during integral transformation) 

PROPERTIES-SETTINGS:
  Spin orbit coupling               ... true
  GTensor                           ... true
  QDPT diagonal energies            ... NEVPT2 energies 

FINAL ORBITALS:
  Active   Orbitals                 ... natural 
  Internal Orbitals                 ... canonical 
  External Orbitals                 ... canonical 

------------------
CAS-SCF ITERATIONS
------------------


MACRO-ITERATION   1: 
   --- Inactive Energy E0 = -2864.32373190 Eh
CI-ITERATION   0: 
 -2880.185957888   0.000000000000 (    0.00)
 -2880.185413430   0.000000000000
 -2880.176065848   0.000000000000
 -2880.174329759   0.000000000000
 -2880.174245485   0.000000000000
   CI-PROBLEM SOLVED
   DENSITIES MADE
CI-ITERATION   0: 
 -2880.095311111   0.000000000000 (    0.00)
 -2880.095240379   0.000000000000
 -2880.093837511   0.000000000000
 -2880.089389599   0.000000000000
 -2880.089269763   0.000000000000
 -2880.085337654   0.000000000000
 -2880.085246402   0.000000000000
 -2880.084446468   0.000000000000
 -2880.084197494   0.000000000000
 -2880.082420584   0.000000000000
 -2880.082379913   0.000000000000
 -2880.075140374   0.000000000000
 -2880.075072325   0.000000000000
 -2880.074028640   0.000000000000
 -2880.073970071   0.000000000000
 -2880.070609067   0.000000000000
 -2880.069134126   0.000000000000
 -2880.069070843   0.000000000000
 -2880.066169614   0.000000000000
 -2880.060935167   0.000000000000
 -2880.060729675   0.000000000000
 -2880.060241979   0.000000000000
 -2880.060213934   0.000000000000
 -2880.059433483   0.000000000000
 -2880.058665285   0.000000000000
 -2880.058615042   0.000000000000
 -2880.058380775   0.000000000000
 -2880.051237416   0.000000000000
 -2880.050896123   0.000000000000
 -2880.050885877   0.000000000000
 -2880.027467674   0.000000000000
 -2880.026107314   0.000000000000
 -2880.021288136   0.000000000000
 -2880.020771743   0.000000000000
 -2880.020744712   0.000000000000
 -2879.924543417   0.000000000000
 -2879.924323902   0.000000000000
 -2879.924270696   0.000000000000
 -2879.919983975   0.000000000000
 -2879.919835986   0.000000000000
 -2879.919239125   0.000000000000
 -2879.919226211   0.000000000000
 -2879.914557625   0.000000000000
 -2879.913248633   0.000000000000
 -2879.913192009   0.000000000000
   CI-PROBLEM SOLVED
   DENSITIES MADE

                 <<<<<<<<<<<<<<<<<<INITIAL CI STATE CHECK>>>>>>>>>>>>>>>>>>

BLOCK  1 MULT= 5 NROOTS= 5 
ROOT   0:  E=   -2880.1859578877 Eh
      0.62813 [     0]: 11112
      0.23771 [     1]: 11121
      0.12815 [     2]: 11211
      0.00601 [     4]: 21111
ROOT   1:  E=   -2880.1854134302 Eh  0.015 eV    119.5 cm**-1
      0.38488 [     1]: 11121
      0.31333 [     0]: 11112
      0.21544 [     4]: 21111
      0.08635 [     2]: 11211
ROOT   2:  E=   -2880.1760658478 Eh  0.269 eV   2171.1 cm**-1
      0.68284 [     2]: 11211
      0.29500 [     1]: 11121
      0.01938 [     4]: 21111
      0.00278 [     0]: 11112
ROOT   3:  E=   -2880.1743297591 Eh  0.316 eV   2552.1 cm**-1
      0.75912 [     4]: 21111
      0.10265 [     2]: 11211
      0.08241 [     1]: 11121
      0.05575 [     0]: 11112
ROOT   4:  E=   -2880.1742454848 Eh  0.319 eV   2570.6 cm**-1
      0.99993 [     3]: 12111

BLOCK  2 MULT= 3 NROOTS=45 
ROOT   0:  E=   -2880.0953111115 Eh
      0.40976 [     6]: 10122
      0.13387 [     7]: 10212
      0.11919 [    22]: 20112
      0.05230 [     2]: 01221
      0.04928 [    28]: 21111
      0.03329 [    11]: 11121
      0.02554 [    19]: 12120
      0.02297 [    17]: 12102
      0.02250 [    26]: 21021
      0.02151 [    23]: 20121
      0.01523 [    24]: 20211
      0.01232 [     3]: 02112
      0.01104 [    18]: 12111
      0.00883 [    13]: 11211
      0.00838 [    15]: 12012
      0.00792 [    21]: 12210
      0.00787 [    14]: 11220
      0.00607 [    20]: 12201
      0.00579 [    32]: 22011
      0.00538 [     8]: 10221
      0.00335 [    34]: 22110
      0.00317 [    25]: 21012
      0.00307 [    33]: 22101
      0.00275 [     9]: 11022
      0.00253 [    30]: 21201
ROOT   1:  E=   -2880.0952403787 Eh  0.002 eV     15.5 cm**-1
      0.27484 [     0]: 01122
      0.21979 [    10]: 11112
      0.08090 [     1]: 01212
      0.06531 [    11]: 11121
      0.04720 [     7]: 10212
      0.04495 [     9]: 11022
      0.04110 [    15]: 12012
      0.03498 [    13]: 11211
      0.03073 [     6]: 10122
      0.02138 [    12]: 11202
      0.02035 [    17]: 12102
      0.01972 [    28]: 21111
      0.01703 [    29]: 21120
      0.01260 [    26]: 21021
      0.01010 [     8]: 10221
      0.00850 [    24]: 20211
      0.00729 [    16]: 12021
      0.00717 [    31]: 21210
      0.00711 [    23]: 20121
      0.00708 [    32]: 22011
      0.00574 [    30]: 21201
      0.00410 [    33]: 22101
      0.00343 [     2]: 01221
ROOT   2:  E=   -2880.0938375110 Eh  0.040 eV    323.4 cm**-1
      0.31860 [    10]: 11112
      0.19976 [     9]: 11022
      0.08364 [    25]: 21012
      0.05608 [     3]: 02112
      0.04417 [    22]: 20112
      0.03086 [    14]: 11220
      0.02956 [    23]: 20121
      0.02348 [    27]: 21102
      0.01974 [     4]: 02121
      0.01797 [    13]: 11211
      0.01767 [    28]: 21111
      0.01737 [    24]: 20211
      0.01680 [    11]: 11121
      0.01348 [     6]: 10122
      0.01307 [     5]: 02211
      0.01293 [    26]: 21021
      0.01284 [     7]: 10212
      0.01048 [     1]: 01212
      0.00943 [    29]: 21120
      0.00872 [    15]: 12012
      0.00787 [    17]: 12102
      0.00772 [    18]: 12111
      0.00649 [    31]: 21210
      0.00561 [     2]: 01221
      0.00391 [     0]: 01122
      0.00264 [    12]: 11202
ROOT   3:  E=   -2880.0893895990 Eh  0.161 eV   1299.6 cm**-1
      0.24010 [    11]: 11121
      0.13046 [    10]: 11112
      0.12618 [     9]: 11022
      0.10714 [    13]: 11211
      0.09796 [    28]: 21111
      0.08707 [    12]: 11202
      0.03747 [    24]: 20211
      0.03137 [     5]: 02211
      0.01934 [    26]: 21021
      0.01579 [     4]: 02121
      0.01427 [    23]: 20121
      0.01308 [     1]: 01212
      0.01249 [    29]: 21120
      0.01171 [    31]: 21210
      0.01164 [     8]: 10221
      0.01123 [    30]: 21201
      0.00646 [    18]: 12111
      0.00541 [    27]: 21102
      0.00361 [    14]: 11220
      0.00354 [    20]: 12201
ROOT   4:  E=   -2880.0892697628 Eh  0.164 eV   1325.9 cm**-1
      0.34442 [    10]: 11112
      0.13443 [    11]: 11121
      0.09568 [     0]: 01122
      0.07398 [    28]: 21111
      0.06407 [    13]: 11211
      0.04421 [     1]: 01212
      0.03371 [    32]: 22011
      0.03045 [    26]: 21021
      0.02465 [    27]: 21102
      0.02318 [    29]: 21120
      0.01955 [    18]: 12111
      0.01802 [    33]: 22101
      0.01731 [    30]: 21201
      0.01168 [    31]: 21210
      0.01045 [    25]: 21012
      0.01013 [    24]: 20211
      0.00997 [     5]: 02211
      0.00660 [    12]: 11202
      0.00545 [     4]: 02121
      0.00487 [    23]: 20121
      0.00344 [     8]: 10221
      0.00336 [    15]: 12012
ROOT   5:  E=   -2880.0853376544 Eh  0.271 eV   2188.9 cm**-1
      0.49076 [     8]: 10221
      0.12650 [    28]: 21111
      0.08739 [    23]: 20121
      0.07374 [    24]: 20211
      0.03059 [    10]: 11112
      0.02308 [     7]: 10212
      0.02157 [    20]: 12201
      0.02023 [    11]: 11121
      0.01988 [     6]: 10122
      0.01864 [    13]: 11211
      0.01378 [     0]: 01122
      0.01157 [    16]: 12021
      0.00957 [    29]: 21120
      0.00633 [     9]: 11022
      0.00630 [     5]: 02211
      0.00578 [    30]: 21201
      0.00481 [    26]: 21021
      0.00398 [    12]: 11202
      0.00380 [    31]: 21210
      0.00366 [     4]: 02121
      0.00360 [     1]: 01212
      0.00338 [    21]: 12210
      0.00290 [    33]: 22101
ROOT   6:  E=   -2880.0852464016 Eh  0.274 eV   2208.9 cm**-1
      0.22188 [     1]: 01212
      0.12746 [    13]: 11211
      0.12583 [    18]: 12111
      0.10607 [     0]: 01122
      0.08846 [    11]: 11121
      0.06410 [    10]: 11112
      0.06018 [     2]: 01221
      0.02806 [    12]: 11202
      0.02778 [     6]: 10122
      0.02035 [    14]: 11220
      0.01698 [    34]: 22110
      0.01458 [     9]: 11022
      0.01348 [     3]: 02112
      0.01077 [    28]: 21111
      0.00913 [     5]: 02211
      0.00786 [    32]: 22011
      0.00701 [    22]: 20112
      0.00610 [     7]: 10212
      0.00595 [    27]: 21102
      0.00578 [     4]: 02121
      0.00515 [    15]: 12012
      0.00506 [    33]: 22101
      0.00355 [    16]: 12021
      0.00340 [    31]: 21210
      0.00330 [    17]: 12102
      0.00302 [    20]: 12201
      0.00279 [    21]: 12210
ROOT   7:  E=   -2880.0844464676 Eh  0.296 eV   2384.5 cm**-1
      0.31529 [    23]: 20121
      0.12789 [    24]: 20211
      0.11557 [    13]: 11211
      0.08799 [     3]: 02112
      0.03745 [     2]: 01221
      0.03678 [    11]: 11121
      0.02647 [    33]: 22101
      0.02583 [    28]: 21111
      0.02142 [    14]: 11220
      0.02094 [    18]: 12111
      0.01956 [    10]: 11112
      0.01879 [     4]: 02121
      0.01627 [    32]: 22011
      0.01384 [     6]: 10122
      0.01342 [    30]: 21201
      0.01295 [     1]: 01212
      0.01101 [    22]: 20112
      0.01101 [    31]: 21210
      0.00951 [    29]: 21120
      0.00791 [    12]: 11202
      0.00786 [     8]: 10221
      0.00702 [    15]: 12012
      0.00582 [    34]: 22110
      0.00580 [     0]: 01122
      0.00503 [    19]: 12120
      0.00388 [    17]: 12102
      0.00340 [     7]: 10212
      0.00337 [    26]: 21021
      0.00262 [    21]: 12210
      0.00256 [     5]: 02211
ROOT   8:  E=   -2880.0841974941 Eh  0.302 eV   2439.2 cm**-1
      0.30641 [     3]: 02112
      0.11479 [    13]: 11211
      0.10367 [    18]: 12111
      0.10020 [    23]: 20121
      0.04787 [    15]: 12012
      0.04438 [    17]: 12102
      0.04165 [    11]: 11121
      0.03823 [    24]: 20211
      0.02784 [     9]: 11022
      0.02295 [     2]: 01221
      0.01850 [    10]: 11112
      0.01526 [    30]: 21201
      0.01191 [    31]: 21210
      0.01094 [     0]: 01122
      0.01045 [     6]: 10122
      0.00964 [     1]: 01212
      0.00903 [    26]: 21021
      0.00867 [    25]: 21012
      0.00857 [    12]: 11202
      0.00818 [    34]: 22110
      0.00711 [    28]: 21111
      0.00582 [    29]: 21120
      0.00506 [     7]: 10212
      0.00424 [    19]: 12120
      0.00396 [    27]: 21102
      0.00270 [     8]: 10221
ROOT   9:  E=   -2880.0824205835 Eh  0.351 eV   2829.1 cm**-1
      0.22756 [    28]: 21111
      0.14763 [    18]: 12111
      0.12891 [    25]: 21012
      0.09066 [    10]: 11112
      0.09030 [    26]: 21021
      0.06846 [    27]: 21102
      0.04508 [    16]: 12021
      0.03957 [     9]: 11022
      0.03703 [    20]: 12201
      0.01559 [     6]: 10122
      0.01228 [     2]: 01221
      0.01082 [    12]: 11202
      0.00988 [    21]: 12210
      0.00973 [    15]: 12012
      0.00811 [    14]: 11220
      0.00768 [    11]: 11121
      0.00719 [    31]: 21210
      0.00663 [    29]: 21120
      0.00605 [    13]: 11211
      0.00568 [     7]: 10212
      0.00468 [    22]: 20112
      0.00444 [    19]: 12120
      0.00402 [    30]: 21201
      0.00369 [     5]: 02211
      0.00292 [    32]: 22011
ROOT  10:  E=   -2880.0823799128 Eh  0.352 eV   2838.1 cm**-1
      0.31025 [    15]: 12012
      0.14339 [    17]: 12102
      0.12589 [    18]: 12111
      0.07542 [    30]: 21201
      0.06745 [    26]: 21021
      0.04778 [    16]: 12021
      0.03258 [    11]: 11121
      0.03234 [    28]: 21111
      0.02414 [    21]: 12210
      0.02250 [     0]: 01122
      0.01808 [    19]: 12120
      0.01729 [    25]: 21012
      0.01086 [     7]: 10212
      0.00891 [     3]: 02112
      0.00891 [    13]: 11211
      0.00785 [    27]: 21102
      0.00685 [    20]: 12201
      0.00678 [    31]: 21210
      0.00611 [    12]: 11202
      0.00592 [     1]: 01212
      0.00537 [    29]: 21120
      0.00460 [     6]: 10122
      0.00395 [     9]: 11022
ROOT  11:  E=   -2880.0751403744 Eh  0.549 eV   4427.0 cm**-1
      0.41457 [    13]: 11211
      0.16083 [    11]: 11121
      0.08135 [     9]: 11022
      0.04979 [    31]: 21210
      0.03741 [     3]: 02112
      0.02863 [    29]: 21120
      0.02794 [    14]: 11220
      0.02591 [    10]: 11112
      0.02351 [     1]: 01212
      0.01824 [    23]: 20121
      0.01184 [    25]: 21012
      0.01148 [    33]: 22101
      0.01099 [    24]: 20211
      0.00982 [    22]: 20112
      0.00970 [    28]: 21111
      0.00957 [    26]: 21021
      0.00941 [    34]: 22110
      0.00928 [    18]: 12111
      0.00797 [    12]: 11202
      0.00700 [    27]: 21102
      0.00524 [    30]: 21201
      0.00474 [     6]: 10122
      0.00413 [     7]: 10212
      0.00355 [    20]: 12201
      0.00300 [     0]: 01122
      0.00271 [    21]: 12210
      0.00265 [    15]: 12012
ROOT  12:  E=   -2880.0750723248 Eh  0.551 eV   4441.9 cm**-1
      0.27221 [    11]: 11121
      0.21187 [    10]: 11112
      0.07722 [    13]: 11211
      0.07431 [    28]: 21111
      0.04742 [    12]: 11202
      0.04173 [     5]: 02211
      0.03948 [    25]: 21012
      0.03904 [    24]: 20211
      0.03504 [     9]: 11022
      0.03339 [     1]: 01212
      0.03044 [    32]: 22011
      0.01593 [    23]: 20121
      0.01257 [     8]: 10221
      0.01136 [    27]: 21102
      0.01117 [     4]: 02121
      0.01025 [    20]: 12201
      0.00895 [    16]: 12021
      0.00786 [    33]: 22101
      0.00543 [     0]: 01122
      0.00260 [     7]: 10212
ROOT  13:  E=   -2880.0740286396 Eh  0.579 eV   4671.0 cm**-1
      0.36510 [    28]: 21111
      0.12710 [    29]: 21120
      0.06790 [    31]: 21210
      0.06188 [    13]: 11211
      0.05952 [     0]: 01122
      0.05295 [    11]: 11121
      0.03247 [    10]: 11112
      0.02675 [    15]: 12012
      0.02635 [     7]: 10212
      0.02634 [    20]: 12201
      0.02188 [    18]: 12111
      0.01961 [     1]: 01212
      0.01791 [    27]: 21102
      0.01595 [     9]: 11022
      0.01173 [    17]: 12102
      0.01086 [    25]: 21012
      0.00879 [     6]: 10122
      0.00869 [    12]: 11202
      0.00697 [     8]: 10221
      0.00519 [    24]: 20211
      0.00469 [    32]: 22011
      0.00467 [    21]: 12210
      0.00465 [     5]: 02211
      0.00321 [    23]: 20121
ROOT  14:  E=   -2880.0739700713 Eh  0.581 eV   4683.8 cm**-1
      0.17539 [    17]: 12102
      0.12764 [     3]: 02112
      0.06987 [    20]: 12201
      0.06797 [    18]: 12111
      0.06331 [    34]: 22110
      0.06014 [    16]: 12021
      0.05546 [    15]: 12012
      0.05502 [     6]: 10122
      0.05088 [    19]: 12120
      0.04561 [    31]: 21210
      0.03352 [     2]: 01221
      0.02570 [    32]: 22011
      0.01847 [    26]: 21021
      0.01755 [    28]: 21111
      0.01699 [    33]: 22101
      0.01598 [    11]: 11121
      0.01546 [     7]: 10212
      0.01528 [     5]: 02211
      0.01507 [    22]: 20112
      0.01483 [    21]: 12210
      0.01183 [    29]: 21120
      0.00718 [     4]: 02121
      0.00443 [    13]: 11211
      0.00329 [    23]: 20121
      0.00271 [    14]: 11220
      0.00258 [     1]: 01212
ROOT  15:  E=   -2880.0706090668 Eh  0.672 eV   5421.5 cm**-1
      0.31525 [    13]: 11211
      0.11343 [    11]: 11121
      0.09424 [     3]: 02112
      0.09036 [    23]: 20121
      0.07948 [     2]: 01221
      0.04705 [    28]: 21111
      0.03867 [    24]: 20211
      0.03008 [    30]: 21201
      0.02860 [    34]: 22110
      0.02028 [    31]: 21210
      0.01748 [    18]: 12111
      0.01738 [    15]: 12012
      0.01628 [    17]: 12102
      0.01347 [     1]: 01212
      0.01180 [    14]: 11220
      0.01165 [    26]: 21021
      0.00918 [    10]: 11112
      0.00908 [     0]: 01122
      0.00590 [     6]: 10122
      0.00523 [    29]: 21120
      0.00410 [    12]: 11202
      0.00350 [    33]: 22101
      0.00287 [    21]: 12210
ROOT  16:  E=   -2880.0691341261 Eh  0.712 eV   5745.2 cm**-1
      0.34236 [    28]: 21111
      0.10407 [    30]: 21201
      0.08574 [    15]: 12012
      0.07538 [    11]: 11121
      0.07048 [    26]: 21021
      0.06979 [     8]: 10221
      0.04776 [    13]: 11211
      0.03623 [    17]: 12102
      0.02962 [    21]: 12210
      0.02413 [    18]: 12111
      0.02144 [    10]: 11112
      0.01739 [    16]: 12021
      0.01248 [    23]: 20121
      0.01129 [    19]: 12120
      0.01044 [    24]: 20211
      0.00885 [     5]: 02211
      0.00830 [     9]: 11022
      0.00569 [    12]: 11202
      0.00316 [     7]: 10212
      0.00287 [     6]: 10122
      0.00265 [    31]: 21210
ROOT  17:  E=   -2880.0690708430 Eh  0.714 eV   5759.1 cm**-1
      0.23122 [    18]: 12111
      0.09813 [    20]: 12201
      0.08717 [    16]: 12021
      0.07909 [     4]: 02121
      0.07664 [    33]: 22101
      0.07404 [    26]: 21021
      0.05715 [    30]: 21201
      0.03536 [     1]: 01212
      0.03370 [    10]: 11112
      0.03233 [    25]: 21012
      0.02645 [     0]: 01122
      0.02444 [     2]: 01221
      0.02347 [    34]: 22110
      0.02186 [     5]: 02211
      0.02021 [    32]: 22011
      0.01934 [     3]: 02112
      0.01256 [    27]: 21102
      0.01060 [    21]: 12210
      0.01054 [    15]: 12012
      0.00665 [     9]: 11022
      0.00613 [    17]: 12102
      0.00333 [    13]: 11211
ROOT  18:  E=   -2880.0661696140 Eh  0.793 eV   6395.8 cm**-1
      0.41607 [    10]: 11112
      0.21031 [    11]: 11121
      0.14002 [    13]: 11211
      0.08783 [    26]: 21021
      0.03667 [    30]: 21201
      0.03017 [     0]: 01122
      0.01424 [    28]: 21111
      0.01406 [     9]: 11022
      0.01231 [    12]: 11202
      0.01133 [    29]: 21120
      0.01107 [     2]: 01221
      0.00661 [     1]: 01212
      0.00451 [    27]: 21102
      0.00296 [    31]: 21210
ROOT  19:  E=   -2880.0609351667 Eh  0.935 eV   7544.6 cm**-1
      0.19744 [    11]: 11121
      0.13958 [    24]: 20211
      0.11903 [     5]: 02211
      0.09063 [    10]: 11112
      0.07211 [    13]: 11211
      0.05295 [     4]: 02121
      0.04663 [    23]: 20121
      0.04105 [     8]: 10221
      0.03708 [    28]: 21111
      0.03598 [    27]: 21102
      0.02846 [    25]: 21012
      0.02430 [    18]: 12111
      0.01909 [     9]: 11022
      0.01360 [    20]: 12201
      0.01234 [    29]: 21120
      0.00888 [    12]: 11202
      0.00865 [     1]: 01212
      0.00860 [    21]: 12210
      0.00771 [    16]: 12021
      0.00725 [     7]: 10212
      0.00612 [     0]: 01122
      0.00559 [    31]: 21210
      0.00524 [     6]: 10122
      0.00389 [    19]: 12120
ROOT  20:  E=   -2880.0607296746 Eh  0.941 eV   7589.7 cm**-1
      0.22725 [    13]: 11211
      0.11471 [    11]: 11121
      0.10792 [    14]: 11220
      0.09773 [    22]: 20112
      0.06891 [    28]: 21111
      0.04596 [    10]: 11112
      0.04462 [    18]: 12111
      0.03596 [     4]: 02121
      0.03523 [     2]: 01221
      0.03412 [     3]: 02112
      0.02782 [    30]: 21201
      0.01800 [     7]: 10212
      0.01662 [    29]: 21120
      0.01560 [     5]: 02211
      0.01403 [     6]: 10122
      0.01260 [    31]: 21210
      0.01018 [    26]: 21021
      0.00917 [    16]: 12021
      0.00846 [    19]: 12120
      0.00801 [    20]: 12201
      0.00624 [    21]: 12210
      0.00623 [    34]: 22110
      0.00616 [    33]: 22101
      0.00560 [     9]: 11022
      0.00532 [    24]: 20211
      0.00430 [    25]: 21012
      0.00318 [    23]: 20121
      0.00263 [     1]: 01212
ROOT  21:  E=   -2880.0602419793 Eh  0.954 eV   7696.8 cm**-1
      0.33758 [    31]: 21210
      0.12428 [    17]: 12102
      0.10279 [    29]: 21120
      0.08498 [     2]: 01221
      0.05171 [    14]: 11220
      0.05008 [    11]: 11121
      0.04374 [    26]: 21021
      0.04346 [     3]: 02112
      0.03800 [    13]: 11211
      0.03799 [    15]: 12012
      0.01996 [    30]: 21201
      0.01808 [    25]: 21012
      0.01388 [    28]: 21111
      0.00707 [    27]: 21102
      0.00576 [     1]: 01212
      0.00533 [    33]: 22101
      0.00428 [    20]: 12201
      0.00283 [    18]: 12111
ROOT  22:  E=   -2880.0602139340 Eh  0.955 eV   7702.9 cm**-1
      0.26888 [    18]: 12111
      0.16231 [    20]: 12201
      0.10690 [    29]: 21120
      0.07677 [     7]: 10212
      0.06872 [    21]: 12210
      0.04168 [    31]: 21210
      0.03512 [     5]: 02211
      0.03428 [    11]: 11121
      0.03348 [    15]: 12012
      0.03172 [     6]: 10122
      0.03014 [    19]: 12120
      0.02582 [    32]: 22011
      0.02006 [    28]: 21111
      0.01825 [    13]: 11211
      0.00925 [     4]: 02121
      0.00720 [    17]: 12102
      0.00495 [    30]: 21201
      0.00473 [    10]: 11112
      0.00323 [    24]: 20211
      0.00273 [     8]: 10221
      0.00259 [    14]: 11220
ROOT  23:  E=   -2880.0594334832 Eh  0.976 eV   7874.2 cm**-1
      0.15075 [    32]: 22011
      0.13170 [    11]: 11121
      0.08423 [    12]: 11202
      0.07719 [    33]: 22101
      0.07567 [    18]: 12111
      0.06463 [     9]: 11022
      0.06131 [     0]: 01122
      0.05941 [    10]: 11112
      0.04446 [    27]: 21102
      0.03798 [    24]: 20211
      0.03596 [    28]: 21111
      0.03484 [    13]: 11211
      0.03135 [     5]: 02211
      0.02230 [     4]: 02121
      0.01354 [    23]: 20121
      0.01321 [    15]: 12012
      0.01256 [     1]: 01212
      0.01143 [     8]: 10221
      0.00729 [    16]: 12021
      0.00558 [    25]: 21012
      0.00447 [     2]: 01221
      0.00434 [    17]: 12102
      0.00401 [    21]: 12210
ROOT  24:  E=   -2880.0586652853 Eh  0.997 eV   8042.8 cm**-1
      0.26026 [    28]: 21111
      0.10904 [    11]: 11121
      0.10491 [    20]: 12201
      0.07296 [    30]: 21201
      0.07039 [    29]: 21120
      0.04930 [    13]: 11211
      0.04399 [    26]: 21021
      0.03661 [    18]: 12111
      0.03337 [    31]: 21210
      0.02966 [    16]: 12021
      0.02591 [     7]: 10212
      0.02094 [    10]: 11112
      0.01541 [    21]: 12210
      0.01418 [    27]: 21102
      0.01332 [    17]: 12102
      0.01231 [     6]: 10122
      0.01086 [     5]: 02211
      0.01062 [     9]: 11022
      0.00965 [    19]: 12120
      0.00934 [     4]: 02121
      0.00914 [     0]: 01122
      0.00792 [    33]: 22101
      0.00740 [    15]: 12012
      0.00507 [     2]: 01221
      0.00405 [    12]: 11202
      0.00367 [     1]: 01212
      0.00258 [    25]: 21012
      0.00251 [    32]: 22011
ROOT  25:  E=   -2880.0586150417 Eh  0.999 eV   8053.9 cm**-1
      0.28708 [    18]: 12111
      0.15324 [    17]: 12102
      0.08611 [    31]: 21210
      0.04931 [    16]: 12021
      0.04888 [    14]: 11220
      0.04356 [    15]: 12012
      0.04312 [     5]: 02211
      0.03705 [    29]: 21120
      0.03014 [    20]: 12201
      0.02820 [    28]: 21111
      0.02555 [    32]: 22011
      0.02422 [    19]: 12120
      0.02279 [     6]: 10122
      0.02279 [    11]: 11121
      0.01560 [     2]: 01221
      0.01170 [     3]: 02112
      0.01097 [    13]: 11211
      0.00986 [     7]: 10212
      0.00840 [    25]: 21012
      0.00813 [    21]: 12210
      0.00778 [    26]: 21021
      0.00754 [    22]: 20112
      0.00560 [     4]: 02121
      0.00496 [     1]: 01212
ROOT  26:  E=   -2880.0583807747 Eh  1.005 eV   8105.3 cm**-1
      0.20190 [    33]: 22101
      0.19870 [    18]: 12111
      0.18001 [    34]: 22110
      0.11423 [    13]: 11211
      0.04353 [    11]: 11121
      0.04223 [    32]: 22011
      0.03171 [    20]: 12201
      0.02804 [    21]: 12210
      0.02654 [    19]: 12120
      0.02337 [     2]: 01221
      0.01392 [    28]: 21111
      0.01336 [    17]: 12102
      0.01336 [     3]: 02112
      0.01137 [     9]: 11022
      0.00996 [    16]: 12021
      0.00946 [    12]: 11202
      0.00920 [    22]: 20112
      0.00913 [     5]: 02211
      0.00397 [    30]: 21201
      0.00362 [    31]: 21210
      0.00256 [    15]: 12012
ROOT  27:  E=   -2880.0512374157 Eh  1.199 eV   9673.1 cm**-1
      0.19041 [    14]: 11220
      0.16796 [    34]: 22110
      0.09836 [    12]: 11202
      0.08017 [    10]: 11112
      0.06413 [    33]: 22101
      0.05093 [    18]: 12111
      0.03320 [    32]: 22011
      0.02975 [     3]: 02112
      0.02349 [    22]: 20112
      0.02323 [     2]: 01221
      0.02311 [    29]: 21120
      0.02213 [    13]: 11211
      0.02198 [     1]: 01212
      0.01652 [    21]: 12210
      0.01515 [     9]: 11022
      0.01442 [    31]: 21210
      0.01430 [    20]: 12201
      0.01356 [    30]: 21201
      0.01180 [    28]: 21111
      0.01150 [    23]: 20121
      0.01148 [     0]: 01122
      0.01117 [    19]: 12120
      0.00987 [    16]: 12021
      0.00748 [     4]: 02121
      0.00708 [    11]: 11121
      0.00643 [    24]: 20211
      0.00633 [     6]: 10122
      0.00608 [     7]: 10212
      0.00330 [     5]: 02211
ROOT  28:  E=   -2880.0508961230 Eh  1.209 eV   9748.0 cm**-1
      0.19360 [    21]: 12210
      0.14719 [    28]: 21111
      0.08331 [    29]: 21120
      0.08044 [    19]: 12120
      0.05601 [    10]: 11112
      0.04756 [    30]: 21201
      0.04731 [    27]: 21102
      0.03951 [    26]: 21021
      0.03620 [    18]: 12111
      0.03572 [    15]: 12012
      0.03298 [     5]: 02211
      0.02636 [     7]: 10212
      0.02514 [    31]: 21210
      0.01994 [    12]: 11202
      0.01645 [    20]: 12201
      0.01398 [     4]: 02121
      0.01245 [    17]: 12102
      0.01203 [     6]: 10122
      0.00954 [    13]: 11211
      0.00781 [    25]: 21012
      0.00755 [    34]: 22110
      0.00687 [     9]: 11022
      0.00679 [    32]: 22011
      0.00652 [     1]: 01212
      0.00625 [     0]: 01122
      0.00596 [    11]: 11121
      0.00341 [    24]: 20211
      0.00322 [    14]: 11220
      0.00267 [     3]: 02112
ROOT  29:  E=   -2880.0508858773 Eh  1.209 eV   9750.2 cm**-1
      0.35171 [    18]: 12111
      0.17962 [    28]: 21111
      0.14991 [    13]: 11211
      0.06627 [    30]: 21201
      0.04651 [    11]: 11121
      0.02287 [    33]: 22101
      0.02179 [     4]: 02121
      0.01883 [    21]: 12210
      0.01805 [    20]: 12201
      0.01491 [    16]: 12021
      0.01439 [    10]: 11112
      0.01397 [    15]: 12012
      0.01271 [     5]: 02211
      0.01075 [    32]: 22011
      0.00819 [    19]: 12120
      0.00743 [    17]: 12102
      0.00567 [    25]: 21012
      0.00563 [    14]: 11220
      0.00547 [     3]: 02112
      0.00546 [    26]: 21021
      0.00518 [    12]: 11202
      0.00433 [    34]: 22110
      0.00354 [     2]: 01221
      0.00349 [    31]: 21210
ROOT  30:  E=   -2880.0274676743 Eh  1.846 eV  14889.9 cm**-1
      0.21387 [    11]: 11121
      0.16158 [    10]: 11112
      0.12178 [    24]: 20211
      0.10289 [     5]: 02211
      0.06578 [    13]: 11211
      0.04426 [    28]: 21111
      0.03972 [     4]: 02121
      0.03575 [    25]: 21012
      0.03494 [    23]: 20121
      0.03355 [     8]: 10221
      0.02746 [    27]: 21102
      0.02537 [     1]: 01212
      0.02013 [    18]: 12111
      0.01284 [     0]: 01122
      0.01154 [    20]: 12201
      0.00750 [    21]: 12210
      0.00726 [     7]: 10212
      0.00584 [    26]: 21021
      0.00570 [    16]: 12021
      0.00413 [    12]: 11202
      0.00348 [     6]: 10122
      0.00309 [     9]: 11022
      0.00296 [    19]: 12120
      0.00275 [    29]: 21120
ROOT  31:  E=   -2880.0261073136 Eh  1.883 eV  15188.5 cm**-1
      0.16483 [    11]: 11121
      0.14146 [    10]: 11112
      0.13937 [    32]: 22011
      0.07090 [    18]: 12111
      0.06803 [    33]: 22101
      0.06091 [    13]: 11211
      0.05829 [    12]: 11202
      0.05037 [     9]: 11022
      0.04267 [    24]: 20211
      0.03323 [    28]: 21111
      0.03073 [     5]: 02211
      0.02650 [     4]: 02121
      0.02056 [    27]: 21102
      0.01515 [    26]: 21021
      0.01121 [     8]: 10221
      0.01109 [    15]: 12012
      0.01057 [    23]: 20121
      0.01023 [     0]: 01122
      0.00816 [     2]: 01221
      0.00557 [    16]: 12021
      0.00440 [    17]: 12102
      0.00396 [    21]: 12210
ROOT  32:  E=   -2880.0212881361 Eh  2.014 eV  16246.2 cm**-1
      0.17422 [    22]: 20112
      0.13078 [    14]: 11220
      0.12645 [    34]: 22110
      0.09709 [     4]: 02121
      0.09355 [    18]: 12111
      0.06550 [    12]: 11202
      0.05564 [    10]: 11112
      0.04231 [    13]: 11211
      0.02942 [     5]: 02211
      0.02784 [    16]: 12021
      0.02008 [    33]: 22101
      0.01957 [     7]: 10212
      0.01788 [    20]: 12201
      0.01711 [    11]: 11121
      0.01229 [    23]: 20121
      0.01166 [     6]: 10122
      0.01106 [     9]: 11022
      0.00886 [    29]: 21120
      0.00659 [    32]: 22011
      0.00652 [     1]: 01212
      0.00395 [    21]: 12210
      0.00335 [    31]: 21210
      0.00325 [     0]: 01122
ROOT  33:  E=   -2880.0207717434 Eh  2.028 eV  16359.5 cm**-1
      0.16838 [    28]: 21111
      0.11015 [    18]: 12111
      0.10838 [     7]: 10212
      0.09885 [    21]: 12210
      0.06778 [    29]: 21120
      0.06564 [    16]: 12021
      0.05664 [     8]: 10221
      0.04624 [    10]: 11112
      0.04152 [    27]: 21102
      0.04021 [     6]: 10122
      0.03823 [    19]: 12120
      0.03062 [    32]: 22011
      0.02237 [     5]: 02211
      0.02227 [    31]: 21210
      0.01206 [    33]: 22101
      0.00934 [    13]: 11211
      0.00896 [     1]: 01212
      0.00880 [    15]: 12012
      0.00733 [    12]: 11202
      0.00461 [    17]: 12102
      0.00442 [    30]: 21201
      0.00418 [    26]: 21021
      0.00381 [    11]: 11121
      0.00341 [    34]: 22110
      0.00289 [    22]: 20112
      0.00267 [    14]: 11220
      0.00250 [    25]: 21012
ROOT  34:  E=   -2880.0207447123 Eh  2.029 eV  16365.4 cm**-1
      0.16528 [    18]: 12111
      0.10543 [    28]: 21111
      0.10189 [    13]: 11211
      0.09708 [    25]: 21012
      0.06546 [     1]: 01212
      0.04643 [    16]: 12021
      0.04420 [     4]: 02121
      0.04307 [    33]: 22101
      0.04105 [     2]: 01221
      0.03818 [    20]: 12201
      0.03632 [    10]: 11112
      0.03434 [    30]: 21201
      0.03277 [    11]: 11121
      0.03193 [     0]: 01122
      0.03047 [    27]: 21102
      0.01544 [    32]: 22011
      0.01481 [     5]: 02211
      0.01431 [    26]: 21021
      0.00872 [    14]: 11220
      0.00821 [    17]: 12102
      0.00756 [    21]: 12210
      0.00518 [    19]: 12120
      0.00518 [    15]: 12012
      0.00278 [    31]: 21210
ROOT  35:  E=   -2879.9245434165 Eh  4.647 eV  37479.2 cm**-1
      0.21566 [    22]: 20112
      0.15870 [     4]: 02121
      0.06916 [    14]: 11220
      0.06368 [    23]: 20121
      0.05773 [    13]: 11211
      0.05000 [    12]: 11202
      0.04717 [     5]: 02211
      0.04445 [     9]: 11022
      0.03257 [    33]: 22101
      0.03127 [    18]: 12111
      0.02893 [    34]: 22110
      0.02261 [     3]: 02112
      0.02162 [    24]: 20211
      0.02069 [    11]: 11121
      0.01767 [    32]: 22011
      0.01648 [     7]: 10212
      0.01486 [     1]: 01212
      0.01460 [    16]: 12021
      0.01276 [    30]: 21201
      0.01225 [     0]: 01122
      0.00812 [    26]: 21021
      0.00709 [     6]: 10122
      0.00613 [    27]: 21102
      0.00554 [    28]: 21111
      0.00536 [    25]: 21012
      0.00464 [    29]: 21120
      0.00433 [    19]: 12120
ROOT  36:  E=   -2879.9243239023 Eh  4.653 eV  37527.4 cm**-1
      0.18761 [     7]: 10212
      0.15631 [     8]: 10221
      0.12467 [    16]: 12021
      0.07061 [    28]: 21111
      0.06365 [     6]: 10122
      0.04401 [    27]: 21102
      0.04279 [    20]: 12201
      0.04119 [     0]: 01122
      0.03844 [    29]: 21120
      0.03826 [    21]: 12210
      0.03375 [    18]: 12111
      0.02096 [    25]: 21012
      0.01641 [    32]: 22011
      0.01456 [     1]: 01212
      0.01387 [    31]: 21210
      0.01238 [    33]: 22101
      0.01018 [    15]: 12012
      0.01004 [    11]: 11121
      0.00941 [    13]: 11211
      0.00898 [    30]: 21201
      0.00885 [    19]: 12120
      0.00602 [    23]: 20121
      0.00546 [    22]: 20112
      0.00542 [    10]: 11112
      0.00415 [    12]: 11202
      0.00320 [     4]: 02121
      0.00259 [    17]: 12102
ROOT  37:  E=   -2879.9242706963 Eh  4.654 eV  37539.0 cm**-1
      0.15107 [     1]: 01212
      0.14887 [    25]: 21012
      0.12393 [     2]: 01221
      0.05692 [    12]: 11202
      0.05237 [    18]: 12111
      0.04620 [    17]: 12102
      0.04366 [     9]: 11022
      0.04312 [    27]: 21102
      0.04263 [     0]: 01122
      0.02898 [    14]: 11220
      0.02775 [    19]: 12120
      0.02737 [     6]: 10122
      0.02424 [    34]: 22110
      0.02073 [     5]: 02211
      0.01779 [    31]: 21210
      0.01729 [    28]: 21111
      0.01726 [    15]: 12012
      0.01509 [     4]: 02121
      0.01364 [    11]: 11121
      0.01282 [    30]: 21201
      0.01117 [     7]: 10212
      0.01013 [    21]: 12210
      0.01013 [    16]: 12021
      0.00823 [    22]: 20112
      0.00620 [    13]: 11211
      0.00471 [    29]: 21120
      0.00457 [    32]: 22011
      0.00395 [    20]: 12201
      0.00289 [     3]: 02112
ROOT  38:  E=   -2879.9199839749 Eh  4.771 eV  38479.9 cm**-1
      0.16563 [    32]: 22011
      0.15706 [    24]: 20211
      0.15366 [     5]: 02211
      0.06188 [    11]: 11121
      0.05425 [    33]: 22101
      0.05117 [     4]: 02121
      0.04954 [    10]: 11112
      0.04749 [    16]: 12021
      0.04642 [    23]: 20121
      0.04567 [    20]: 12201
      0.04392 [     8]: 10221
      0.01892 [    13]: 11211
      0.01671 [    28]: 21111
      0.01218 [    12]: 11202
      0.00967 [     9]: 11022
      0.00948 [    15]: 12012
      0.00845 [    25]: 21012
      0.00820 [    21]: 12210
      0.00816 [     7]: 10212
      0.00669 [     1]: 01212
      0.00556 [    19]: 12120
      0.00549 [    17]: 12102
      0.00532 [     6]: 10122
ROOT  39:  E=   -2879.9198359862 Eh  4.775 eV  38512.3 cm**-1
      0.18900 [    22]: 20112
      0.13722 [    34]: 22110
      0.11214 [     4]: 02121
      0.08920 [    33]: 22101
      0.05341 [    32]: 22011
      0.04812 [    19]: 12120
      0.04790 [     5]: 02211
      0.04506 [    13]: 11211
      0.04267 [     3]: 02112
      0.04075 [    21]: 12210
      0.03269 [     7]: 10212
      0.02743 [     6]: 10122
      0.02351 [    14]: 11220
      0.02002 [    17]: 12102
      0.01688 [    15]: 12012
      0.01673 [    11]: 11121
      0.00963 [    10]: 11112
      0.00937 [    12]: 11202
      0.00881 [    18]: 12111
      0.00692 [    23]: 20121
      0.00658 [    24]: 20211
      0.00335 [     2]: 01221
      0.00326 [    16]: 12021
      0.00297 [    28]: 21111
ROOT  40:  E=   -2879.9192391252 Eh  4.791 eV  38643.3 cm**-1
      0.24267 [    30]: 21201
      0.17322 [    26]: 21021
      0.16766 [     2]: 01221
      0.08770 [    25]: 21012
      0.05154 [    20]: 12201
      0.04898 [    27]: 21102
      0.03854 [    33]: 22101
      0.03405 [    18]: 12111
      0.03240 [    19]: 12120
      0.02147 [    17]: 12102
      0.01742 [     6]: 10122
      0.01633 [    10]: 11112
      0.01149 [    31]: 21210
      0.00807 [     7]: 10212
      0.00777 [     5]: 02211
      0.00721 [    21]: 12210
      0.00700 [    28]: 21111
      0.00546 [    13]: 11211
      0.00352 [    14]: 11220
      0.00306 [    15]: 12012
      0.00256 [    12]: 11202
ROOT  41:  E=   -2879.9192262112 Eh  4.792 eV  38646.2 cm**-1
      0.15045 [    16]: 12021
      0.15037 [    21]: 12210
      0.09982 [     7]: 10212
      0.06924 [    15]: 12012
      0.06575 [    28]: 21111
      0.05647 [    19]: 12120
      0.05613 [    32]: 22011
      0.04460 [    26]: 21021
      0.03901 [     4]: 02121
      0.03493 [    29]: 21120
      0.03358 [     6]: 10122
      0.02967 [    20]: 12201
      0.02864 [     2]: 01221
      0.02043 [    17]: 12102
      0.01489 [     5]: 02211
      0.01359 [    27]: 21102
      0.01260 [    33]: 22101
      0.01033 [    10]: 11112
      0.00990 [    24]: 20211
      0.00929 [    18]: 12111
      0.00920 [    30]: 21201
      0.00869 [    11]: 11121
      0.00767 [    13]: 11211
      0.00436 [    23]: 20121
      0.00379 [    31]: 21210
      0.00318 [     0]: 01122
      0.00314 [     3]: 02112
      0.00308 [    34]: 22110
      0.00295 [    22]: 20112
ROOT  42:  E=   -2879.9145576254 Eh  4.919 eV  39670.8 cm**-1
      0.19835 [    12]: 11202
      0.15638 [    14]: 11220
      0.12627 [    13]: 11211
      0.07448 [     2]: 01221
      0.06194 [     9]: 11022
      0.05572 [     1]: 01212
      0.04831 [    10]: 11112
      0.03444 [     4]: 02121
      0.03407 [    33]: 22101
      0.03392 [    11]: 11121
      0.03224 [    22]: 20112
      0.02816 [     0]: 01122
      0.02799 [    34]: 22110
      0.01528 [    29]: 21120
      0.01461 [     5]: 02211
      0.01182 [    27]: 21102
      0.01064 [    32]: 22011
      0.00865 [    31]: 21210
      0.00636 [    28]: 21111
      0.00344 [    18]: 12111
      0.00333 [     7]: 10212
      0.00300 [    23]: 20121
ROOT  43:  E=   -2879.9132486325 Eh  4.954 eV  39958.1 cm**-1
      0.34606 [    27]: 21102
      0.12293 [    25]: 21012
      0.06700 [    28]: 21111
      0.06564 [    29]: 21120
      0.05573 [    20]: 12201
      0.05526 [    10]: 11112
      0.05089 [    16]: 12021
      0.03763 [     0]: 01122
      0.02683 [     1]: 01212
      0.02607 [    31]: 21210
      0.02469 [    26]: 21021
      0.02143 [    12]: 11202
      0.01765 [    30]: 21201
      0.01168 [    11]: 11121
      0.01010 [     8]: 10221
      0.00993 [     7]: 10212
      0.00761 [    33]: 22101
      0.00654 [     4]: 02121
      0.00612 [    32]: 22011
      0.00577 [     5]: 02211
      0.00468 [    13]: 11211
      0.00434 [     6]: 10122
      0.00383 [    15]: 12012
      0.00296 [    21]: 12210
ROOT  44:  E=   -2879.9131920092 Eh  4.956 eV  39970.5 cm**-1
      0.43106 [    19]: 12120
      0.12545 [    21]: 12210
      0.11216 [    34]: 22110
      0.04962 [    31]: 21210
      0.04320 [    18]: 12111
      0.02937 [    25]: 21012
      0.02790 [    17]: 12102
      0.02058 [     6]: 10122
      0.01842 [    14]: 11220
      0.01402 [    32]: 22011
      0.01373 [     1]: 01212
      0.01164 [     4]: 02121
      0.01118 [    29]: 21120
      0.01047 [     3]: 02112
      0.01041 [    28]: 21111
      0.00982 [    15]: 12012
      0.00758 [    33]: 22101
      0.00743 [    27]: 21102
      0.00655 [    26]: 21021
      0.00628 [     7]: 10212
      0.00578 [    22]: 20112
      0.00512 [    11]: 11121
      0.00338 [    20]: 12201
      0.00318 [    12]: 11202
      0.00305 [     0]: 01122
      0.00296 [    13]: 11211
      0.00270 [     2]: 01221

                 <<<<<<<<<<<<<<<<<<INITIAL CI STATE CHECK>>>>>>>>>>>>>>>>>>

   E(CAS)= -2880.106037995 Eh DE=    0.000000e+00
   --- Energy gap subspaces: Ext-Act = 0.225   Act-Int = -0.040
   N(occ)=  1.20000 1.20000 1.20000 1.20000 1.20000
   ||g|| =     4.294746e-04 Max(G)=    7.431362e-05 Rot=125,123
                     ---- THE CAS-SCF GRADIENT HAS CONVERGED ----
                            --- FINALIZING ORBITALS ---
                    ---- DOING ONE FINAL ITERATION FOR PRINTING ----
   --- Forming Natural Orbitals
   --- Canonicalize Internal Space
   --- Canonicalize External Space

MACRO-ITERATION   2: 
   --- Inactive Energy E0 = -2864.32373190 Eh
   --- All densities will be recomputed
CI-ITERATION   0: 
 -2880.185957889   0.000000000000 (    0.00)
 -2880.185413432   0.000000000000
 -2880.176065849   0.000000000000
 -2880.174329761   0.000000000000
 -2880.174245486   0.000000000000
   CI-PROBLEM SOLVED
   DENSITIES MADE
CI-ITERATION   0: 
 -2880.095311113   0.000000000000 (    0.00)
 -2880.095240380   0.000000000000
 -2880.093837513   0.000000000000
 -2880.089389600   0.000000000000
 -2880.089269764   0.000000000000
 -2880.085337656   0.000000000000
 -2880.085246403   0.000000000000
 -2880.084446469   0.000000000000
 -2880.084197495   0.000000000000
 -2880.082420585   0.000000000000
 -2880.082379914   0.000000000000
 -2880.075140376   0.000000000000
 -2880.075072326   0.000000000000
 -2880.074028641   0.000000000000
 -2880.073970072   0.000000000000
 -2880.070609068   0.000000000000
 -2880.069134128   0.000000000000
 -2880.069070844   0.000000000000
 -2880.066169615   0.000000000000
 -2880.060935168   0.000000000000
 -2880.060729676   0.000000000000
 -2880.060241980   0.000000000000
 -2880.060213935   0.000000000000
 -2880.059433485   0.000000000000
 -2880.058665287   0.000000000000
 -2880.058615043   0.000000000000
 -2880.058380776   0.000000000000
 -2880.051237417   0.000000000000
 -2880.050896124   0.000000000000
 -2880.050885878   0.000000000000
 -2880.027467675   0.000000000000
 -2880.026107315   0.000000000000
 -2880.021288137   0.000000000000
 -2880.020771745   0.000000000000
 -2880.020744713   0.000000000000
 -2879.924543418   0.000000000000
 -2879.924323904   0.000000000000
 -2879.924270697   0.000000000000
 -2879.919983976   0.000000000000
 -2879.919835987   0.000000000000
 -2879.919239127   0.000000000000
 -2879.919226212   0.000000000000
 -2879.914557626   0.000000000000
 -2879.913248634   0.000000000000
 -2879.913192010   0.000000000000
   CI-PROBLEM SOLVED
   DENSITIES MADE
   E(CAS)= -2880.106037996 Eh DE=   -1.258286e-09
   --- Energy gap subspaces: Ext-Act = 0.225   Act-Int = -0.040
   N(occ)=  1.20000 1.20000 1.20000 1.20000 1.20000
   ||g|| =     4.294747e-04 Max(G)=    7.291180e-05 Rot=127,123
--------------
CASSCF RESULTS
--------------

Final CASSCF energy       : -2880.106037996 Eh  -78371.6696 eV

----------------
ORBITAL ENERGIES
----------------

  NO   OCC          E(Eh)            E(eV) 
   0   2.0000    -261.400157     -7113.0599 
   1   2.0000     -31.960519      -869.6899 
   2   2.0000     -27.440727      -746.7001 
   3   2.0000     -27.440724      -746.7000 
   4   2.0000     -27.440668      -746.6985 
   5   2.0000      -4.714065      -128.2762 
   6   2.0000      -4.713897      -128.2717 
   7   2.0000      -4.713874      -128.2710 
   8   2.0000      -4.713826      -128.2697 
   9   2.0000      -4.713679      -128.2657 
  10   2.0000      -4.713675      -128.2656 
  11   2.0000      -4.713645      -128.2648 
  12   2.0000      -4.713495      -128.2607 
  13   2.0000      -4.713482      -128.2604 
  14   2.0000      -4.713460      -128.2598 
  15   2.0000      -4.713437      -128.2592 
  16   2.0000      -4.713425      -128.2588 
  17   2.0000      -4.194182      -114.1295 
  18   2.0000      -2.773599       -75.4735 
  19   2.0000      -2.773506       -75.4709 
  20   2.0000      -2.773486       -75.4704 
  21   2.0000      -2.754791       -74.9617 
  22   2.0000      -2.754350       -74.9497 
  23   2.0000      -2.754132       -74.9437 
  24   2.0000      -2.753986       -74.9398 
  25   2.0000      -2.753978       -74.9396 
  26   2.0000      -2.753515       -74.9269 
  27   2.0000      -2.753501       -74.9266 
  28   2.0000      -2.753217       -74.9189 
  29   2.0000      -2.752054       -74.8872 
  30   2.0000      -2.751762       -74.8792 
  31   2.0000      -2.751742       -74.8787 
  32   2.0000      -2.751539       -74.8732 
  33   2.0000      -2.751226       -74.8647 
  34   2.0000      -2.750245       -74.8380 
  35   2.0000      -2.750175       -74.8361 
  36   2.0000      -2.750006       -74.8315 
  37   2.0000      -2.749988       -74.8310 
  38   2.0000      -2.749362       -74.8139 
  39   2.0000      -2.749352       -74.8137 
  40   2.0000      -2.749201       -74.8096 
  41   2.0000      -2.749188       -74.8092 
  42   2.0000      -2.748432       -74.7886 
  43   2.0000      -2.747626       -74.7667 
  44   2.0000      -2.746916       -74.7474 
  45   2.0000      -2.746023       -74.7231 
  46   2.0000      -2.745788       -74.7167 
  47   2.0000      -2.745619       -74.7121 
  48   2.0000      -2.745598       -74.7115 
  49   2.0000      -2.745400       -74.7061 
  50   2.0000      -2.745340       -74.7045 
  51   2.0000      -2.745326       -74.7041 
  52   2.0000      -2.745269       -74.7026 
  53   2.0000      -2.744417       -74.6794 
  54   2.0000      -2.743931       -74.6662 
  55   2.0000      -2.743845       -74.6638 
  56   2.0000      -2.743833       -74.6635 
  57   2.0000      -0.589210       -16.0332 
  58   2.0000      -0.557720       -15.1763 
  59   2.0000      -0.549195       -14.9444 
  60   2.0000      -0.548570       -14.9274 
  61   2.0000      -0.548551       -14.9268 
  62   2.0000      -0.545761       -14.8509 
  63   2.0000      -0.539689       -14.6857 
  64   2.0000      -0.539481       -14.6800 
  65   2.0000      -0.536918       -14.6103 
  66   2.0000      -0.536866       -14.6089 
  67   2.0000      -0.536864       -14.6088 
  68   2.0000      -0.535755       -14.5786 
  69   2.0000      -0.533848       -14.5267 
  70   2.0000      -0.533173       -14.5084 
  71   2.0000      -0.527151       -14.3445 
  72   2.0000      -0.527023       -14.3410 
  73   2.0000      -0.523715       -14.2510 
  74   2.0000      -0.522177       -14.2091 
  75   2.0000      -0.517935       -14.0937 
  76   2.0000      -0.508029       -13.8242 
  77   2.0000      -0.507830       -13.8187 
  78   2.0000      -0.504927       -13.7398 
  79   2.0000      -0.503788       -13.7088 
  80   2.0000      -0.503618       -13.7041 
  81   2.0000      -0.503222       -13.6934 
  82   2.0000      -0.501606       -13.6494 
  83   2.0000      -0.496637       -13.5142 
  84   2.0000      -0.496222       -13.5029 
  85   2.0000      -0.494690       -13.4612 
  86   2.0000      -0.481692       -13.1075 
  87   2.0000      -0.481547       -13.1036 
  88   2.0000      -0.477127       -12.9833 
  89   2.0000      -0.475042       -12.9266 
  90   2.0000      -0.474696       -12.9171 
  91   2.0000      -0.474547       -12.9131 
  92   2.0000      -0.463005       -12.5990 
  93   2.0000      -0.461884       -12.5685 
  94   2.0000      -0.461803       -12.5663 
  95   2.0000      -0.460133       -12.5208 
  96   2.0000      -0.455206       -12.3868 
  97   2.0000      -0.453593       -12.3429 
  98   2.0000      -0.452604       -12.3160 
  99   2.0000      -0.452560       -12.3148 
 100   2.0000      -0.441203       -12.0057 
 101   2.0000      -0.439784       -11.9671 
 102   2.0000      -0.437753       -11.9119 
 103   2.0000      -0.437619       -11.9082 
 104   2.0000      -0.433673       -11.8008 
 105   2.0000      -0.430620       -11.7178 
 106   2.0000      -0.425760       -11.5855 
 107   2.0000      -0.424700       -11.5567 
[...]
 3 117   30519.8    327.7   0.000000000   0.00000   0.00000   0.00000   0.00000
 3 118   31112.9    321.4   0.000000000   0.00000   0.00000   0.00000   0.00000
 3 119   31113.1    321.4   0.000000000   0.00000   0.00000   0.00000   0.00000
 3 120   31117.1    321.4   0.000000000   0.00000   0.00000   0.00000   0.00000
 3 121   32561.7    307.1   0.000000000   0.00000   0.00000   0.00000   0.00000
 3 122   32565.6    307.1   0.000000000   0.00000   0.00000   0.00000   0.00000
 3 123   32566.9    307.1   0.000000000   0.00000   0.00000   0.00000   0.00000
 3 124   32699.6    305.8   0.000000000   0.00000   0.00000   0.00000   0.00000
 3 125   32707.8    305.7   0.000000000   0.00000   0.00000   0.00000   0.00000
 3 126   32791.0    305.0   0.000000000   0.00000   0.00000   0.00000   0.00000
 3 127   32801.6    304.9   0.000000000   0.00000   0.00000   0.00000   0.00000
 3 128   32843.3    304.5   0.000000000   0.00000   0.00000   0.00000   0.00000
 3 129   32876.5    304.2   0.000000000   0.00000   0.00000   0.00000   0.00000
 3 130   47436.7    210.8   0.000000000   0.00000   0.00000   0.00000   0.00000
 3 131   47589.1    210.1   0.000000000   0.00000   0.00000   0.00000   0.00000
 3 132   47596.1    210.1   0.000000000   0.00000   0.00000   0.00000   0.00000
 3 133   47618.1    210.0   0.000000000   0.00000   0.00000   0.00000   0.00000
 3 134   47841.7    209.0   0.000000000   0.00000   0.00000   0.00000   0.00000
 3 135   47862.5    208.9   0.000000000   0.00000   0.00000   0.00000   0.00000
 3 136   47873.7    208.9   0.000000000   0.00000   0.00000   0.00000   0.00000
 3 137   47881.5    208.8   0.000000000   0.00000   0.00000   0.00000   0.00000
 3 138   47891.2    208.8   0.000000000   0.00000   0.00000   0.00000   0.00000
 3 139   49613.4    201.6   0.000000000   0.00000   0.00000   0.00000   0.00000
 3 140   49613.4    201.6   0.000000000   0.00000   0.00000   0.00000   0.00000
 3 141   49617.5    201.5   0.000000000   0.00000   0.00000   0.00000   0.00000
 3 142   50021.4    199.9   0.000000000   0.00000   0.00000   0.00000   0.00000
 3 143   50028.0    199.9   0.000000000   0.00000   0.00000   0.00000   0.00000
 3 144   50028.1    199.9   0.000000000   0.00000   0.00000   0.00000   0.00000
 3 145   50223.2    199.1   0.000000000   0.00000   0.00000   0.00000   0.00000
 3 146   50225.4    199.1   0.000000000   0.00000   0.00000   0.00000   0.00000
 3 147   50242.5    199.0   0.000000000   0.00000   0.00000   0.00000   0.00000
 3 148   50249.4    199.0   0.000000000   0.00000   0.00000   0.00000   0.00000
 3 149   50259.7    199.0   0.000000000   0.00000   0.00000   0.00000   0.00000
 3 150   50265.3    198.9   0.000000000   0.00000   0.00000   0.00000   0.00000
 3 151   50907.4    196.4   0.000000000   0.00000   0.00000   0.00000   0.00000
 3 152   51022.4    196.0   0.000000000   0.00000   0.00000   0.00000   0.00000
 3 153   51026.4    196.0   0.000000000   0.00000   0.00000   0.00000   0.00000
 3 154   51429.6    194.4   0.000000000   0.00000   0.00000   0.00000   0.00000
 3 155   51685.4    193.5   0.000000000   0.00000   0.00000   0.00000   0.00000
 3 156   51777.7    193.1   0.000000000   0.00000   0.00000   0.00000   0.00000
 3 157   51802.1    193.0   0.000000000   0.00000   0.00000   0.00000   0.00000
 3 158   51950.6    192.5   0.000000000   0.00000   0.00000   0.00000   0.00000
 3 159   51958.1    192.5   0.000000000   0.00000   0.00000   0.00000   0.00000
 4  5      96.0   104147.0   0.000000000   0.00000   0.00000   0.00000   0.00000
 4  6     104.8   95406.6   0.000000000   0.00000   0.00000   0.00000   0.00000
 4  7     105.9   94392.7   0.000000000   0.00000   0.00000   0.00000   0.00000
 4  8     130.4   76692.9   0.000000000   0.00000   0.00000   0.00000   0.00000
 4  9     133.7   74795.1   0.000000000   0.00000   0.00000   0.00000   0.00000
 4 10    3574.1   2797.9   0.000000000   0.00000   0.00000   0.00001   0.00000
 4 11    3594.9   2781.7   0.000000000   0.00000   0.00001   0.00000   0.00000
 4 12    3596.5   2780.5   0.000000000   0.00000   0.00000   0.00001   0.00000
 4 13    3670.1   2724.7   0.000000000   0.00000   0.00000   0.00000   0.00000
 4 14    3671.2   2723.9   0.000000000   0.00000   0.00000   0.00000   0.00000
 4 15    4205.7   2377.7   0.000000000   0.00000   0.00001   0.00000   0.00000
 4 16    4206.2   2377.5   0.000000000   0.00000   0.00000   0.00000   0.00000
 4 17    4297.5   2326.9   0.000000000   0.00000   0.00000   0.00000   0.00000
 4 18    4370.6   2288.0   0.000000000   0.00000   0.00000   0.00000   0.00000
 4 19    4427.1   2258.8   0.000000000   0.00000   0.00003   0.00001   0.00000
 4 20    4458.0   2243.2   0.000000000   0.00000   0.00001   0.00002   0.00000
 4 21    4513.1   2215.8   0.000000000   0.00000   0.00000   0.00000   0.00000
 4 22    4539.0   2203.1   0.000000000   0.00000   0.00000   0.00000   0.00000
 4 23    4591.4   2178.0   0.000000000   0.00000   0.00000   0.00000   0.00000
 4 24    4591.5   2177.9   0.000000000   0.00000   0.00000   0.00000   0.00000
 4 25   16615.6    601.8   0.000000000   0.00000   0.00000   0.00000   0.00000
 4 26   16623.8    601.5   0.000000000   0.00000   0.00000   0.00000   0.00000
 4 27   16640.5    600.9   0.000000000   0.00000   0.00000   0.00000   0.00000
 4 28   16680.9    599.5   0.000000000   0.00000   0.00000   0.00000   0.00000
 4 29   16696.8    598.9   0.000000000   0.00000   0.00000   0.00000   0.00000
 4 30   16698.5    598.9   0.000000000   0.00000   0.00000   0.00000   0.00000
 4 31   17497.2    571.5   0.000000000   0.00000   0.00000   0.00000   0.00000
 4 32   17497.2    571.5   0.000000000   0.00000   0.00000   0.00000   0.00000
 4 33   17501.4    571.4   0.000000000   0.00000   0.00000   0.00000   0.00000
 4 34   19650.7    508.9   0.000000000   0.00000   0.00000   0.00000   0.00000
 4 35   19651.2    508.9   0.000000000   0.00000   0.00000   0.00000   0.00000
 4 36   19735.8    506.7   0.000000000   0.00000   0.00000   0.00000   0.00000
 4 37   19751.5    506.3   0.000000000   0.00000   0.00000   0.00000   0.00000
 4 38   19817.4    504.6   0.000000000   0.00000   0.00000   0.00000   0.00000
 4 39   19885.8    502.9   0.000000000   0.00000   0.00000   0.00000   0.00000
 4 40   19902.6    502.4   0.000000000   0.00000   0.00000   0.00000   0.00000
 4 41   19905.5    502.4   0.000000000   0.00000   0.00000   0.00000   0.00000
 4 42   19922.4    501.9   0.000000000   0.00000   0.00000   0.00000   0.00000
 4 43   19922.4    501.9   0.000000000   0.00000   0.00000   0.00000   0.00000
 4 44   19931.0    501.7   0.000000000   0.00000   0.00000   0.00000   0.00000
 4 45   20121.5    497.0   0.000000000   0.00000   0.00000   0.00000   0.00000
 4 46   20323.8    492.0   0.000000000   0.00000   0.00000   0.00000   0.00000
 4 47   20381.0    490.7   0.000000000   0.00000   0.00000   0.00000   0.00000
 4 48   20463.8    488.7   0.000000000   0.00000   0.00000   0.00000   0.00000
 4 49   20979.3    476.7   0.000000000   0.00000   0.00000   0.00000   0.00000
 4 50   20986.1    476.5   0.000000000   0.00000   0.00000   0.00000   0.00000
 4 51   21041.0    475.3   0.000000000   0.00000   0.00000   0.00000   0.00000
 4 52   21164.1    472.5   0.000000000   0.00000   0.00000   0.00000   0.00000
 4 53   21196.6    471.8   0.000000000   0.00000   0.00000   0.00000   0.00000
 4 54   21381.9    467.7   0.000000000   0.00000   0.00000   0.00000   0.00000
 4 55   21387.8    467.6   0.000000000   0.00000   0.00000   0.00000   0.00000
 4 56   21423.5    466.8   0.000000000   0.00000   0.00000   0.00000   0.00000
 4 57   21432.2    466.6   0.000000000   0.00000   0.00000   0.00000   0.00000
 4 58   21432.4    466.6   0.000000000   0.00000   0.00000   0.00000   0.00000
 4 59   21611.3    462.7   0.000000000   0.00000   0.00000   0.00000   0.00000
 4 60   21649.2    461.9   0.000000000   0.00000   0.00000   0.00000   0.00000
 4 61   22556.6    443.3   0.000000000   0.00000   0.00000   0.00000   0.00000
 4 62   22557.3    443.3   0.000000000   0.00000   0.00000   0.00000   0.00000
 4 63   22648.8    441.5   0.000000000   0.00000   0.00000   0.00000   0.00000
 4 64   23017.5    434.5   0.000000000   0.00000   0.00000   0.00000   0.00000
 4 65   23111.3    432.7   0.000000000   0.00000   0.00000   0.00000   0.00000
 4 66   23133.4    432.3   0.000000000   0.00000   0.00000   0.00000   0.00000
 4 67   23321.5    428.8   0.000000000   0.00000   0.00000   0.00000   0.00000
 4 68   23329.2    428.6   0.000000000   0.00000   0.00000   0.00000   0.00000
 4 69   23534.1    424.9   0.000000000   0.00000   0.00000   0.00000   0.00000
 4 70   23534.2    424.9   0.000000000   0.00000   0.00000   0.00000   0.00000
 4 71   23543.0    424.8   0.000000000   0.00000   0.00000   0.00000   0.00000
 4 72   23732.5    421.4   0.000000000   0.00000   0.00000   0.00000   0.00000
 4 73   23882.9    418.7   0.000000000   0.00000   0.00000   0.00000   0.00000
 4 74   23901.4    418.4   0.000000000   0.00000   0.00000   0.00000   0.00000
 4 75   24029.0    416.2   0.000000000   0.00000   0.00000   0.00000   0.00000
 4 76   24121.6    414.6   0.000000000   0.00000   0.00000   0.00000   0.00000
 4 77   24143.0    414.2   0.000000000   0.00000   0.00000   0.00000   0.00000
 4 78   24160.2    413.9   0.000000000   0.00000   0.00000   0.00000   0.00000
 4 79   24168.5    413.8   0.000000000   0.00000   0.00000   0.00000   0.00000
 4 80   24183.8    413.5   0.000000000   0.00000   0.00000   0.00000   0.00000
 4 81   24356.5    410.6   0.000000000   0.00000   0.00000   0.00000   0.00000
 4 82   25239.0    396.2   0.000000000   0.00000   0.00000   0.00000   0.00000
 4 83   25243.5    396.1   0.000000000   0.00000   0.00000   0.00000   0.00000
 4 84   25490.5    392.3   0.000000000   0.00000   0.00000   0.00000   0.00000
 4 85   25493.1    392.3   0.000000000   0.00000   0.00000   0.00000   0.00000
 4 86   25684.3    389.3   0.000000000   0.00000   0.00000   0.00000   0.00000
 4 87   25694.2    389.2   0.000000000   0.00000   0.00000   0.00000   0.00000
 4 88   25780.8    387.9   0.000000000   0.00000   0.00000   0.00000   0.00000
 4 89   25890.0    386.2   0.000000000   0.00000   0.00000   0.00000   0.00000
 4 90   25899.5    386.1   0.000000000   0.00000   0.00000   0.00000   0.00000
 4 91   26264.7    380.7   0.000000000   0.00000   0.00000   0.00000   0.00000
 4 92   26310.7    380.1   0.000000000   0.00000   0.00000   0.00000   0.00000
 4 93   26520.6    377.1   0.000000000   0.00000   0.00000   0.00000   0.00000
 4 94   26541.3    376.8   0.000000000   0.00000   0.00000   0.00000   0.00000
 4 95   26561.0    376.5   0.000000000   0.00000   0.00000   0.00000   0.00000
 4 96   26575.8    376.3   0.000000000   0.00000   0.00000   0.00000   0.00000
 4 97   26969.6    370.8   0.000000000   0.00000   0.00000   0.00000   0.00000
 4 98   26980.0    370.6   0.000000000   0.00000   0.00000   0.00000   0.00000
 4 99   27000.6    370.4   0.000000000   0.00000   0.00000   0.00000   0.00000
 4 100   27094.8    369.1   0.000000000   0.00000   0.00000   0.00000   0.00000
 4 101   27124.7    368.7   0.000000000   0.00000   0.00000   0.00000   0.00000
 4 102   27207.5    367.5   0.000000000   0.00000   0.00000   0.00000   0.00000
 4 103   27894.7    358.5   0.000000000   0.00000   0.00000   0.00000   0.00000
 4 104   27897.1    358.5   0.000000000   0.00000   0.00000   0.00000   0.00000
 4 105   28071.6    356.2   0.000000000   0.00000   0.00000   0.00000   0.00000
 4 106   28757.7    347.7   0.000000000   0.00000   0.00000   0.00000   0.00000
 4 107   28759.4    347.7   0.000000000   0.00000   0.00000   0.00000   0.00000
 4 108   28766.2    347.6   0.000000000   0.00000   0.00000   0.00000   0.00000
 4 109   28865.3    346.4   0.000000000   0.00000   0.00000   0.00000   0.00000
 4 110   28891.0    346.1   0.000000000   0.00000   0.00000   0.00000   0.00000
 4 111   29274.5    341.6   0.000000000   0.00000   0.00000   0.00000   0.00000
 4 112   29278.4    341.5   0.000000000   0.00000   0.00000   0.00000   0.00000
 4 113   29358.6    340.6   0.000000000   0.00000   0.00000   0.00000   0.00000
 4 114   29515.5    338.8   0.000000000   0.00000   0.00000   0.00000   0.00000
 4 115   30506.0    327.8   0.000000000   0.00000   0.00000   0.00000   0.00000
 4 116   30510.5    327.8   0.000000000   0.00000   0.00000   0.00000   0.00000
 4 117   30510.7    327.8   0.000000000   0.00000   0.00000   0.00000   0.00000
 4 118   31103.8    321.5   0.000000000   0.00000   0.00000   0.00000   0.00000
 4 119   31104.0    321.5   0.000000000   0.00000   0.00000   0.00000   0.00000
 4 120   31108.0    321.5   0.000000000   0.00000   0.00000   0.00000   0.00000
 4 121   32552.6    307.2   0.000000000   0.00000   0.00000   0.00000   0.00000
 4 122   32556.5    307.2   0.000000000   0.00000   0.00000   0.00000   0.00000
 4 123   32557.8    307.1   0.000000000   0.00000   0.00000   0.00000   0.00000
 4 124   32690.5    305.9   0.000000000   0.00000   0.00000   0.00000   0.00000
 4 125   32698.7    305.8   0.000000000   0.00000   0.00000   0.00000   0.00000
 4 126   32781.9    305.0   0.000000000   0.00000   0.00000   0.00000   0.00000
 4 127   32792.5    304.9   0.000000000   0.00000   0.00000   0.00000   0.00000
 4 128   32834.2    304.6   0.000000000   0.00000   0.00000   0.00000   0.00000
 4 129   32867.4    304.3   0.000000000   0.00000   0.00000   0.00000   0.00000
 4 130   47427.6    210.8   0.000000000   0.00000   0.00000   0.00000   0.00000
 4 131   47580.0    210.2   0.000000000   0.00000   0.00000   0.00000   0.00000
 4 132   47587.0    210.1   0.000000000   0.00000   0.00000   0.00000   0.00000
 4 133   47609.0    210.0   0.000000000   0.00000   0.00000   0.00000   0.00000
 4 134   47832.6    209.1   0.000000000   0.00000   0.00000   0.00000   0.00000
 4 135   47853.4    209.0   0.000000000   0.00000   0.00000   0.00000   0.00000
 4 136   47864.6    208.9   0.000000000   0.00000   0.00000   0.00000   0.00000
 4 137   47872.4    208.9   0.000000000   0.00000   0.00000   0.00000   0.00000
 4 138   47882.1    208.8   0.000000000   0.00000   0.00000   0.00000   0.00000
 4 139   49604.3    201.6   0.000000000   0.00000   0.00000   0.00000   0.00000
 4 140   49604.4    201.6   0.000000000   0.00000   0.00000   0.00000   0.00000
 4 141   49608.4    201.6   0.000000000   0.00000   0.00000   0.00000   0.00000
 4 142   50012.3    200.0   0.000000000   0.00000   0.00000   0.00000   0.00000
 4 143   50018.9    199.9   0.000000000   0.00000   0.00000   0.00000   0.00000
 4 144   50019.0    199.9   0.000000000   0.00000   0.00000   0.00000   0.00000
 4 145   50214.1    199.1   0.000000000   0.00000   0.00000   0.00000   0.00000
 4 146   50216.3    199.1   0.000000000   0.00000   0.00000   0.00000   0.00000
 4 147   50233.5    199.1   0.000000000   0.00000   0.00000   0.00000   0.00000
 4 148   50240.3    199.0   0.000000000   0.00000   0.00000   0.00000   0.00000
 4 149   50250.6    199.0   0.000000000   0.00000   0.00000   0.00000   0.00000
 4 150   50256.2    199.0   0.000000000   0.00000   0.00000   0.00000   0.00000
 4 151   50898.3    196.5   0.000000000   0.00000   0.00000   0.00000   0.00000
 4 152   51013.3    196.0   0.000000000   0.00000   0.00000   0.00000   0.00000
 4 153   51017.3    196.0   0.000000000   0.00000   0.00000   0.00000   0.00000
 4 154   51420.5    194.5   0.000000000   0.00000   0.00000   0.00000   0.00000
 4 155   51676.3    193.5   0.000000000   0.00000   0.00000   0.00000   0.00000
 4 156   51768.6    193.2   0.000000000   0.00000   0.00000   0.00000   0.00000
 4 157   51793.0    193.1   0.000000000   0.00000   0.00000   0.00000   0.00000
 4 158   51941.5    192.5   0.000000000   0.00000   0.00000   0.00000   0.00000
 4 159   51949.0    192.5   0.000000000   0.00000   0.00000   0.00000   0.00000

------------------------------------------------------------------------------
                           SOC CORRECTED DIPOLE MOMENTS
------------------------------------------------------------------------------
      TX        TY        TZ           |T|
   (Debye)   (Debye)   (Debye)      (Debye)
------------------------------------------------------------------------------
   0.00042   0.00190   0.00287      0.00347

--------------
CASSCF TIMINGS
--------------

Total time                       ...     8334.8 sec
Sum of individual times          ...     8351.0 sec (100.2%)

Calculation of AO operators
   F(Core) operator              ...       74.9 sec (  0.9%)
   G(Act) operator               ...       69.2 sec (  0.8%)
   J(AO) operators               ...        0.0 sec (  0.0%)
Calculation of MO transformed quantities
   J(MO) operators               ...        6.1 sec (  0.1%)
   (pq|rs) integrals             ...        0.0 sec (  0.0%)
   AO->MO one electron integrals ...        0.2 sec (  0.0%)
Configuration interaction steps
   CI-setup phase                ...        0.0 sec (  0.0%)
   CI-solution phase             ...        0.1 sec (  0.0%)
   Generation of densities       ...        0.0 sec (  0.0%)
Orbital improvement steps
   Orbital gradient              ...        0.1 sec (  0.0%)
PT2 
   NEVPT2 time                   ...     8144.3 sec ( 97.7%)
Properties                       ...       29.8 sec (  0.4%)
   SOC integral calculation      ...       26.1 sec (  0.3%)
   SSC RMEs (incl. integrals)    ...        0.0 sec (  0.0%)
   SOC RMEs                      ...        0.1 sec (  0.0%)

Maximum memory used throughout the entire CASSCF-calculation: 1137.2 MB

-------------------------   --------------------
FINAL SINGLE POINT ENERGY     -2886.154521796544
-------------------------   --------------------


                            ***************************************
                            *     ORCA property calculations      *
                            ***************************************

                                    ---------------------
                                    Active property flags
                                    ---------------------
   (+) Dipole Moment


------------------------------------------------------------------------------
                       ORCA ELECTRIC PROPERTIES CALCULATION
------------------------------------------------------------------------------

Dipole Moment Calculation                       ... on
Quadrupole Moment Calculation                   ... off
Polarizability Calculation                      ... off
GBWName                                         ... nevpt2.gbw
Electron density                                ... nevpt2.scfp
The origin for moment calculation is the CENTER OF MASS  = (12.429768, 15.126575 12.171825)

-------------
DIPOLE MOMENT
-------------
                                X             Y             Z
Electronic contribution:     -0.00013      -0.00071      -0.00111
Nuclear contribution   :      0.00016       0.00075       0.00113
                        -----------------------------------------
Total Dipole Moment    :      0.00004       0.00003       0.00002
                        -----------------------------------------
Magnitude (a.u.)       :      0.00005
Magnitude (Debye)      :      0.00014



--------------------
Rotational spectrum 
--------------------
 
Rotational constants in cm-1:     0.001398     0.001395     0.001333 
Rotational constants in MHz :    41.902041    41.819732    39.950130 

 Dipole components along the rotational axes: 
x,y,z [a.u.] :     0.000029     0.000043     0.000014 
x,y,z [Debye]:     0.000073     0.000108     0.000035 

 

Timings for individual modules:

Sum of individual times         ...     8363.093 sec (= 139.385 min)
GTO integral calculation        ...       13.068 sec (=   0.218 min)   0.2 %
SCF iterations                  ...        8.436 sec (=   0.141 min)   0.1 %
CASSCF iterations               ...     8341.589 sec (= 139.026 min)  99.7 %
                             ****ORCA TERMINATED NORMALLY****
TOTAL RUN TIME: 0 days 2 hours 19 minutes 24 seconds 139 msec
