
                                 *****************
                                 * O   R   C   A *
                                 *****************

                                            #,                                       
                                            ###                                      
                                            ####                                     
                                            #####                                    
                                            ######                                   
                                           ########,                                 
                                     ,,################,,,,,                         
                               ,,#################################,,                 
                          ,,##########################################,,             
                       ,#########################################, ''#####,          
                    ,#############################################,,   '####,        
                  ,##################################################,,,,####,       
                ,###########''''           ''''###############################       
              ,#####''   ,,,,##########,,,,          '''####'''          '####       
            ,##' ,,,,###########################,,,                        '##       
           ' ,,###''''                  '''############,,,                           
         ,,##''                                '''############,,,,        ,,,,,,###''
      ,#''                                            '''#######################'''  
     '                                                          ''''####''''         
             ,#######,   #######,   ,#######,      ##                                
            ,#'     '#,  ##    ##  ,#'     '#,    #''#        ######   ,####,        
            ##       ##  ##   ,#'  ##            #'  '#       #        #'  '#        
            ##       ##  #######   ##           ,######,      #####,   #    #        
            '#,     ,#'  ##    ##  '#,     ,#' ,#      #,         ##   #,  ,#        
             '#######'   ##     ##  '#######'  #'      '#     #####' # '####'        



                  #######################################################
                  #                        -***-                        #
                  #          Department of theory and spectroscopy      #
                  #    Directorship and core code : Frank Neese         #
                  #        Max Planck Institute fuer Kohlenforschung    #
                  #                Kaiser Wilhelm Platz 1               #
                  #                 D-45470 Muelheim/Ruhr               #
                  #                      Germany                        #
                  #                                                     #
                  #                  All rights reserved                #
                  #                        -***-                        #
                  #######################################################


                         Program Version 5.0.3 -  RELEASE  -


 With contributions from (in alphabetic order):
   Daniel Aravena         : Magnetic Suceptibility
   Michael Atanasov       : Ab Initio Ligand Field Theory (pilot matlab implementation)
   Alexander A. Auer      : GIAO ZORA, VPT2 properties, NMR spectrum
   Ute Becker             : Parallelization
   Giovanni Bistoni       : ED, misc. LED, open-shell LED, HFLD
   Martin Brehm           : Molecular dynamics
   Dmytro Bykov           : SCF Hessian
   Vijay G. Chilkuri      : MRCI spin determinant printing, contributions to CSF-ICE
   Dipayan Datta          : RHF DLPNO-CCSD density
   Achintya Kumar Dutta   : EOM-CC, STEOM-CC
   Dmitry Ganyushin       : Spin-Orbit,Spin-Spin,Magnetic field MRCI
   Miquel Garcia          : C-PCM and meta-GGA Hessian, CC/C-PCM, Gaussian charge scheme
   Yang Guo               : DLPNO-NEVPT2, F12-NEVPT2, CIM, IAO-localization
   Andreas Hansen         : Spin unrestricted coupled pair/coupled cluster methods
   Benjamin Helmich-Paris : MC-RPA, TRAH-SCF, COSX integrals
   Lee Huntington         : MR-EOM, pCC
   Robert Izsak           : Overlap fitted RIJCOSX, COSX-SCS-MP3, EOM
   Marcus Kettner         : VPT2
   Christian Kollmar      : KDIIS, OOCD, Brueckner-CCSD(T), CCSD density, CASPT2, CASPT2-K
   Simone Kossmann        : Meta GGA functionals, TD-DFT gradient, OOMP2, MP2 Hessian
   Martin Krupicka        : Initial AUTO-CI
   Lucas Lang             : DCDCAS
   Marvin Lechner         : AUTO-CI (C++ implementation), FIC-MRCC
   Dagmar Lenk            : GEPOL surface, SMD
   Dimitrios Liakos       : Extrapolation schemes; Compound Job, initial MDCI parallelization
   Dimitrios Manganas     : Further ROCIS development; embedding schemes
   Dimitrios Pantazis     : SARC Basis sets
   Anastasios Papadopoulos: AUTO-CI, single reference methods and gradients
   Taras Petrenko         : DFT Hessian,TD-DFT gradient, ASA, ECA, R-Raman, ABS, FL, XAS/XES, NRVS
   Peter Pinski           : DLPNO-MP2, DLPNO-MP2 Gradient
   Christoph Reimann      : Effective Core Potentials
   Marius Retegan         : Local ZFS, SOC
   Christoph Riplinger    : Optimizer, TS searches, QM/MM, DLPNO-CCSD(T), (RO)-DLPNO pert. Triples
   Tobias Risthaus        : Range-separated hybrids, TD-DFT gradient, RPA, STAB
   Michael Roemelt        : Original ROCIS implementation
   Masaaki Saitow         : Open-shell DLPNO-CCSD energy and density
   Barbara Sandhoefer     : DKH picture change effects
   Avijit Sen             : IP-ROCIS
   Kantharuban Sivalingam : CASSCF convergence, NEVPT2, FIC-MRCI
   Bernardo de Souza      : ESD, SOC TD-DFT
   Georgi Stoychev        : AutoAux, RI-MP2 NMR, DLPNO-MP2 response
   Willem Van den Heuvel  : Paramagnetic NMR
   Boris Wezisla          : Elementary symmetry handling
   Frank Wennmohs         : Technical directorship


 We gratefully acknowledge several colleagues who have allowed us to
 interface, adapt or use parts of their codes:
   Stefan Grimme, W. Hujo, H. Kruse, P. Pracht,  : VdW corrections, initial TS optimization,
                  C. Bannwarth, S. Ehlert          DFT functionals, gCP, sTDA/sTD-DF
   Ed Valeev, F. Pavosevic, A. Kumar             : LibInt (2-el integral package), F12 methods
   Garnet Chan, S. Sharma, J. Yang, R. Olivares  : DMRG
   Ulf Ekstrom                                   : XCFun DFT Library
   Mihaly Kallay                                 : mrcc  (arbitrary order and MRCC methods)
   Jiri Pittner, Ondrej Demel                    : Mk-CCSD
   Frank Weinhold                                : gennbo (NPA and NBO analysis)
   Christopher J. Cramer and Donald G. Truhlar   : smd solvation model
   Lars Goerigk                                  : TD-DFT with DH, B97 family of functionals
   V. Asgeirsson, H. Jonsson                     : NEB implementation
   FAccTs GmbH                                   : IRC, NEB, NEB-TS, DLPNO-Multilevel, CI-OPT
                                                   MM, QMMM, 2- and 3-layer-ONIOM, Crystal-QMMM,
                                                   LR-CPCM, SF, NACMEs, symmetry and pop. for TD-DFT,
                                                   nearIR, NL-DFT gradient (VV10), updates on ESD,
                                                   ML-optimized integration grids
   S Lehtola, MJT Oliveira, MAL Marques          : LibXC Library
   Liviu Ungur et al                             : ANISO software


 Your calculation uses the libint2 library for the computation of 2-el integrals
 For citations please refer to: http://libint.valeyev.net

 Your ORCA version has been built with support for libXC version: 5.1.0
 For citations please refer to: https://tddft.org/programs/libxc/

 This ORCA versions uses:
   CBLAS   interface :  Fast vector & matrix operations
   LAPACKE interface :  Fast linear algebra routines
   SCALAPACK package :  Parallel linear algebra routines
   Shared memory     :  Shared parallel matrices
   BLAS/LAPACK       :  OpenBLAS 0.3.15  USE64BITINT DYNAMIC_ARCH NO_AFFINITY Haswell SINGLE_THREADED
        Core in use  :  Haswell
   Copyright (c) 2011-2014, The OpenBLAS Project




***************************************
The coordinates will be read from file: 9.xyz
***************************************


================================================================================

cite the ECPs for Au [Def2-ECP] as follows:
Ce-Yb(ecp-28): M. Dolg, H. Stoll, H.Preuss, J. Chem. Phys., 1989, 90, 1730-1734.
Y-Cd(ecp-28), Hf-Hg(ecp-46): D. Andrae,U. Haeussermann, M. Dolg, H. Stoll, H. Preuss, Theor. Chim. Acta, 1990, 77, 123-141.
In-Sb(ecp-28), Tl-Bi(ecp-46): B. Metz, H. Stoll, M. Dolg, J. Chem. Phys., 2000, 113, 2563-2569.
Te-Xe(ecp-28), Po-Rn(ecp-46): K. A. Peterson, D. Figgen, E. Goll, H. Stoll, M. Dolg, J. Chem. Phys., 2003, 119, 11113-11123.
Rb(ecp-28), Cs(ecp-46): T. Leininger, A. Nicklass, W. Kuechle, H. Stoll, M. Dolg, A. Bergner, Chem. Phys. Lett., 1996, 255, 274-280.
Sr(ecp-28), Ba(ecp-46): M. Kaupp, P. V. Schleyer, H. Stoll and H. Preuss, J. Chem. Phys., 1991, 94, 1360-1366.
La(ecp-46): M. Dolg, H. Stoll, A. Savin, H. Preuss, Theor. Chim. Acta, 1989, 75, 173-194.
Lu(ecp-28): X. Cao, M. Dolg, J. Chem. Phys., 2001, 115, 7348-7355.

ECP parameters for Au [Def2-ECP] have been obtained from:
TURBOMOLE (7.0.2)

----- Orbital basis set information -----
Your calculation utilizes the basis: def2-TZVP
   F. Weigend and R. Ahlrichs, Phys. Chem. Chem. Phys. 7, 3297 (2005).

----- AuxJ basis set information -----
Your calculation utilizes the auxiliary basis: def2/J
   F. Weigend, Phys. Chem. Chem. Phys. 8, 1057 (2006).

================================================================================
                                        WARNINGS
                       Please study these warnings very carefully!
================================================================================


WARNING: your system is open-shell and RHF/RKS was chosen
  ===> : WILL SWITCH to UHF/UKS


WARNING: Geometry Optimization
  ===> : Switching off AutoStart
         For restart on a previous wavefunction, please use MOREAD

INFO   : the flag for use of the SHARK integral package has been found!

================================================================================
                                       INPUT FILE
================================================================================
NAME = pbe.inp
|  1> %pal nprocs 1 end 
|  2> 
|  3> !PBE def2-TZVP OPT UNO
|  4> !SLOWCONV KDIIS 
|  5> 
|  6> %geom maxiter 300 end
|  7> 
|  8> *xyzfile 0 3 9.xyz                           ****END OF INPUT****
================================================================================

                       *****************************
                       * Geometry Optimization Run *
                       *****************************

Geometry optimization settings:
Update method            Update   .... BFGS
Choice of coordinates    CoordSys .... Z-matrix Internals
Initial Hessian          InHess   .... Almoef's Model

Convergence Tolerances:
Energy Change            TolE     ....  5.0000e-06 Eh
Max. Gradient            TolMAXG  ....  3.0000e-04 Eh/bohr
RMS Gradient             TolRMSG  ....  1.0000e-04 Eh/bohr
Max. Displacement        TolMAXD  ....  4.0000e-03 bohr
RMS Displacement         TolRMSD  ....  2.0000e-03 bohr
Strict Convergence                ....  False
------------------------------------------------------------------------------
                        ORCA OPTIMIZATION COORDINATE SETUP
------------------------------------------------------------------------------

The optimization will be done in new redundant internal coordinates
Making redundant internal coordinates   ...  (new redundants) done
Evaluating the initial hessian          ...  (Almloef) done
Evaluating the coordinates              ...  done
Calculating the B-matrix                .... done
Calculating the G-matrix                .... done
Diagonalizing the G-matrix              .... done
The first mode is                       ....  230
The number of degrees of freedom        ....   39

    -----------------------------------------------------------------
                    Redundant Internal Coordinates


    -----------------------------------------------------------------
         Definition                    Initial Value    Approx d2E/dq
    -----------------------------------------------------------------
      1. B(Au  1,Au  0)                  2.7991         0.006835   
      2. B(Au  2,Au  1)                  3.1333         0.002002   
      3. B(Au  2,Au  0)                  2.8617         0.005432   
      4. B(Au  3,Au  2)                  2.8620         0.005426   
      5. B(Au  3,Au  1)                  2.7996         0.006824   
      6. B(Au  4,Au  3)                  2.7969         0.006890   
      7. B(Au  5,Au  1)                  2.8442         0.005792   
      8. B(Au  5,Au  3)                  2.8202         0.006325   
      9. B(Au  6,Au  0)                  2.8203         0.006323   
     10. B(Au  6,Au  1)                  2.8438         0.005800   
     11. B(Au 12,Au  0)                  2.7971         0.006886   
     12. B(Cr 14,Au  9)                  2.6554         0.084263   
     13. B(Cr 14,Au  8)                  2.7032         0.070677   
     14. B(Cr 14,Au  5)                  2.8350         0.043562   
     15. B(Cr 14,Au 13)                  2.6552         0.084312   
     16. B(Cr 14,Au 12)                  2.7495         0.059639   
     17. B(Cr 14,Au  7)                  2.7305         0.063945   
     18. B(Cr 14,Au 11)                  2.7034         0.070636   
     19. B(Cr 14,Au 10)                  2.7007         0.071328   
     20. B(Cr 14,Au  6)                  2.8351         0.043535   
     21. B(Cr 14,Au  4)                  2.7494         0.059644   
     22. B(Cr 14,Au  2)                  2.7574         0.057931   
     23. A(Au  1,Au  0,Au 12)          110.3647         0.138292   
     24. A(Au  6,Au  0,Au 12)           66.2633         0.137432   
     25. A(Au  2,Au  0,Au  6)           75.7736         0.134900   
     26. A(Au  2,Au  0,Au 12)           58.3928         0.135795   
     27. A(Au  1,Au  0,Au  2)           67.2056         0.135715   
     28. A(Au  1,Au  0,Au  6)           60.8035         0.137349   
     29. A(Au  2,Au  1,Au  3)           57.3522         0.126257   
     30. A(Au  0,Au  1,Au  3)          112.6614         0.138190   
     31. A(Au  2,Au  1,Au  5)           71.2467         0.124900   
     32. A(Au  3,Au  1,Au  5)           59.9548         0.136381   
     33. A(Au  2,Au  1,Au  6)           71.2495         0.124911   
     34. A(Au  5,Au  1,Au  6)           61.9983         0.134669   
     35. A(Au  0,Au  1,Au  6)           59.9662         0.136413   
     36. A(Au  0,Au  1,Au  2)           57.3495         0.126270   
     37. A(Au  0,Au  1,Au  5)          110.8974         0.136398   
     38. A(Au  3,Au  1,Au  6)          110.8936         0.136396   
     39. A(Au  3,Au  2,Cr 14)           99.0362         0.173966   
     40. A(Au  0,Au  2,Cr 14)           99.0458         0.173986   
     41. A(Au  0,Au  2,Au  1)           55.4449         0.124382   
     42. A(Au  1,Au  2,Au  3)           55.4518         0.124374   
     43. A(Au  1,Au  2,Cr 14)           93.2791         0.156804   
     44. A(Au  0,Au  2,Au  3)          108.9948         0.133338   
     45. A(Au  1,Au  3,Au  5)           60.8082         0.137335   
     46. A(Au  2,Au  3,Au  4)           58.3943         0.135789   
     47. A(Au  2,Au  3,Au  5)           75.7722         0.134892   
     48. A(Au  1,Au  3,Au  4)          110.3628         0.138280   
     49. A(Au  1,Au  3,Au  2)           67.1959         0.135687   
     50. A(Au  4,Au  3,Au  5)           66.2636         0.137441   
     51. A(Au  3,Au  4,Cr 14)          100.8324         0.179279   
     52. A(Au  3,Au  5,Cr 14)           98.2045         0.171468   
     53. A(Au  1,Au  5,Cr 14)           98.1367         0.169840   
     54. A(Au  1,Au  5,Au  3)           59.2370         0.135574   
     55. A(Au  0,Au  6,Cr 14)           98.2012         0.171451   
     56. A(Au  0,Au  6,Au  1)           59.2303         0.135585   
     57. A(Au  1,Au  6,Cr 14)           98.1415         0.169854   
     58. A(Au  0,Au 12,Cr 14)          100.8305         0.179265   
     59. A(Au  7,Cr 14,Au 11)           63.7457         0.263187   
     60. A(Au  6,Cr 14,Au 11)           61.3330         0.248670   
     61. A(Au  7,Cr 14,Au  8)           63.7392         0.263210   
     62. A(Au  5,Cr 14,Au 11)          114.0364         0.248693   
     63. A(Au  2,Cr 14,Au 11)          118.8656         0.259336   
     64. A(Au  6,Cr 14,Au  8)          114.0341         0.248691   
     65. A(Au  2,Cr 14,Au  7)          129.8818         0.255542   
     66. A(Au  9,Cr 14,Au 10)           66.6714         0.274821   
     67. A(Au  8,Cr 14,Au 10)           64.6099         0.267572   
     68. A(Au  5,Cr 14,Au  8)           61.3261         0.248714   
     69. A(Au 12,Cr 14,Au 13)          113.2230         0.267468   
     70. A(Au 11,Cr 14,Au 13)          119.4339         0.274437   
     71. A(Au  7,Cr 14,Au 10)           63.6647         0.263571   
     72. A(Au 10,Cr 14,Au 13)           66.6751         0.274846   
     73. A(Au  9,Cr 14,Au 13)           63.0312         0.281990   
     74. A(Au  6,Cr 14,Au 10)          114.1513         0.249023   
     75. A(Au  4,Cr 14,Au  8)           62.8771         0.260486   
     76. A(Au  5,Cr 14,Au  6)           62.2167         0.232124   
     77. A(Au  4,Cr 14,Au  5)           66.6844         0.242695   
     78. A(Au  8,Cr 14,Au 13)           66.0427         0.274461   
     79. A(Au  7,Cr 14,Au 13)          120.0625         0.270306   
     80. A(Au  5,Cr 14,Au 10)          114.1455         0.249045   
     81. A(Au  5,Cr 14,Au 13)          117.3687         0.255220   
     82. A(Au  4,Cr 14,Au 13)           60.5227         0.267471   
     83. A(Au  4,Cr 14,Au 10)          116.1166         0.260842   
     84. A(Au  2,Cr 14,Au  8)          118.8657         0.259359   
     85. A(Au  2,Cr 14,Au 13)          102.0101         0.266298   
     86. A(Au 11,Cr 14,Au 12)           62.8795         0.260460   
     87. A(Au  2,Cr 14,Au 10)          166.4535         0.259712   
     88. A(Au 10,Cr 14,Au 12)          116.1211         0.260839   
     89. A(Au  9,Cr 14,Au 12)           60.5279         0.267444   
     90. A(Au  8,Cr 14,Au  9)          119.4324         0.274436   
     91. A(Au  6,Cr 14,Au  7)           60.4926         0.245114   
     92. A(Au  4,Cr 14,Au  6)          118.7018         0.242673   
     93. A(Au  7,Cr 14,Au 12)          117.4056         0.256641   
     94. A(Au  6,Cr 14,Au 12)           66.6847         0.242670   
     95. A(Au  7,Cr 14,Au  9)          120.0617         0.270282   
     96. A(Au  5,Cr 14,Au 12)          118.7051         0.242692   
     97. A(Au  4,Cr 14,Au 12)          115.9514         0.254020   
     98. A(Au  6,Cr 14,Au  9)          117.3727         0.255174   
     99. A(Au  5,Cr 14,Au  7)           60.4866         0.245136   
    100. A(Au  2,Cr 14,Au 12)           60.1812         0.252935   
    101. A(Au 10,Cr 14,Au 11)           64.6106         0.267548   
    102. A(Au  4,Cr 14,Au  9)          113.2250         0.267448   
    103. A(Au  9,Cr 14,Au 11)           66.0388         0.274412   
    104. A(Au  8,Cr 14,Au 11)          118.2902         0.267179   
    105. A(Au  2,Cr 14,Au  9)          102.0145         0.266275   
    106. A(Au  4,Cr 14,Au  7)          117.3988         0.256644   
    107. A(Au  2,Cr 14,Au  6)           77.1977         0.241663   
    108. A(Au  2,Cr 14,Au  5)           77.2026         0.241684   
    109. A(Au  2,Cr 14,Au  4)           60.1848         0.252939   
    110. D(Au  6,Au  1,Au  0,Au 12)     45.6303         0.001502   
    111. D(Au  5,Au  1,Au  0,Au 12)      8.8788         0.001502   
    112. D(Au  3,Au  1,Au  0,Au  6)   -101.8310         0.001502   
    113. D(Au  3,Au  1,Au  0,Au 12)    -56.2007         0.001502   
    114. D(Au  5,Au  1,Au  0,Au  2)     49.2038         0.001502   
    115. D(Au  2,Au  1,Au  0,Au  6)    -85.9553         0.001502   
    116. D(Au  3,Au  1,Au  0,Au  2)    -15.8757         0.001502   
    117. D(Au  6,Au  1,Au  0,Au  2)     85.9553         0.001502   
    118. D(Au  5,Au  1,Au  0,Au  6)    -36.7515         0.001502   
    119. D(Au  2,Au  1,Au  0,Au 12)    -40.3250         0.001502   
    120. D(Au  3,Au  2,Au  0,Au 12)    149.7125         0.001501   
    121. D(Au  3,Au  2,Au  0,Au  6)     79.0774         0.001501   
    122. D(Au  0,Au  2,Au  1,Au  5)   -131.6781         0.001500   
    123. D(Cr 14,Au  2,Au  0,Au  1)    -87.7468         0.001501   
    124. D(Cr 14,Au  2,Au  0,Au 12)     46.8274         0.001501   
    125. D(Au  0,Au  2,Au  1,Au  6)    -65.7796         0.001500   
    126. D(Cr 14,Au  2,Au  1,Au  3)    -98.7168         0.001500   
    127. D(Cr 14,Au  2,Au  1,Au  0)     98.7288         0.001500   
    128. D(Cr 14,Au  2,Au  0,Au  6)    -23.8077         0.001501   
    129. D(Au  1,Au  2,Au  0,Au  6)     63.9391         0.001501   
    130. D(Cr 14,Au  2,Au  1,Au  6)     32.9492         0.001500   
    131. D(Au  3,Au  2,Au  0,Au  1)     15.1384         0.001501   
    132. D(Au  3,Au  2,Au  1,Au  0)   -162.5544         0.001500   
    133. D(Au  3,Au  2,Au  1,Au  6)    131.6660         0.001500   
    134. D(Au  0,Au  2,Au  1,Au  3)    162.5544         0.001500   
    135. D(Au  3,Au  2,Au  1,Au  5)     65.7675         0.001500   
    136. D(Cr 14,Au  2,Au  1,Au  5)    -32.9493         0.001500   
    137. D(Au  1,Au  2,Au  0,Au 12)    134.5741         0.001501   
    138. D(Au  2,Au  3,Au  1,Au  6)    -49.2157         0.001502   
    139. D(Au  5,Au  3,Au  2,Cr 14)     23.8094         0.001501   
    140. D(Au  2,Au  3,Au  1,Au  5)    -85.9569         0.001502   
    141. D(Au  1,Au  3,Au  2,Cr 14)     87.7548         0.001501   
    142. D(Au  1,Au  3,Au  2,Au  0)    -15.1371         0.001501   
    143. D(Au  5,Au  3,Au  2,Au  1)    -63.9454         0.001501   
    144. D(Au  4,Au  3,Au  2,Au  1)   -134.5815         0.001501   
    145. D(Au  2,Au  3,Au  1,Au  0)     15.8752         0.001502   
    146. D(Au  4,Au  3,Au  2,Au  0)   -149.7186         0.001501   
    147. D(Au  4,Au  3,Au  1,Au  2)     40.3190         0.001502   
    148. D(Au  4,Au  3,Au  2,Cr 14)    -46.8267         0.001501   
    149. D(Au  5,Au  3,Au  1,Au  2)     85.9569         0.001502   
    150. D(Au  4,Au  3,Au  1,Au  6)     -8.8967         0.001502   
    151. D(Au  5,Au  3,Au  2,Au  0)    -79.0824         0.001501   
    152. D(Au  5,Au  3,Au  1,Au  0)    101.8322         0.001502   
    153. D(Au  5,Au  3,Au  1,Au  6)     36.7412         0.001502   
    154. D(Au  4,Au  3,Au  1,Au  5)    -45.6379         0.001502   
    155. D(Au  4,Au  3,Au  1,Au  0)     56.1943         0.001502   
    156. D(Cr 14,Au  4,Au  3,Au  1)      2.8879         0.001501   
    157. D(Cr 14,Au  4,Au  3,Au  5)    -40.0973         0.001501   
    158. D(Cr 14,Au  4,Au  3,Au  2)     47.3426         0.001501   
    159. D(Au  1,Au  5,Au  3,Au  2)     71.5572         0.001501   
    160. D(Au  3,Au  5,Au  1,Au  6)   -140.7308         0.001501   
    161. D(Cr 14,Au  5,Au  1,Au  3)     94.7414         0.001501   
    162. D(Cr 14,Au  5,Au  1,Au  2)     32.2431         0.001501   
    163. D(Cr 14,Au  5,Au  1,Au  0)    -10.0672         0.001501   
    164. D(Au  3,Au  5,Au  1,Au  2)    -62.4983         0.001501   
    165. D(Cr 14,Au  5,Au  3,Au  4)     38.3066         0.001501   
    166. D(Cr 14,Au  5,Au  3,Au  2)    -23.0654         0.001501   
    167. D(Au  3,Au  5,Au  1,Au  0)   -104.8086         0.001501   
    168. D(Au  1,Au  5,Au  3,Au  4)    132.9291         0.001501   
    169. D(Cr 14,Au  5,Au  3,Au  1)    -94.6226         0.001501   
    170. D(Cr 14,Au  5,Au  1,Au  6)    -45.9894         0.001501   
    171. D(Cr 14,Au  6,Au  0,Au 12)    -38.3084         0.001501   
    172. D(Cr 14,Au  6,Au  0,Au  2)     23.0615         0.001501   
    173. D(Cr 14,Au  6,Au  1,Au  3)     10.0790         0.001501   
    174. D(Au  0,Au  6,Au  1,Au  3)    104.8132         0.001501   
    175. D(Au  0,Au  6,Au  1,Au  2)     62.4928         0.001501   
    176. D(Cr 14,Au  6,Au  1,Au  5)     45.9865         0.001501   
    177. D(Au  0,Au  6,Au  1,Au  5)    140.7207         0.001501   
    178. D(Cr 14,Au  6,Au  1,Au  2)    -32.2413         0.001501   
    179. D(Cr 14,Au  6,Au  1,Au  0)    -94.7342         0.001501   
    180. D(Au  1,Au  6,Au  0,Au 12)   -132.9378         0.001501   
    181. D(Au  1,Au  6,Au  0,Au  2)    -71.5679         0.001501   
    182. D(Cr 14,Au  6,Au  0,Au  1)     94.6294         0.001501   
    183. D(Cr 14,Au 12,Au  0,Au  1)     -2.8741         0.001501   
    184. D(Cr 14,Au 12,Au  0,Au  6)     40.1018         0.001501   
    185. D(Cr 14,Au 12,Au  0,Au  2)    -47.3407         0.001501   
    186. D(Au 10,Cr 14,Au  5,Au  3)   -148.3408         0.001510   
    187. D(Au  8,Cr 14,Au  5,Au  1)   -169.5741         0.001510   
    188. D(Au  8,Cr 14,Au  5,Au  3)   -109.6680         0.001510   
    189. D(Au  7,Cr 14,Au  5,Au  3)    175.9910         0.001510   
    190. D(Au  6,Cr 14,Au  5,Au  1)     46.0519         0.001510   
    191. D(Au  6,Cr 14,Au  5,Au  3)    105.9580         0.001510   
    192. D(Au  4,Cr 14,Au  5,Au  3)    -38.9445         0.001510   
    193. D(Au  2,Cr 14,Au  5,Au  1)    -36.0643         0.001510   
    194. D(Au  2,Cr 14,Au  5,Au  3)     23.8418         0.001510   
    195. D(Au 13,Cr 14,Au  4,Au  3)   -175.3556         0.001518   
    196. D(Au 12,Cr 14,Au  4,Au  3)    -72.1386         0.001518   
    197. D(Au 10,Cr 14,Au  4,Au  3)    146.2407         0.001518   
    198. D(Au  9,Cr 14,Au  4,Au  3)   -139.3966         0.001518   
    199. D(Au  7,Cr 14,Au  4,Au  3)     73.8414         0.001518   
    200. D(Au  6,Cr 14,Au  4,Au  3)      4.2482         0.001518   
    201. D(Au  5,Cr 14,Au  4,Au  3)     39.6947         0.001518   
    202. D(Au 13,Cr 14,Au  2,Au  1)    147.6959         0.001518   
    203. D(Au 13,Cr 14,Au  2,Au  3)     92.1715         0.001518   
    204. D(Au 13,Cr 14,Au  2,Au  0)   -156.7871         0.001518   
    205. D(Au 12,Cr 14,Au  2,Au  3)   -157.7856         0.001518   
    206. D(Au 12,Cr 14,Au  2,Au  0)    -46.7443         0.001518   
    207. D(Au 11,Cr 14,Au  2,Au  1)    -78.5973         0.001518   
    208. D(Au 11,Cr 14,Au  2,Au  3)   -134.1217         0.001518   
    209. D(Au 11,Cr 14,Au  2,Au  0)    -23.0803         0.001518   
    210. D(Au 10,Cr 14,Au  2,Au  1)    179.9990         0.001518   
    211. D(Au 12,Cr 14,Au  2,Au  1)   -102.2612         0.001518   
    212. D(Au 10,Cr 14,Au  2,Au  3)    124.4746         0.001518   
    213. D(Au 10,Cr 14,Au  2,Au  0)   -124.4841         0.001518   
    214. D(Au  9,Cr 14,Au  2,Au  1)   -147.6932         0.001518   
    215. D(Au  2,Cr 14,Au  4,Au  3)    -48.5279         0.001518   
    216. D(Au  9,Cr 14,Au  2,Au  3)    156.7824         0.001518   
    217. D(Au  9,Cr 14,Au  2,Au  0)    -92.1762         0.001518   
    218. D(Au  8,Cr 14,Au  2,Au  1)     78.5978         0.001518   
    219. D(Au  8,Cr 14,Au  4,Au  3)    108.2083         0.001518   
    220. D(Au  8,Cr 14,Au  2,Au  3)     23.0734         0.001518   
    221. D(Au  8,Cr 14,Au  2,Au  0)    134.1147         0.001518   
    222. D(Au  7,Cr 14,Au  2,Au  1)      0.0046         0.001518   
    223. D(Au  7,Cr 14,Au  2,Au  3)    -55.5197         0.001518   
    224. D(Au  7,Cr 14,Au  2,Au  0)     55.5216         0.001518   
    225. D(Au  6,Cr 14,Au  2,Au  1)    -31.9908         0.001518   
    226. D(Au  6,Cr 14,Au  2,Au  3)    -87.5152         0.001518   
    227. D(Au  4,Cr 14,Au  5,Au  1)    -98.8506         0.001510   
    228. D(Au  6,Cr 14,Au  2,Au  0)     23.5262         0.001518   
    229. D(Au  5,Cr 14,Au  2,Au  1)     31.9964         0.001518   
    230. D(Au  5,Cr 14,Au  2,Au  3)    -23.5280         0.001518   
    231. D(Au  7,Cr 14,Au  5,Au  1)    116.0849         0.001510   
    232. D(Au 13,Cr 14,Au 12,Au  0)    139.3836         0.001518   
    233. D(Au  5,Cr 14,Au  2,Au  0)     87.5134         0.001518   
    234. D(Au  4,Cr 14,Au  2,Au  1)    102.2639         0.001518   
    235. D(Au 10,Cr 14,Au  5,Au  1)    151.7531         0.001510   
    236. D(Au  7,Cr 14,Au 12,Au  0)    -73.8455         0.001518   
    237. D(Au  4,Cr 14,Au  2,Au  3)     46.7395         0.001518   
    238. D(Au  4,Cr 14,Au  2,Au  0)    157.7808         0.001518   
    239. D(Au  4,Cr 14,Au 12,Au  0)     72.1321         0.001518   
    240. D(Au  2,Cr 14,Au 12,Au  0)     48.5205         0.001518   
    241. D(Au 12,Cr 14,Au  6,Au  0)     38.9484         0.001510   
    242. D(Au 11,Cr 14,Au  6,Au  1)    169.5724         0.001510   
    243. D(Au 11,Cr 14,Au  6,Au  0)    109.6729         0.001510   
    244. D(Au 10,Cr 14,Au  6,Au  1)   -151.7523         0.001510   
    245. D(Au 10,Cr 14,Au  6,Au  0)    148.3482         0.001510   
    246. D(Au  9,Cr 14,Au  6,Au  1)    133.1134         0.001510   
    247. D(Au  9,Cr 14,Au  6,Au  0)     73.2139         0.001510   
    248. D(Au  8,Cr 14,Au  6,Au  1)    -80.0865         0.001510   
    249. D(Au  8,Cr 14,Au  6,Au  0)   -139.9860         0.001510   
    250. D(Au  7,Cr 14,Au  6,Au  1)   -116.0842         0.001510   
    251. D(Au  7,Cr 14,Au  6,Au  0)   -175.9837         0.001510   
    252. D(Au  5,Cr 14,Au  6,Au  1)    -46.0604         0.001510   
    253. D(Au  5,Cr 14,Au  6,Au  0)   -105.9599         0.001510   
    254. D(Au  4,Cr 14,Au  6,Au  1)     -9.0484         0.001510   
    255. D(Au  4,Cr 14,Au  6,Au  0)    -68.9479         0.001510   
    256. D(Au  2,Cr 14,Au  6,Au  1)     36.0638         0.001510   
    257. D(Au  2,Cr 14,Au  6,Au  0)    -23.8357         0.001510   
    258. D(Au 13,Cr 14,Au  5,Au  1)   -133.1120         0.001510   
    259. D(Au 12,Cr 14,Au  6,Au  1)     98.8480         0.001510   
    260. D(Au 13,Cr 14,Au  5,Au  3)    -73.2059         0.001510   
    261. D(Au 12,Cr 14,Au  5,Au  1)      9.0447         0.001510   
    262. D(Au  5,Cr 14,Au 12,Au  0)     -4.2556         0.001518   
    263. D(Au  6,Cr 14,Au 12,Au  0)    -39.6975         0.001518   
    264. D(Au 12,Cr 14,Au  5,Au  3)     68.9508         0.001510   
    265. D(Au  9,Cr 14,Au 12,Au  0)    175.3535         0.001518   
    266. D(Au 10,Cr 14,Au 12,Au  0)   -146.2489         0.001518   
    267. D(Au 11,Cr 14,Au 12,Au  0)   -108.2182         0.001518   
    268. D(Au 11,Cr 14,Au  5,Au  1)     80.0876         0.001510   
    269. D(Au 11,Cr 14,Au  5,Au  3)    139.9937         0.001510   
    -----------------------------------------------------------------

Number of atoms                         .... 15
Number of degrees of freedom            .... 269

         *************************************************************
         *                GEOMETRY OPTIMIZATION CYCLE   1            *
         *************************************************************
---------------------------------
CARTESIAN COORDINATES (ANGSTROEM)
---------------------------------
  Au     5.600719    9.752510    5.642306
  Au     6.786078   11.128859    7.772055
  Au     6.682418    8.000498    7.629656
  Au     7.200632    9.500504   10.011310
  Au     8.738948    7.269046    9.320600
  Au     9.380050   10.101869    8.325410
  Au     8.374185   10.260485    5.578582
  Au    11.080312    9.760323    6.121249
  Au    11.318846    8.046609    8.409828
  Au     9.111236    5.649377    5.124599
  Au    11.661829    6.980192    5.747918
  Au     9.725625    8.297550    4.057660
  Au     7.138420    7.521194    4.949131
  Au    10.063960    5.499363    7.727673
  Cr     9.261165    7.800576    6.674068

----------------------------
CARTESIAN COORDINATES (A.U.)
----------------------------
  NO LB      ZA    FRAG     MASS         X           Y           Z
   0 Au   19.0000*   0   196.966   10.583824   18.429574   10.662413
   1 Au   19.0000*   0   196.966   12.823828   21.030495   14.687055
   2 Au   19.0000*   0   196.966   12.627940   15.118750   14.417960
   3 Au   19.0000*   0   196.966   13.607223   17.953350   18.918634
   4 Au   19.0000*   0   196.966   16.514218   13.736506   17.613382
   5 Au   19.0000*   0   196.966   17.725726   19.089766   15.732745
   6 Au   19.0000*   0   196.966   15.824916   19.389507   10.541992
   7 Au   19.0000*   0   196.966   20.938756   18.444337   11.567485
   8 Au   19.0000*   0   196.966   21.389520   15.205888   15.892272
   9 Au   19.0000*   0   196.966   17.217741   10.675775    9.684088
  10 Au   19.0000*   0   196.966   22.037663   13.190652   10.861991
  11 Au   19.0000*   0   196.966   18.378768   15.680097    7.667866
  12 Au   19.0000*   0   196.966   13.489660   14.212996    9.352503
  13 Au   19.0000*   0   196.966   19.018129   10.392290   14.603186
  14 Cr   24.0000    0    52.000   17.501065   14.740952   12.612161
* core charge reduced due to ECP

--------------------------------
INTERNAL COORDINATES (ANGSTROEM)
--------------------------------
 Au     0   0   0     0.000000000000     0.00000000     0.00000000
 Au     1   0   0     2.799149715797     0.00000000     0.00000000
 Au     1   2   0     2.861674579839    67.20559390     0.00000000
 Au     2   1   3     2.799581937623   112.66141111   344.12426824
 Au     3   1   2     2.761091938188   150.34685889   313.58036269
 Au     4   2   1     2.820241085286    60.80819272   101.83215761
 Au     1   2   3     2.820321513590    60.80350642   274.04471634
 Au     6   4   2     2.804615710806   155.82814265   273.69469063
 Au     6   4   2     2.826685339454   110.92517378   207.61080707
 Au     3   1   2     4.207402610903    98.44401384   233.67308546
 Au     8   6   4     2.864727275356   110.10027540   317.98466888
 Au     7   1   2     2.827138139864   110.92725657   152.39123974
 Au    10   3   1     2.725158495602    40.23590706   348.80646760
 Au     5   3   1     2.724858274169   100.14972300   267.37505813
 Cr    14   5   3     2.655210911770    61.45009428    44.79542911

---------------------------
INTERNAL COORDINATES (A.U.)
---------------------------
 Au     0   0   0     0.000000000000     0.00000000     0.00000000
 Au     1   0   0     5.289626370700     0.00000000     0.00000000
 Au     1   2   0     5.407781240300    67.20559390     0.00000000
 Au     2   1   3     5.290443151580   112.66141111   344.12426824
 Au     3   1   2     5.217707593753   150.34685889   313.58036269
 Au     4   2   1     5.329483282823    60.80819272   101.83215761
 Au     1   2   3     5.329635270292    60.80350642   274.04471634
 Au     6   4   2     5.299955604316   155.82814265   273.69469063
 Au     6   4   2     5.341661158339   110.92517378   207.61080707
 Au     3   1   2     7.950838669752    98.44401384   233.67308546
 Au     8   6   4     5.413549998797   110.10027540   317.98466888
 Au     7   1   2     5.342516827107   110.92725657   152.39123974
 Au    10   3   1     5.149803228216    40.23590706   348.80646760
 Au     5   3   1     5.149235891929   100.14972300   267.37505813
 Cr    14   5   3     5.017621451044    61.45009428    44.79542911

---------------------
BASIS SET INFORMATION
---------------------
There are 2 groups of distinct atoms

 Group   1 Type Au  : 8s7p6d1f contracted to 6s4p3d1f pattern {311111/4111/411/1}
 Group   2 Type Cr  : 17s11p7d1f contracted to 6s4p4d1f pattern {842111/6311/4111/1}

Atom   0Au   basis set group =>   1
Atom   1Au   basis set group =>   1
Atom   2Au   basis set group =>   1
Atom   3Au   basis set group =>   1
Atom   4Au   basis set group =>   1
Atom   5Au   basis set group =>   1
Atom   6Au   basis set group =>   1
Atom   7Au   basis set group =>   1
Atom   8Au   basis set group =>   1
Atom   9Au   basis set group =>   1
Atom  10Au   basis set group =>   1
Atom  11Au   basis set group =>   1
Atom  12Au   basis set group =>   1
Atom  13Au   basis set group =>   1
Atom  14Cr   basis set group =>   2
---------------------------------
AUXILIARY/J BASIS SET INFORMATION
---------------------------------
There are 2 groups of distinct atoms

 Group   1 Type Au  : 11s5p5d3f3g contracted to 8s5p5d2f3g pattern {41111111/11111/11111/21/111}
 Group   2 Type Cr  : 19s5p5d3f3g contracted to 8s5p5d2f3g pattern {121111111/11111/11111/21/111}

Atom   0Au   basis set group =>   1
Atom   1Au   basis set group =>   1
Atom   2Au   basis set group =>   1
Atom   3Au   basis set group =>   1
Atom   4Au   basis set group =>   1
Atom   5Au   basis set group =>   1
Atom   6Au   basis set group =>   1
Atom   7Au   basis set group =>   1
Atom   8Au   basis set group =>   1
Atom   9Au   basis set group =>   1
Atom  10Au   basis set group =>   1
Atom  11Au   basis set group =>   1
Atom  12Au   basis set group =>   1
Atom  13Au   basis set group =>   1
Atom  14Cr   basis set group =>   2
-------------------------
ECP PARAMETER INFORMATION
-------------------------

 Group 1, Type Au ECP Def2-ECP (replacing 60 core electrons, lmax=3)

Atom   0Au   ECP group =>   1
Atom   1Au   ECP group =>   1
Atom   2Au   ECP group =>   1
Atom   3Au   ECP group =>   1
Atom   4Au   ECP group =>   1
Atom   5Au   ECP group =>   1
Atom   6Au   ECP group =>   1
Atom   7Au   ECP group =>   1
Atom   8Au   ECP group =>   1
Atom   9Au   ECP group =>   1
Atom  10Au   ECP group =>   1
Atom  11Au   ECP group =>   1
Atom  12Au   ECP group =>   1
Atom  13Au   ECP group =>   1

------------------------------------------------------------------------------
                           ORCA GTO INTEGRAL CALCULATION
                           -- RI-GTO INTEGRALS CHOSEN --
------------------------------------------------------------------------------
------------------------------------------------------------------------------
                   ___                                                        
                  /   \      - P O W E R E D   B Y -                         
                 /     \                                                     
                 |  |  |   _    _      __       _____    __    __             
                 |  |  |  | |  | |    /  \     |  _  \  |  |  /  |          
                  \  \/   | |  | |   /    \    | | | |  |  | /  /          
                 / \  \   | |__| |  /  /\  \   | |_| |  |  |/  /          
                |  |  |   |  __  | /  /__\  \  |    /   |      \           
                |  |  |   | |  | | |   __   |  |    \   |  |\   \          
                \     /   | |  | | |  |  |  |  | |\  \  |  | \   \       
                 \___/    |_|  |_| |__|  |__|  |_| \__\ |__|  \__/        
                                                                              
                      - O R C A' S   B I G   F R I E N D -                    
                                      &                                       
                       - I N T E G R A L  F E E D E R -                       
                                                                              
 v1 FN, 2020, v2 2021                                                         
------------------------------------------------------------------------------


Reading SHARK input file pbe.SHARKINP.tmp ... ok
----------------------
SHARK INTEGRAL PACKAGE
----------------------

Number of atoms                             ...     15
Number of basis functions                   ...    605
Number of shells                            ...    211
Maximum angular momentum                    ...      3
Integral batch strategy                     ... SHARK/LIBINT Hybrid
RI-J (if used) integral strategy            ... SPLIT-RIJ (Revised 2003 algorithm where possible)
Printlevel                                  ...      1
Contraction scheme used                     ... SEGMENTED contraction
Coulomb Range Separation                    ... NOT USED
Exchange Range Separation                   ... NOT USED
Finite Nucleus Model                        ... NOT USED
Auxiliary Coulomb fitting basis             ... AVAILABLE
   # of basis functions in Aux-J            ...   1335
   # of shells in Aux-J                     ...    345
   Maximum angular momentum in Aux-J        ...      4
Auxiliary J/K fitting basis                 ... NOT available
Auxiliary Correlation fitting basis         ... NOT available
Auxiliary 'external' fitting basis          ... NOT available
Integral threshold                          ...     2.500000e-11
Primitive cut-off                           ...     2.500000e-12
Primitive pair pre-selection threshold      ...     2.500000e-12

Calculating pre-screening integrals         ... done (  0.3 sec) Dimension = 211
Organizing shell pair data                  ... done (  0.3 sec)
Shell pair information
Total number of shell pairs                 ...     22366
Shell pairs after pre-screening             ...     18071
Total number of primitive shell pairs       ...     59609
Primitive shell pairs kept                  ...     35075
          la=0 lb=0:   2822 shell pairs
          la=1 lb=0:   4154 shell pairs
          la=1 lb=1:   1533 shell pairs
          la=2 lb=0:   3583 shell pairs
          la=2 lb=1:   2530 shell pairs
          la=2 lb=2:   1034 shell pairs
          la=3 lb=0:    965 shell pairs
          la=3 lb=1:    724 shell pairs
          la=3 lb=2:    628 shell pairs
          la=3 lb=3:     98 shell pairs

Calculating one electron integrals          ... done (  0.1 sec)
Calculating ECP integrals                   ... done (  9.9 sec)
Calculating RI/J V-Matrix + Cholesky decomp.... done (  0.1 sec)
Calculating Nuclear repulsion               ... done (  0.0 sec) ENN=   5597.933694045400 Eh

SHARK setup successfully completed in  11.3 seconds

Maximum memory used throughout the entire GTOINT-calculation: 523.9 MB
-------------------------------------------------------------------------------
                                 ORCA SCF
-------------------------------------------------------------------------------

------------
SCF SETTINGS
------------
Hamiltonian:
 Density Functional     Method          .... DFT(GTOs)
 Exchange Functional    Exchange        .... PBE
   PBE kappa parameter   XKappa         ....  0.804000
   PBE mue parameter    XMuePBE         ....  0.219520
 Correlation Functional Correlation     .... PBE
   PBE beta parameter  CBetaPBE         ....  0.066725
 LDA part of GGA corr.  LDAOpt          .... PW91-LDA
 Gradients option       PostSCFGGA      .... off
   Density functional embedding theory  .... OFF
   NL short-range parameter             ....  6.400000
 RI-approximation to the Coulomb term is turned on
   Number of AuxJ basis functions       .... 1335


General Settings:
 Integral files         IntName         .... pbe
 Hartree-Fock type      HFTyp           .... UHF
 Total Charge           Charge          ....    0
 Multiplicity           Mult            ....    3
 Number of Electrons    NEL             ....  290
 Basis Dimension        Dim             ....  605
 Nuclear Repulsion      ENuc            ....   5597.9336940454 Eh

Convergence Acceleration:
 DIIS                   CNVDIIS         .... off
 Trust-Rad. Augm. Hess. CNVTRAH         .... auto
   Auto Start mean grad. ratio tolernc. ....  1.125000
   Auto Start start iteration           ....    20
   Auto Start num. interpolation iter.  ....    10
   Max. Number of Micro iterations      ....    16
   Max. Number of Macro iterations      .... Maxiter - #DIIS iter
   Number of Davidson start vectors     ....     2
   Converg. threshold I  (grad. norm)   ....   1.000e-05
   Converg. threshold II (energy diff.) ....   1.000e-08
   Grad. Scal. Fac. for Micro threshold ....   0.100
   Minimum threshold for Micro iter.    ....   0.010
   NR start threshold (gradient norm)   ....   0.001
   Initial trust radius                 ....   0.400
   Minimum AH scaling param. (alpha)    ....   1.000
   Maximum AH scaling param. (alpha)    .... 1000.000
   Orbital update algorithm             .... Taylor
   White noise on init. David. guess    .... on
   Maximum white noise                  ....   0.010
   Quad. conv. algorithm                .... NR
 SOSCF                  CNVSOSCF        .... off
 Level Shifting         CNVShift        .... off
 Zerner damping         CNVZerner       .... off
 Static damping         CNVDamp         .... off
 Fernandez-Rico         CNVRico         .... off

SCF Procedure:
 Maximum # iterations   MaxIter         ....   125
 SCF integral mode      SCFMode         .... Direct
   Integral package                     .... SHARK and LIBINT hybrid scheme
 Reset frequency        DirectResetFreq ....    20
 Integral Threshold     Thresh          ....  2.500e-11 Eh
 Primitive CutOff       TCut            ....  2.500e-12 Eh

Convergence Tolerance:
 Convergence Check Mode ConvCheckMode   .... Total+1el-Energy
 Convergence forced     ConvForced      .... 0
 Energy Change          TolE            ....  1.000e-08 Eh
 1-El. energy change                    ....  1.000e-05 Eh


Diagonalization of the overlap matrix:
Smallest eigenvalue                        ... 9.359e-05
Time for diagonalization                   ...    0.052 sec
Threshold for overlap eigenvalues          ... 1.000e-08
Number of eigenvalues below threshold      ... 0
Time for construction of square roots      ...    0.026 sec
Total time needed                          ...    0.079 sec

Time for model grid setup =    1.260 sec

------------------------------
INITIAL GUESS: MODEL POTENTIAL
------------------------------
Loading Hartree-Fock densities                     ... done
  calling /media/Programs/ORCA501/orca pbe_atom79.inp > pbe_atom79.out in order to generate an atomic fitting density for atom 0 (Au with ECP) on-the-fly... 
    atom 0 (Au), assumed electronic state with S=2: 1s2 2s2 2p6 3s2 3p6 4s2 3d10 4p6 5s2 4d10 5p6 6s1 4f14 5d10           ... done
Calculating cut-offs                               ... done
Initializing the effective Hamiltonian             ... done
Setting up the integral package (SHARK)            ... done
Starting the Coulomb interaction                   ... done (   2.3 sec)
Reading the grid                                   ... done
Mapping shells                                     ... done
Starting the XC term evaluation                    ... done (   2.7 sec)
  promolecular density results
     # of electrons  =   1130.014237577
     EX              =  -5168.777903567
     EC              =    -68.856926816
     EX+EC           =  -5237.634830383
Transforming the Hamiltonian                       ... done (   0.0 sec)
Diagonalizing the Hamiltonian                      ... done (   0.0 sec)
Back transforming the eigenvectors                 ... done (   0.0 sec)
Now organizing SCF variables                       ... done
                      ------------------
                      INITIAL GUESS DONE (   6.8 sec)
                      ------------------
-------------------
DFT GRID GENERATION
-------------------

General Integration Accuracy     IntAcc      ... 4.388
Radial Grid Type                 RadialGrid  ... OptM3 with GC (2021)
Angular Grid (max. ang.)         AngularGrid ... 4 (Lebedev-302)
Angular grid pruning method      GridPruning ... 4 (adaptive)
Weight generation scheme         WeightScheme... Becke
Basis function cutoff            BFCut       ... 1.0000e-11
Integration weight cutoff        WCut        ... 1.0000e-14
Angular grids for H and He will be reduced by one unit
Partially contracted basis set               ... off
Rotationally invariant grid construction     ... off

Total number of grid points                  ...   165768
Total number of batches                      ...     2598
Average number of points per batch           ...       63
Average number of grid points per atom       ...    11051
Time for grid setup =    3.014 sec

--------------
SCF ITERATIONS
--------------
ITER       Energy         Delta-E        Max-DP      RMS-DP      [F,P]   Gradient Norm
               ***  Starting incremental Fock matrix formation  ***
                             ****Resetting KDIIS****
                             ****Turning on KDIIS(Cayley)****
  0  -2943.5874896028   0.000000000000 0.38757162  0.00207614  0.4243771   0.226032600
  1  -2944.8827891673  -1.295299564541 1.02804114  0.00284823  0.3795787   0.168607385
  2  -2945.4310441600  -0.548254992720 0.13666214  0.00136442  0.2997966   0.125061925
  3  -2945.6635458641  -0.232501704114 0.26972245  0.00170858  0.1742967   0.073268608
  4  -2945.7064594613  -0.042913597142 0.06270395  0.00060510  0.0586030   0.025491858
  5  -2945.7661320972  -0.059672635921 0.51837827  0.00133340  0.0292432   0.007672369
  6  -2945.7836573115  -0.017525214329 0.16722826  0.00076633  0.0405261   0.010515560
  7  -2945.7999625721  -0.016305260564 0.15494006  0.00047627  0.0204796   0.008065199
  8  -2945.7998650064   0.000097565708 0.05244851  0.00035162  0.0142200   0.009055857
  9  -2945.8106818537  -0.010816847307 0.02872793  0.00016874  0.0094261   0.003503430
 10  -2945.8123536529  -0.001671799235 0.03951307  0.00015004  0.0087827   0.003279039
 11  -2945.8146166087  -0.002262955752 0.06976063  0.00014934  0.0117022   0.002578243
 12  -2945.8148353152  -0.000218706529 0.02654525  0.00010127  0.0100916   0.002948523
 13  -2945.8166793020  -0.001843986763 0.02400848  0.00014989  0.0076842   0.001338191
 14  -2945.8190107011  -0.002331399108 0.00629288  0.00007472  0.0085792   0.001841180
 15  -2945.8193381837  -0.000327482653 0.03567185  0.00015385  0.0057644   0.001677809
 16  -2945.8215166643  -0.002178480547 0.00931001  0.00006374  0.0071897   0.001672603
 17  -2945.8218972900  -0.000380625751 0.03017979  0.00022511  0.0053089   0.001532381
 18  -2945.8243991738  -0.002501883795 0.01657210  0.00016226  0.0084526   0.002531351
 19  -2945.8228421594   0.001557014461 0.04699161  0.00015467  0.0069996   0.001807391
               *** Restarting incremental Fock matrix formation ***
                             ****Resetting KDIIS****

 WARNING: the maximum gradient error descreased on average only by a factor   1.1
          during the last 20 iterations

                      *** Initiating the TRAH-SCF procedure ***

                    *** KDIIS BlockDiag ( 0.103 sec) ***

TRAH GRID
---------

General Integration Accuracy     IntAcc      ... 3.467
Radial Grid Type                 RadialGrid  ... OptM3 with GC (2021)
Angular Grid (max. ang.)         AngularGrid ... 1 (Lebedev-50)
Angular grid pruning method      GridPruning ... 4 (adaptive)
Weight generation scheme         WeightScheme... Becke
Basis function cutoff            BFCut       ... 1.0000e-11
Integration weight cutoff        WCut        ... 1.0000e-14
Angular grids for H and He will be reduced by one unit
Partially contracted basis set               ... off
Rotationally invariant grid construction     ... off

Total number of grid points                  ...    71528
Total number of batches                      ...     1126
Average number of points per batch           ...       63
Average number of grid points per atom       ...     4769

 --------------------------------------------------------------------------------------------
   Iter.        energy            ||Error||_2        Shift      TRadius  Mac/Mic        Rej.
 --------------------------------------------------------------------------------------------
    0      -2945.824603582988     2.460069e-02                     0.400 (TRAH MAcro)   No
WARNING : small    HOMO - LUMO gap : (op = alpha) 0.018589
    0     dE    -1.419727e-04     3.973587e-02    -1.4197e-04      0.006 (TRAH MIcro)
    0     dE    -7.728523e-04     3.682797e-02    -7.6921e-04      0.069 (TRAH MIcro)
    0     dE    -2.140227e-03     4.409589e-02    -2.0500e-03      0.210 (TRAH MIcro)
    0     dE    -2.860209e-03     2.084037e-02    -2.6412e-03      0.288 (TRAH MIcro)
    0     dE    -3.078141e-03     9.996753e-03    -2.8092e-03      0.309 (TRAH MIcro)
    0     dE    -3.180344e-03     9.274157e-03    -2.8889e-03      0.318 (TRAH MIcro)
    0     dE    -3.208292e-03     2.771299e-03    -2.9127e-03      0.319 (TRAH MIcro)
    0     dE    -3.210788e-03     1.182278e-03    -2.9152e-03      0.318 (TRAH MIcro)
    1      -2945.826722718696     2.368334e-02                     0.400 (TRAH MAcro)   No
WARNING : small    HOMO - LUMO gap : (op = alpha) 0.014560
    1     dE    -1.323551e-04     1.450763e-02    -1.3235e-04      0.006 (TRAH MIcro)
    1     dE    -2.331480e-04     6.212084e-03    -2.3306e-04      0.020 (TRAH MIcro)
    1     dE    -3.405002e-04     7.639703e-03    -3.3983e-04      0.044 (TRAH MIcro)
    1     dE    -3.791478e-04     3.740540e-03    -3.7799e-04      0.055 (TRAH MIcro)
    1     dE    -3.849609e-04     1.506004e-03    -3.8370e-04      0.057 (TRAH MIcro)
    2      -2945.827128277178     1.836394e-03                     0.480 (TRAH MAcro)   No
WARNING : small    HOMO - LUMO gap : (op = alpha) 0.018360
    2     dE    -4.048423e-07     3.155056e-03    -4.0484e-07      0.000 (TRAH MIcro)
    2     dE    -2.309852e-06     1.810881e-03    -2.3098e-06      0.003 (TRAH MIcro)
    2     dE    -5.987344e-06     2.047569e-03    -5.9869e-06      0.008 (TRAH MIcro)
    2     dE    -7.731207e-06     7.853538e-04    -7.7301e-06      0.012 (TRAH MIcro)
    2     dE    -7.893303e-06     4.253023e-04    -7.8922e-06      0.012 (TRAH MIcro)
    2     dE    -8.010112e-06     2.072106e-04    -8.0089e-06      0.012 (TRAH MIcro)
    2     dE    -8.031894e-06     9.965832e-05    -8.0307e-06      0.012 (TRAH MIcro)
    3      -2945.827136365563     1.076501e-04                           (NR   MAcro)
WARNING : small    HOMO - LUMO gap : (op = alpha) 0.018512
    3     dE    -2.395131e-09     7.989255e-05                           (NR   MIcro)
    3     dE    -5.063937e-09     4.697199e-05                           (NR   MIcro)
    3     dE    -6.809672e-09     2.705877e-05                           (NR   MIcro)
    3     dE    -7.325234e-09     2.037036e-05                           (NR   MIcro)
    3     dE    -7.594808e-09     1.243743e-05                           (NR   MIcro)
    3     dE    -7.664099e-09     6.847165e-06                           (NR   MIcro)
    3     dE    -7.689639e-09     3.358381e-06                           (NR   MIcro)
    3     dE    -7.695875e-09     1.757472e-06                           (NR   MIcro)
    3     dE    -7.697671e-09     7.858809e-07                           (NR   MIcro)
    4      -2945.827136373255     7.879468e-07                           (NR   MAcro)
WARNING : small    HOMO - LUMO gap : (op = alpha) 0.018517

               *****************************************************
               *                     SUCCESS                       *
               *           SCF CONVERGED AFTER  54 CYCLES          *
               *****************************************************


----------------
TOTAL SCF ENERGY
----------------

Total Energy       :        -2945.82713637 Eh          -80160.03164 eV

Components:
Nuclear Repulsion  :         5597.93369405 Eh          152327.52000 eV
Electronic Energy  :        -8543.76083042 Eh         -232487.55163 eV
One Electron Energy:       -15962.56388675 Eh         -434363.44597 eV
Two Electron Energy:         7418.80305633 Eh          201875.89433 eV

Virial components:
Potential Energy   :        -4629.57893847 Eh         -125977.24748 eV
Kinetic Energy     :         1683.75180209 Eh           45817.21584 eV
Virial Ratio       :            2.74956139


DFT components:
N(Alpha)           :      146.000022864938 electrons
N(Beta)            :      144.000018881313 electrons
N(Total)           :      290.000041746252 electrons
E(X)               :     -216.148313792698 Eh       
E(C)               :      -12.646976569475 Eh       
E(XC)              :     -228.795290362172 Eh       
DFET-embed. en.    :        0.000000000000 Eh       

---------------
SCF CONVERGENCE
---------------

  Last Energy change         ...   -7.6916e-09  Tolerance :   1.0000e-08
  Last Orbital Gradient      ...    7.8795e-07  Tolerance :   1.0000e-05
  Last Orbital Rotation      ...    2.7438e-04

             **** THE GBW FILE WAS UPDATED (pbe.gbw) ****
             **** DENSITY pbe.scfp WAS UPDATED ****
             **** ENERGY FILE WAS UPDATED (pbe.en.tmp) ****
----------------------
UHF SPIN CONTAMINATION
----------------------

Warning: in a DFT calculation there is little theoretical justification to 
         calculate <S**2> as in Hartree-Fock theory. We will do it anyways
         but you should keep in mind that the values have only limited relevance

Expectation value of <S**2>     :     3.162439
Ideal value S*(S+1) for S=1.0   :     2.000000
Deviation                       :     1.162439

             **** THE GBW FILE WAS UPDATED (pbe.gbw) ****
             **** DENSITY pbe.scfp WAS UPDATED ****
----------------
ORBITAL ENERGIES
----------------
                 SPIN UP ORBITALS
  NO   OCC          E(Eh)            E(eV) 
   0   1.0000    -214.503333     -5836.9324 
   1   1.0000     -24.305274      -661.3801 
   2   1.0000     -20.671200      -562.4919 
   3   1.0000     -20.668041      -562.4060 
   4   1.0000     -20.667298      -562.3858 
   5   1.0000      -4.030218      -109.6678 
   6   1.0000      -4.030154      -109.6661 
   7   1.0000      -4.029568      -109.6501 
   8   1.0000      -4.029557      -109.6498 
   9   1.0000      -4.028627      -109.6245 
  10   1.0000      -4.025925      -109.5510 
  11   1.0000      -4.025766      -109.5467 
  12   1.0000      -4.025745      -109.5461 
  13   1.0000      -4.023581      -109.4872 
  14   1.0000      -4.023444      -109.4835 
  15   1.0000      -4.022485      -109.4574 
  16   1.0000      -4.018247      -109.3421 
  17   1.0000      -4.018245      -109.3420 
  18   1.0000      -4.014945      -109.2522 
  19   1.0000      -2.804166       -76.3052 
  20   1.0000      -2.247661       -61.1620 
  21   1.0000      -2.247015       -61.1444 
  22   1.0000      -2.246517       -61.1308 
  23   1.0000      -2.246482       -61.1299 
  24   1.0000      -2.244517       -61.0764 
  25   1.0000      -2.243918       -61.0601 
  26   1.0000      -2.243120       -61.0384 
  27   1.0000      -2.242750       -61.0283 
  28   1.0000      -2.241809       -61.0027 
  29   1.0000      -2.241798       -61.0024 
  30   1.0000      -2.241323       -60.9895 
  31   1.0000      -2.241107       -60.9836 
  32   1.0000      -2.241004       -60.9808 
  33   1.0000      -2.240711       -60.9728 
  34   1.0000      -2.240708       -60.9728 
  35   1.0000      -2.240494       -60.9669 
  36   1.0000      -2.240484       -60.9667 
  37   1.0000      -2.240119       -60.9567 
  38   1.0000      -2.239448       -60.9385 
  39   1.0000      -2.238610       -60.9157 
  40   1.0000      -2.238349       -60.9086 
  41   1.0000      -2.238014       -60.8995 
  42   1.0000      -2.237855       -60.8951 
  43   1.0000      -2.237356       -60.8816 
  44   1.0000      -2.236948       -60.8705 
  45   1.0000      -2.236345       -60.8540 
  46   1.0000      -2.236295       -60.8527 
  47   1.0000      -2.235702       -60.8366 
  48   1.0000      -2.234131       -60.7938 
  49   1.0000      -2.233359       -60.7728 
  50   1.0000      -2.233293       -60.7710 
  51   1.0000      -2.233097       -60.7657 
  52   1.0000      -2.232344       -60.7452 
  53   1.0000      -2.232266       -60.7430 
  54   1.0000      -2.232080       -60.7380 
  55   1.0000      -2.231972       -60.7350 
  56   1.0000      -2.231424       -60.7201 
  57   1.0000      -2.229541       -60.6689 
  58   1.0000      -2.228739       -60.6471 
  59   1.0000      -2.228577       -60.6427 
  60   1.0000      -2.228205       -60.6325 
  61   1.0000      -2.224877       -60.5420 
  62   1.0000      -1.795913       -48.8693 
  63   1.0000      -1.793153       -48.7942 
  64   1.0000      -1.791749       -48.7560 
  65   1.0000      -0.429652       -11.6914 
  66   1.0000      -0.388477       -10.5710 
  67   1.0000      -0.384068       -10.4510 
  68   1.0000      -0.382127       -10.3982 
  69   1.0000      -0.371930       -10.1207 
  70   1.0000      -0.369436       -10.0529 
  71   1.0000      -0.366976        -9.9859 
  72   1.0000      -0.363465        -9.8904 
  73   1.0000      -0.360182        -9.8010 
  74   1.0000      -0.359339        -9.7781 
  75   1.0000      -0.353077        -9.6077 
  76   1.0000      -0.348954        -9.4955 
  77   1.0000      -0.346941        -9.4407 
  78   1.0000      -0.345289        -9.3958 
  79   1.0000      -0.342349        -9.3158 
  80   1.0000      -0.341453        -9.2914 
  81   1.0000      -0.340467        -9.2646 
  82   1.0000      -0.338540        -9.2121 
  83   1.0000      -0.335424        -9.1274 
  84   1.0000      -0.332863        -9.0577 
  85   1.0000      -0.331752        -9.0274 
  86   1.0000      -0.330835        -9.0025 
  87   1.0000      -0.327650        -8.9158 
  88   1.0000      -0.325647        -8.8613 
  89   1.0000      -0.323805        -8.8112 
  90   1.0000      -0.322557        -8.7772 
  91   1.0000      -0.321781        -8.7561 
  92   1.0000      -0.317803        -8.6478 
  93   1.0000      -0.315016        -8.5720 
  94   1.0000      -0.314842        -8.5673 
  95   1.0000      -0.308706        -8.4003 
  96   1.0000      -0.304420        -8.2837 
  97   1.0000      -0.303873        -8.2688 
  98   1.0000      -0.299932        -8.1616 
  99   1.0000      -0.296361        -8.0644 
 100   1.0000      -0.293047        -7.9742 
 101   1.0000      -0.292024        -7.9464 
 102   1.0000      -0.288229        -7.8431 
 103   1.0000      -0.285721        -7.7749 
 104   1.0000      -0.284633        -7.7453 
 105   1.0000      -0.283634        -7.7181 
 106   1.0000      -0.282661        -7.6916 
 107   1.0000      -0.281070        -7.6483 
 108   1.0000      -0.279376        -7.6022 
 109   1.0000      -0.276898        -7.5348 
 110   1.0000      -0.275859        -7.5065 
 111   1.0000      -0.273034        -7.4296 
 112   1.0000      -0.272103        -7.4043 
 113   1.0000      -0.271920        -7.3993 
 114   1.0000      -0.270685        -7.3657 
 115   1.0000      -0.269308        -7.3282 
 116   1.0000      -0.268532        -7.3071 
 117   1.0000      -0.268231        -7.2989 
 118   1.0000      -0.267079        -7.2676 
 119   1.0000      -0.265026        -7.2117 
 120   1.0000      -0.263867        -7.1802 
 121   1.0000      -0.262032        -7.1303 
 122   1.0000      -0.261606        -7.1187 
 123   1.0000      -0.260478        -7.0880 
 124   1.0000      -0.260093        -7.0775 
 125   1.0000      -0.258146        -7.0245 
 126   1.0000      -0.256227        -6.9723 
 127   1.0000      -0.252828        -6.8798 
 128   1.0000      -0.252603        -6.8737 
 129   1.0000      -0.249909        -6.8004 
 130   1.0000      -0.249622        -6.7926 
 131   1.0000      -0.248417        -6.7598 
 132   1.0000      -0.246670        -6.7122 
 133   1.0000      -0.245889        -6.6910 
 134   1.0000      -0.243136        -6.6161 
 135   1.0000      -0.241637        -6.5753 
 136   1.0000      -0.238913        -6.5012 
 137   1.0000      -0.238281        -6.4840 
 138   1.0000      -0.232210        -6.3187 
 139   1.0000      -0.221769        -6.0346 
 140   1.0000      -0.218769        -5.9530 
 141   1.0000      -0.212292        -5.7768 
 142   1.0000      -0.211540        -5.7563 
 143   1.0000      -0.211180        -5.7465 
 144   1.0000      -0.197042        -5.3618 
 145   1.0000      -0.196560        -5.3487 
 146   0.0000      -0.178043        -4.8448 
 147   0.0000      -0.169974        -4.6252 
 148   0.0000      -0.164662        -4.4807 
 149   0.0000      -0.138677        -3.7736 
 150   0.0000      -0.132786        -3.6133 
 151   0.0000      -0.132599        -3.6082 
 152   0.0000      -0.118939        -3.2365 
 153   0.0000      -0.113799        -3.0966 
 154   0.0000      -0.103400        -2.8137 
 155   0.0000      -0.066399        -1.8068 
 156   0.0000      -0.061915        -1.6848 
 157   0.0000      -0.061244        -1.6665 
 158   0.0000      -0.055545        -1.5115 
 159   0.0000      -0.038690        -1.0528 
 160   0.0000      -0.036427        -0.9912 
 161   0.0000      -0.034469        -0.9379 
 162   0.0000      -0.032845        -0.8938 
 163   0.0000      -0.025718        -0.6998 
 164   0.0000      -0.018890        -0.5140 
 165   0.0000      -0.008840        -0.2405 
 166   0.0000      -0.003687        -0.1003 
 167   0.0000       0.025781         0.7015 
 168   0.0000       0.032915         0.8957 
 169   0.0000       0.036136         0.9833 
 170   0.0000       0.037229         1.0131 
 171   0.0000       0.041557         1.1308 
 172   0.0000       0.047427         1.2905 
 173   0.0000       0.051035         1.3887 
 174   0.0000       0.053025         1.4429 
 175   0.0000       0.057293         1.5590 
 176   0.0000       0.058041         1.5794 
 177   0.0000       0.063590         1.7304 
 178   0.0000       0.065091         1.7712 
 179   0.0000       0.065974         1.7953 
 180   0.0000       0.070993         1.9318 
 181   0.0000       0.074980         2.0403 
 182   0.0000       0.081144         2.2080 
 183   0.0000       0.083584         2.2744 
 184   0.0000       0.087992         2.3944 
 185   0.0000       0.091535         2.4908 
 186   0.0000       0.091868         2.4999 
 187   0.0000       0.104942         2.8556 
 188   0.0000       0.107769         2.9325 
 189   0.0000       0.119440         3.2501 
 190   0.0000       0.123019         3.3475 
 191   0.0000       0.128435         3.4949 
 192   0.0000       0.129677         3.5287 
 193   0.0000       0.132716         3.6114 
 194   0.0000       0.136410         3.7119 
 195   0.0000       0.137663         3.7460 
 196   0.0000       0.140746         3.8299 
 197   0.0000       0.141736         3.8568 
 198   0.0000       0.146412         3.9841 
 199   0.0000       0.155392         4.2284 
 200   0.0000       0.159939         4.3521 
 201   0.0000       0.161499         4.3946 
 202   0.0000       0.162513         4.4222 
 203   0.0000       0.170397         4.6367 
 204   0.0000       0.187616         5.1053 
 205   0.0000       0.191464         5.2100 
 206   0.0000       0.197680         5.3792 
 207   0.0000       0.198322         5.3966 
 208   0.0000       0.206107         5.6084 
 209   0.0000       0.208124         5.6633 
 210   0.0000       0.209814         5.7093 
 211   0.0000       0.219152         5.9634 
 212   0.0000       0.219770         5.9803 
 213   0.0000       0.226011         6.1501 
 214   0.0000       0.226939         6.1753 
 215   0.0000       0.233760         6.3609 
 216   0.0000       0.235921         6.4197 
 217   0.0000       0.240557         6.5459 
 218   0.0000       0.247887         6.7453 
 219   0.0000       0.248889         6.7726 
 220   0.0000       0.259574         7.0634 
 221   0.0000       0.260874         7.0987 
 222   0.0000       0.267939         7.2910 
 223   0.0000       0.276644         7.5279 
 224   0.0000       0.278827         7.5873 
 225   0.0000       0.281872         7.6701 
 226   0.0000       0.290845         7.9143 
 227   0.0000       0.295110         8.0303 
 228   0.0000       0.300268         8.1707 
 229   0.0000       0.302796         8.2395 
 230   0.0000       0.312377         8.5002 
 231   0.0000       0.312392         8.5006 
 232   0.0000       0.314890         8.5686 
 233   0.0000       0.318052         8.6546 
 234   0.0000       0.320767         8.7285 
 235   0.0000       0.323450         8.8015 
 236   0.0000       0.325933         8.8691 
 237   0.0000       0.333612         9.0780 
 238   0.0000       0.335754         9.1363 
 239   0.0000       0.338805         9.2193 
 240   0.0000       0.344186         9.3658 
 241   0.0000       0.346816         9.4373 
 242   0.0000       0.352827         9.6009 
 243   0.0000       0.358585         9.7576 
 244   0.0000       0.368823        10.0362 
 245   0.0000       0.373316        10.1584 
 246   0.0000       0.373577        10.1656 
 247   0.0000       0.382949        10.4206 
 248   0.0000       0.386686        10.5223 
 249   0.0000       0.393463        10.7067 
 250   0.0000       0.399845        10.8803 
 251   0.0000       0.404311        11.0019 
 252   0.0000       0.406607        11.0643 
 253   0.0000       0.411371        11.1940 
 254   0.0000       0.415212        11.2985 
 255   0.0000       0.421566        11.4714 
 256   0.0000       0.426063        11.5938 
 257   0.0000       0.427325        11.6281 
 258   0.0000       0.436209        11.8699 
 259   0.0000       0.437627        11.9084 
 260   0.0000       0.439350        11.9553 
 261   0.0000       0.444393        12.0925 
 262   0.0000       0.455512        12.3951 
 263   0.0000       0.457624        12.4526 
 264   0.0000       0.463333        12.6079 
 265   0.0000       0.465293        12.6613 
 266   0.0000       0.468589        12.7509 
 267   0.0000       0.474944        12.9239 
 268   0.0000       0.478282        13.0147 
 269   0.0000       0.484699        13.1893 
 270   0.0000       0.485209        13.2032 
 271   0.0000       0.490717        13.3531 
 272   0.0000       0.494506        13.4562 
 273   0.0000       0.497082        13.5263 
 274   0.0000       0.498785        13.5726 
 275   0.0000       0.505910        13.7665 
 276   0.0000       0.507232        13.8025 
 277   0.0000       0.509167        13.8551 
 278   0.0000       0.520765        14.1707 
 279   0.0000       0.521127        14.1806 
 280   0.0000       0.528283        14.3753 
 281   0.0000       0.529484        14.4080 
 282   0.0000       0.533741        14.5238 
 283   0.0000       0.537077        14.6146 
 284   0.0000       0.540415        14.7054 
 285   0.0000       0.541000        14.7214 
 286   0.0000       0.547501        14.8983 
 287   0.0000       0.552610        15.0373 
 288   0.0000       0.553835        15.0706 
 289   0.0000       0.558290        15.1918 
 290   0.0000       0.564628        15.3643 
 291   0.0000       0.567324        15.4377 
 292   0.0000       0.581437        15.8217 
 293   0.0000       0.590527        16.0691 
 294   0.0000       0.611884        16.6502 
 295   0.0000       0.655853        17.8467 
 296   0.0000       0.671691        18.2776 
 297   0.0000       0.671940        18.2844 
 298   0.0000       0.691609        18.8196 
 299   0.0000       0.695303        18.9202 
 300   0.0000       0.700904        19.0726 
 301   0.0000       0.711360        19.3571 
 302   0.0000       0.716589        19.4994 
 303   0.0000       0.724825        19.7235 
 304   0.0000       0.726821        19.7778 
 305   0.0000       0.741392        20.1743 
 306   0.0000       0.742853        20.2141 
 307   0.0000       0.766590        20.8600 
 308   0.0000       0.768900        20.9228 
 309   0.0000       0.777407        21.1543 
 310   0.0000       0.785510        21.3748 
 311   0.0000       0.805284        21.9129 
 312   0.0000       0.805638        21.9225 
 313   0.0000       0.827637        22.5212 
 314   0.0000       0.835219        22.7275 
 315   0.0000       0.846326        23.0297 
 316   0.0000       0.865397        23.5486 
 317   0.0000       0.876815        23.8594 
 318   0.0000       0.883334        24.0367 
 319   0.0000       0.892853        24.2958 
 320   0.0000       0.894049        24.3283 
 321   0.0000       0.904770        24.6200 
 322   0.0000       0.907190        24.6859 
 323   0.0000       0.913488        24.8573 
 324   0.0000       0.917427        24.9645 
 325   0.0000       0.931555        25.3489 
 326   0.0000       0.933097        25.3909 
 327   0.0000       0.958601        26.0849 
 328   0.0000       0.978185        26.6178 
 329   0.0000       0.983274        26.7562 
 330   0.0000       1.015933        27.6449 
 331   0.0000       1.050016        28.5724 
 332   0.0000       1.077004        29.3068 
 333   0.0000       1.122156        30.5354 
 334   0.0000       1.143816        31.1248 
 335   0.0000       1.150957        31.3191 
 336   0.0000       1.186879        32.2966 
 337   0.0000       1.197971        32.5984 
 338   0.0000       1.225631        33.3511 
 339   0.0000       1.230849        33.4931 
 340   0.0000       1.235121        33.6093 
 341   0.0000       1.248539        33.9745 
 342   0.0000       1.267762        34.4976 
 343   0.0000       1.274063        34.6690 
 344   0.0000       1.275808        34.7165 
 345   0.0000       1.289587        35.0914 
 346   0.0000       1.297240        35.2997 
 347   0.0000       1.298265        35.3276 
 348   0.0000       1.308308        35.6009 
 349   0.0000       1.315495        35.7964 
 350   0.0000       1.318506        35.8784 
 351   0.0000       1.325149        36.0591 
 352   0.0000       1.329745        36.1842 
 353   0.0000       1.338711        36.4282 
 354   0.0000       1.339434        36.4478 
 355   0.0000       1.366773        37.1918 
 356   0.0000       1.367787        37.2194 
 357   0.0000       1.376776        37.4640 
 358   0.0000       1.380069        37.5536 
 359   0.0000       1.391557        37.8662 
 360   0.0000       1.392822        37.9006 
 361   0.0000       1.396355        37.9968 
 362   0.0000       1.397651        38.0320 
 363   0.0000       1.412265        38.4297 
 364   0.0000       1.413375        38.4599 
 365   0.0000       1.417587        38.5745 
 366   0.0000       1.421753        38.6879 
 367   0.0000       1.423209        38.7275 
 368   0.0000       1.424440        38.7610 
 369   0.0000       1.426544        38.8182 
 370   0.0000       1.431316        38.9481 
 371   0.0000       1.433903        39.0185 
 372   0.0000       1.438760        39.1507 
 373   0.0000       1.443135        39.2697 
 374   0.0000       1.444206        39.2989 
 375   0.0000       1.445415        39.3317 
 376   0.0000       1.446417        39.3590 
 377   0.0000       1.446916        39.3726 
 378   0.0000       1.455649        39.6102 
 379   0.0000       1.458290        39.6821 
 380   0.0000       1.459058        39.7030 
 381   0.0000       1.463131        39.8138 
 382   0.0000       1.463986        39.8371 
 383   0.0000       1.465142        39.8686 
 384   0.0000       1.472105        40.0580 
 385   0.0000       1.472418        40.0665 
 386   0.0000       1.474276        40.1171 
 387   0.0000       1.474960        40.1357 
 388   0.0000       1.477822        40.2136 
 389   0.0000       1.479426        40.2572 
 390   0.0000       1.480534        40.2874 
 391   0.0000       1.482611        40.3439 
 392   0.0000       1.483675        40.3729 
 393   0.0000       1.486678        40.4546 
 394   0.0000       1.487553        40.4784 
 395   0.0000       1.489248        40.5245 
 396   0.0000       1.490677        40.5634 
 397   0.0000       1.493794        40.6482 
 398   0.0000       1.494060        40.6554 
 399   0.0000       1.494849        40.6769 
 400   0.0000       1.498875        40.7865 
 401   0.0000       1.501300        40.8525 
 402   0.0000       1.501724        40.8640 
 403   0.0000       1.502715        40.8910 
 404   0.0000       1.504882        40.9499 
 405   0.0000       1.505461        40.9657 
 406   0.0000       1.508238        41.0412 
 407   0.0000       1.508610        41.0514 
 408   0.0000       1.509161        41.0664 
 409   0.0000       1.510983        41.1159 
 410   0.0000       1.511793        41.1380 
 411   0.0000       1.513710        41.1902 
 412   0.0000       1.514219        41.2040 
 413   0.0000       1.515902        41.2498 
 414   0.0000       1.519103        41.3369 
 415   0.0000       1.520777        41.3824 
 416   0.0000       1.520788        41.3827 
 417   0.0000       1.522454        41.4281 
 418   0.0000       1.524642        41.4876 
 419   0.0000       1.525783        41.5187 
 420   0.0000       1.527773        41.5728 
 421   0.0000       1.531111        41.6636 
 422   0.0000       1.531163        41.6651 
 423   0.0000       1.532556        41.7030 
 424   0.0000       1.537841        41.8468 
 425   0.0000       1.538708        41.8704 
 426   0.0000       1.542680        41.9785 
 427   0.0000       1.544661        42.0324 
 428   0.0000       1.546502        42.0825 
 429   0.0000       1.549815        42.1726 
 430   0.0000       1.551505        42.2186 
 431   0.0000       1.555262        42.3208 
 432   0.0000       1.558234        42.4017 
 433   0.0000       1.559306        42.4309 
 434   0.0000       1.562693        42.5230 
 435   0.0000       1.565686        42.6045 
 436   0.0000       1.570247        42.7286 
 437   0.0000       1.571542        42.7638 
 438   0.0000       1.573275        42.8110 
 439   0.0000       1.573817        42.8257 
 440   0.0000       1.576163        42.8896 
 441   0.0000       1.577102        42.9151 
 442   0.0000       1.580749        43.0144 
 443   0.0000       1.583293        43.0836 
 444   0.0000       1.585052        43.1315 
 445   0.0000       1.587452        43.1968 
 446   0.0000       1.593256        43.3547 
 447   0.0000       1.595689        43.4209 
 448   0.0000       1.597223        43.4627 
 449   0.0000       1.600647        43.5558 
 450   0.0000       1.600937        43.5637 
 451   0.0000       1.602502        43.6063 
 452   0.0000       1.605403        43.6852 
 453   0.0000       1.608351        43.7654 
 454   0.0000       1.612373        43.8749 
 455   0.0000       1.613830        43.9146 
 456   0.0000       1.615528        43.9607 
 457   0.0000       1.620388        44.0930 
 458   0.0000       1.621246        44.1164 
 459   0.0000       1.623784        44.1854 
 460   0.0000       1.628219        44.3061 
 461   0.0000       1.632012        44.4093 
 462   0.0000       1.634345        44.4728 
 463   0.0000       1.639313        44.6080 
 464   0.0000       1.648431        44.8561 
 465   0.0000       1.651028        44.9267 
 466   0.0000       1.663789        45.2740 
 467   0.0000       1.666741        45.3543 
 468   0.0000       1.667851        45.3845 
 469   0.0000       1.672013        45.4978 
 470   0.0000       1.676345        45.6157 
 471   0.0000       1.686782        45.8997 
 472   0.0000       1.690164        45.9917 
 473   0.0000       1.694208        46.1017 
 474   0.0000       1.698664        46.2230 
 475   0.0000       1.704207        46.3738 
 476   0.0000       1.718018        46.7497 
 477   0.0000       1.726532        46.9813 
 478   0.0000       1.727258        47.0011 
 479   0.0000       1.732067        47.1319 
 480   0.0000       1.739115        47.3237 
 481   0.0000       1.742541        47.4169 
 482   0.0000       1.745168        47.4884 
 483   0.0000       1.750236        47.6263 
 484   0.0000       1.763152        47.9778 
 485   0.0000       1.766615        48.0720 
 486   0.0000       1.770233        48.1705 
 487   0.0000       1.775858        48.3236 
 488   0.0000       1.791052        48.7370 
 489   0.0000       1.794005        48.8174 
 490   0.0000       1.795360        48.8542 
 491   0.0000       1.796761        48.8924 
 492   0.0000       1.811080        49.2820 
 493   0.0000       1.815890        49.4129 
 494   0.0000       1.822725        49.5989 
 495   0.0000       1.826084        49.6903 
 496   0.0000       1.832269        49.8586 
 497   0.0000       1.864507        50.7358 
 498   0.0000       1.866735        50.7964 
 499   0.0000       1.874306        51.0025 
 500   0.0000       1.881916        51.2095 
 501   0.0000       1.904837        51.8333 
 502   0.0000       1.936073        52.6832 
[...]
 220( 0) :     0.257524 a.u.     7.008 eV
 221( 0) :     0.259080 a.u.     7.050 eV
 222( 0) :     0.265088 a.u.     7.213 eV
 223( 0) :     0.273936 a.u.     7.454 eV
 224( 0) :     0.275784 a.u.     7.504 eV
 225( 0) :     0.280674 a.u.     7.638 eV
 226( 0) :     0.281888 a.u.     7.671 eV
 227( 0) :     0.296977 a.u.     8.081 eV
 228( 0) :     0.299790 a.u.     8.158 eV
 229( 0) :     0.302982 a.u.     8.245 eV
 230( 0) :     0.311800 a.u.     8.484 eV
 231( 0) :     0.312056 a.u.     8.491 eV
 232( 0) :     0.313725 a.u.     8.537 eV
 233( 0) :     0.315851 a.u.     8.595 eV
 234( 0) :     0.324837 a.u.     8.839 eV
 235( 0) :     0.325309 a.u.     8.852 eV
 236( 0) :     0.329872 a.u.     8.976 eV
 237( 0) :     0.336413 a.u.     9.154 eV
 238( 0) :     0.338094 a.u.     9.200 eV
 239( 0) :     0.341257 a.u.     9.286 eV
 240( 0) :     0.342165 a.u.     9.311 eV
 241( 0) :     0.347660 a.u.     9.460 eV
 242( 0) :     0.353612 a.u.     9.622 eV
 243( 0) :     0.359127 a.u.     9.772 eV
 244( 0) :     0.371862 a.u.    10.119 eV
 245( 0) :     0.373347 a.u.    10.159 eV
 246( 0) :     0.377198 a.u.    10.264 eV
 247( 0) :     0.384633 a.u.    10.466 eV
 248( 0) :     0.387954 a.u.    10.557 eV
 249( 0) :     0.392322 a.u.    10.676 eV
 250( 0) :     0.400791 a.u.    10.906 eV
 251( 0) :     0.404002 a.u.    10.993 eV
 252( 0) :     0.406881 a.u.    11.072 eV
 253( 0) :     0.409682 a.u.    11.148 eV
 254( 0) :     0.410125 a.u.    11.160 eV
 255( 0) :     0.417086 a.u.    11.349 eV
 256( 0) :     0.418691 a.u.    11.393 eV
 257( 0) :     0.424738 a.u.    11.558 eV
 258( 0) :     0.428358 a.u.    11.656 eV
 259( 0) :     0.430471 a.u.    11.714 eV
 260( 0) :     0.433664 a.u.    11.801 eV
 261( 0) :     0.441793 a.u.    12.022 eV
 262( 0) :     0.452778 a.u.    12.321 eV
 263( 0) :     0.459324 a.u.    12.499 eV
 264( 0) :     0.461871 a.u.    12.568 eV
 265( 0) :     0.463366 a.u.    12.609 eV
 266( 0) :     0.469676 a.u.    12.781 eV
 267( 0) :     0.474070 a.u.    12.900 eV
 268( 0) :     0.480590 a.u.    13.078 eV
 269( 0) :     0.480872 a.u.    13.085 eV
 270( 0) :     0.482460 a.u.    13.128 eV
 271( 0) :     0.492898 a.u.    13.412 eV
 272( 0) :     0.493145 a.u.    13.419 eV
 273( 0) :     0.501462 a.u.    13.645 eV
 274( 0) :     0.505058 a.u.    13.743 eV
 275( 0) :     0.505953 a.u.    13.768 eV
 276( 0) :     0.509809 a.u.    13.873 eV
 277( 0) :     0.511523 a.u.    13.919 eV
 278( 0) :     0.519005 a.u.    14.123 eV
 279( 0) :     0.525315 a.u.    14.295 eV
 280( 0) :     0.530306 a.u.    14.430 eV
 281( 0) :     0.530936 a.u.    14.447 eV
 282( 0) :     0.532930 a.u.    14.502 eV
 283( 0) :     0.535772 a.u.    14.579 eV
 284( 0) :     0.536558 a.u.    14.600 eV
 285( 0) :     0.537536 a.u.    14.627 eV
 286( 0) :     0.540944 a.u.    14.720 eV
 287( 0) :     0.548659 a.u.    14.930 eV
 288( 0) :     0.554794 a.u.    15.097 eV
 289( 0) :     0.561653 a.u.    15.283 eV
 290( 0) :     0.563126 a.u.    15.323 eV
 291( 0) :     0.573184 a.u.    15.597 eV
 292( 0) :     0.583340 a.u.    15.873 eV
 293( 0) :     0.590767 a.u.    16.076 eV
 294( 0) :     0.610578 a.u.    16.615 eV
 295( 0) :     0.662042 a.u.    18.015 eV
 296( 0) :     0.675473 a.u.    18.381 eV
 297( 0) :     0.682734 a.u.    18.578 eV
 298( 0) :     0.689160 a.u.    18.753 eV
 299( 0) :     0.692025 a.u.    18.831 eV
 300( 0) :     0.701875 a.u.    19.099 eV
 301( 0) :     0.719560 a.u.    19.580 eV
 302( 0) :     0.719911 a.u.    19.590 eV
 303( 0) :     0.725192 a.u.    19.733 eV
 304( 0) :     0.743824 a.u.    20.240 eV
 305( 0) :     0.752730 a.u.    20.483 eV
 306( 0) :     0.759618 a.u.    20.670 eV
 307( 0) :     0.772683 a.u.    21.026 eV
 308( 0) :     0.781450 a.u.    21.264 eV
 309( 0) :     0.787157 a.u.    21.420 eV
 310( 0) :     0.789340 a.u.    21.479 eV
 311( 0) :     0.806399 a.u.    21.943 eV
 312( 0) :     0.813519 a.u.    22.137 eV
 313( 0) :     0.822754 a.u.    22.388 eV
 314( 0) :     0.840565 a.u.    22.873 eV
 315( 0) :     0.844306 a.u.    22.975 eV
 316( 0) :     0.851326 a.u.    23.166 eV
 317( 0) :     0.860490 a.u.    23.415 eV
 318( 0) :     0.876477 a.u.    23.850 eV
 319( 0) :     0.888069 a.u.    24.166 eV
 320( 0) :     0.889321 a.u.    24.200 eV
 321( 0) :     0.902875 a.u.    24.568 eV
 322( 0) :     0.904744 a.u.    24.619 eV
 323( 0) :     0.912052 a.u.    24.818 eV
 324( 0) :     0.916897 a.u.    24.950 eV
 325( 0) :     0.924321 a.u.    25.152 eV
 326( 0) :     0.934244 a.u.    25.422 eV
 327( 0) :     0.954303 a.u.    25.968 eV
 328( 0) :     0.975232 a.u.    26.537 eV
 329( 0) :     0.981396 a.u.    26.705 eV
 330( 0) :     1.005338 a.u.    27.357 eV
 331( 0) :     1.026612 a.u.    27.936 eV
 332( 0) :     1.077103 a.u.    29.309 eV
 333( 0) :     1.104921 a.u.    30.066 eV
 334( 0) :     1.122180 a.u.    30.536 eV
 335( 0) :     1.148350 a.u.    31.248 eV
 336( 0) :     1.166232 a.u.    31.735 eV
 337( 0) :     1.183245 a.u.    32.198 eV
 338( 0) :     1.203933 a.u.    32.761 eV
 339( 0) :     1.204343 a.u.    32.772 eV
 340( 0) :     1.235219 a.u.    33.612 eV
 341( 0) :     1.248484 a.u.    33.973 eV
 342( 0) :     1.264451 a.u.    34.407 eV
 343( 0) :     1.270882 a.u.    34.582 eV
 344( 0) :     1.276879 a.u.    34.746 eV
 345( 0) :     1.291334 a.u.    35.139 eV
 346( 0) :     1.295781 a.u.    35.260 eV
 347( 0) :     1.297221 a.u.    35.299 eV
 348( 0) :     1.302369 a.u.    35.439 eV
 349( 0) :     1.315551 a.u.    35.798 eV
 350( 0) :     1.317101 a.u.    35.840 eV
 351( 0) :     1.324237 a.u.    36.034 eV
 352( 0) :     1.332078 a.u.    36.248 eV
 353( 0) :     1.334654 a.u.    36.318 eV
 354( 0) :     1.338873 a.u.    36.433 eV
 355( 0) :     1.360284 a.u.    37.015 eV
 356( 0) :     1.362424 a.u.    37.073 eV
 357( 0) :     1.373357 a.u.    37.371 eV
 358( 0) :     1.386748 a.u.    37.735 eV
 359( 0) :     1.388422 a.u.    37.781 eV
 360( 0) :     1.395130 a.u.    37.963 eV
 361( 0) :     1.396314 a.u.    37.996 eV
 362( 0) :     1.399464 a.u.    38.081 eV
 363( 0) :     1.401447 a.u.    38.135 eV
 364( 0) :     1.405647 a.u.    38.250 eV
 365( 0) :     1.412410 a.u.    38.434 eV
 366( 0) :     1.414491 a.u.    38.490 eV
 367( 0) :     1.417960 a.u.    38.585 eV
 368( 0) :     1.426138 a.u.    38.807 eV
 369( 0) :     1.427363 a.u.    38.841 eV
 370( 0) :     1.430424 a.u.    38.924 eV
 371( 0) :     1.434814 a.u.    39.043 eV
 372( 0) :     1.435924 a.u.    39.073 eV
 373( 0) :     1.437968 a.u.    39.129 eV
 374( 0) :     1.439330 a.u.    39.166 eV
 375( 0) :     1.444147 a.u.    39.297 eV
 376( 0) :     1.447813 a.u.    39.397 eV
 377( 0) :     1.456034 a.u.    39.621 eV
 378( 0) :     1.458148 a.u.    39.678 eV
 379( 0) :     1.460811 a.u.    39.751 eV
 380( 0) :     1.461605 a.u.    39.772 eV
 381( 0) :     1.463058 a.u.    39.812 eV
 382( 0) :     1.465332 a.u.    39.874 eV
 383( 0) :     1.469540 a.u.    39.988 eV
 384( 0) :     1.470024 a.u.    40.001 eV
 385( 0) :     1.473731 a.u.    40.102 eV
 386( 0) :     1.474237 a.u.    40.116 eV
 387( 0) :     1.475597 a.u.    40.153 eV
 388( 0) :     1.479648 a.u.    40.263 eV
 389( 0) :     1.480583 a.u.    40.289 eV
 390( 0) :     1.481029 a.u.    40.301 eV
 391( 0) :     1.486585 a.u.    40.452 eV
 392( 0) :     1.486730 a.u.    40.456 eV
 393( 0) :     1.488829 a.u.    40.513 eV
 394( 0) :     1.489395 a.u.    40.529 eV
 395( 0) :     1.490643 a.u.    40.562 eV
 396( 0) :     1.493079 a.u.    40.629 eV
 397( 0) :     1.493731 a.u.    40.646 eV
 398( 0) :     1.495133 a.u.    40.685 eV
 399( 0) :     1.499333 a.u.    40.799 eV
 400( 0) :     1.500385 a.u.    40.828 eV
 401( 0) :     1.501353 a.u.    40.854 eV
 402( 0) :     1.501992 a.u.    40.871 eV
 403( 0) :     1.503435 a.u.    40.911 eV
 404( 0) :     1.506097 a.u.    40.983 eV
 405( 0) :     1.506619 a.u.    40.997 eV
 406( 0) :     1.510014 a.u.    41.090 eV
 407( 0) :     1.511027 a.u.    41.117 eV
 408( 0) :     1.513116 a.u.    41.174 eV
 409( 0) :     1.513163 a.u.    41.175 eV
 410( 0) :     1.514281 a.u.    41.206 eV
 411( 0) :     1.516805 a.u.    41.274 eV
 412( 0) :     1.516829 a.u.    41.275 eV
 413( 0) :     1.517801 a.u.    41.301 eV
 414( 0) :     1.518338 a.u.    41.316 eV
 415( 0) :     1.522198 a.u.    41.421 eV
 416( 0) :     1.522654 a.u.    41.434 eV
 417( 0) :     1.523998 a.u.    41.470 eV
 418( 0) :     1.527529 a.u.    41.566 eV
 419( 0) :     1.528712 a.u.    41.598 eV
 420( 0) :     1.529567 a.u.    41.622 eV
 421( 0) :     1.532052 a.u.    41.689 eV
 422( 0) :     1.533140 a.u.    41.719 eV
 423( 0) :     1.535263 a.u.    41.777 eV
 424( 0) :     1.536932 a.u.    41.822 eV
 425( 0) :     1.539201 a.u.    41.884 eV
 426( 0) :     1.542875 a.u.    41.984 eV
 427( 0) :     1.544743 a.u.    42.035 eV
 428( 0) :     1.546004 a.u.    42.069 eV
 429( 0) :     1.550497 a.u.    42.191 eV
 430( 0) :     1.551094 a.u.    42.207 eV
 431( 0) :     1.553484 a.u.    42.272 eV
 432( 0) :     1.555444 a.u.    42.326 eV
 433( 0) :     1.557751 a.u.    42.389 eV
 434( 0) :     1.560418 a.u.    42.461 eV
 435( 0) :     1.563787 a.u.    42.553 eV
 436( 0) :     1.564152 a.u.    42.563 eV
 437( 0) :     1.566844 a.u.    42.636 eV
 438( 0) :     1.570977 a.u.    42.748 eV
 439( 0) :     1.571959 a.u.    42.775 eV
 440( 0) :     1.575660 a.u.    42.876 eV
 441( 0) :     1.576120 a.u.    42.888 eV
 442( 0) :     1.578981 a.u.    42.966 eV
 443( 0) :     1.584049 a.u.    43.104 eV
 444( 0) :     1.584093 a.u.    43.105 eV
 445( 0) :     1.585078 a.u.    43.132 eV
 446( 0) :     1.589583 a.u.    43.255 eV
 447( 0) :     1.589948 a.u.    43.265 eV
 448( 0) :     1.592735 a.u.    43.341 eV
 449( 0) :     1.593884 a.u.    43.372 eV
 450( 0) :     1.596066 a.u.    43.431 eV
 451( 0) :     1.600570 a.u.    43.554 eV
 452( 0) :     1.604269 a.u.    43.654 eV
 453( 0) :     1.605718 a.u.    43.694 eV
 454( 0) :     1.608372 a.u.    43.766 eV
 455( 0) :     1.608717 a.u.    43.775 eV
 456( 0) :     1.614245 a.u.    43.926 eV
 457( 0) :     1.616435 a.u.    43.985 eV
 458( 0) :     1.616873 a.u.    43.997 eV
 459( 0) :     1.620663 a.u.    44.100 eV
 460( 0) :     1.621242 a.u.    44.116 eV
 461( 0) :     1.627499 a.u.    44.287 eV
 462( 0) :     1.630845 a.u.    44.378 eV
 463( 0) :     1.637906 a.u.    44.570 eV
 464( 0) :     1.648495 a.u.    44.858 eV
 465( 0) :     1.652030 a.u.    44.954 eV
 466( 0) :     1.654586 a.u.    45.024 eV
 467( 0) :     1.657264 a.u.    45.096 eV
 468( 0) :     1.661022 a.u.    45.199 eV
 469( 0) :     1.665007 a.u.    45.307 eV
 470( 0) :     1.674923 a.u.    45.577 eV
 471( 0) :     1.678942 a.u.    45.686 eV
 472( 0) :     1.686012 a.u.    45.879 eV
 473( 0) :     1.692662 a.u.    46.060 eV
 474( 0) :     1.700763 a.u.    46.280 eV
 475( 0) :     1.710977 a.u.    46.558 eV
 476( 0) :     1.721418 a.u.    46.842 eV
 477( 0) :     1.725998 a.u.    46.967 eV
 478( 0) :     1.728151 a.u.    47.025 eV
 479( 0) :     1.730120 a.u.    47.079 eV
 480( 0) :     1.741389 a.u.    47.386 eV
 481( 0) :     1.748877 a.u.    47.589 eV
 482( 0) :     1.753559 a.u.    47.717 eV
 483( 0) :     1.764485 a.u.    48.014 eV
 484( 0) :     1.765261 a.u.    48.035 eV
 485( 0) :     1.769960 a.u.    48.163 eV
 486( 0) :     1.774696 a.u.    48.292 eV
 487( 0) :     1.778220 a.u.    48.388 eV
 488( 0) :     1.784847 a.u.    48.568 eV
 489( 0) :     1.791357 a.u.    48.745 eV
 490( 0) :     1.802809 a.u.    49.057 eV
 491( 0) :     1.805593 a.u.    49.133 eV
 492( 0) :     1.815649 a.u.    49.406 eV
 493( 0) :     1.816580 a.u.    49.432 eV
 494( 0) :     1.832217 a.u.    49.857 eV
 495( 0) :     1.835557 a.u.    49.948 eV
 496( 0) :     1.840489 a.u.    50.082 eV
 497( 0) :     1.846333 a.u.    50.241 eV
 498( 0) :     1.869728 a.u.    50.878 eV
 499( 0) :     1.876768 a.u.    51.069 eV
 500( 0) :     1.895519 a.u.    51.580 eV
 501( 0) :     1.896416 a.u.    51.604 eV
 502( 0) :     1.905955 a.u.    51.864 eV
 503( 0) :     1.921345 a.u.    52.282 eV
 504( 0) :     1.938011 a.u.    52.736 eV
 505( 0) :     2.064290 a.u.    56.172 eV
 506( 0) :     2.141781 a.u.    58.281 eV
 507( 0) :     2.251578 a.u.    61.269 eV
 508( 0) :     2.276050 a.u.    61.934 eV
 509( 0) :     2.327538 a.u.    63.336 eV
 510( 0) :     2.335678 a.u.    63.557 eV
 511( 0) :     2.340401 a.u.    63.686 eV
 512( 0) :     2.410019 a.u.    65.580 eV
 513( 0) :     2.411485 a.u.    65.620 eV
 514( 0) :     2.425700 a.u.    66.007 eV
 515( 0) :     2.427362 a.u.    66.052 eV
 516( 0) :     2.441338 a.u.    66.432 eV
 517( 0) :     2.457996 a.u.    66.885 eV
 518( 0) :     2.478266 a.u.    67.437 eV
 519( 0) :     2.489579 a.u.    67.745 eV
 520( 0) :     2.525302 a.u.    68.717 eV
 521( 0) :     2.526621 a.u.    68.753 eV
 522( 0) :     2.539969 a.u.    69.116 eV
 523( 0) :     2.572080 a.u.    69.990 eV
 524( 0) :     2.579401 a.u.    70.189 eV
 525( 0) :     2.583407 a.u.    70.298 eV
 526( 0) :     2.624986 a.u.    71.429 eV
 527( 0) :     2.846782 a.u.    77.465 eV
 528( 0) :     2.848209 a.u.    77.504 eV
 529( 0) :     2.855139 a.u.    77.692 eV
 530( 0) :     2.856467 a.u.    77.728 eV
 531( 0) :     2.859594 a.u.    77.814 eV
 532( 0) :     2.878150 a.u.    78.318 eV
 533( 0) :     2.885101 a.u.    78.508 eV
 534( 0) :     2.931174 a.u.    79.761 eV
 535( 0) :    23.964365 a.u.   652.104 eV
 536( 0) :    24.041306 a.u.   654.197 eV
 537( 0) :    24.120282 a.u.   656.346 eV
 538( 0) :    24.224908 a.u.   659.193 eV
 539( 0) :    24.275669 a.u.   660.575 eV
 540( 0) :    24.570063 a.u.   668.585 eV
 541( 0) :    24.670301 a.u.   671.313 eV
 542( 0) :    24.991922 a.u.   680.065 eV
 543( 0) :    25.116171 a.u.   683.446 eV
 544( 0) :    25.202437 a.u.   685.793 eV
 545( 0) :    25.363063 a.u.   690.164 eV
 546( 0) :    25.478571 a.u.   693.307 eV
 547( 0) :    25.511573 a.u.   694.205 eV
 548( 0) :    25.741016 a.u.   700.449 eV
 549( 0) :    25.775825 a.u.   701.396 eV
 550( 0) :    25.885889 a.u.   704.391 eV
 551( 0) :    25.934368 a.u.   705.710 eV
 552( 0) :    26.207809 a.u.   713.151 eV
 553( 0) :    26.281837 a.u.   715.165 eV
 554( 0) :    26.310035 a.u.   715.932 eV
 555( 0) :    26.381492 a.u.   717.877 eV
 556( 0) :    26.560479 a.u.   722.747 eV
 557( 0) :    26.621820 a.u.   724.417 eV
 558( 0) :    26.695165 a.u.   726.412 eV
 559( 0) :    26.796281 a.u.   729.164 eV
 560( 0) :    26.840463 a.u.   730.366 eV
 561( 0) :    26.875738 a.u.   731.326 eV
 562( 0) :    27.052757 a.u.   736.143 eV
 563( 0) :    27.073835 a.u.   736.716 eV
 564( 0) :    27.229154 a.u.   740.943 eV
 565( 0) :    27.238503 a.u.   741.197 eV
 566( 0) :    27.321198 a.u.   743.448 eV
 567( 0) :    27.594872 a.u.   750.895 eV
 568( 0) :    27.909432 a.u.   759.454 eV
 569( 0) :    27.932454 a.u.   760.081 eV
 570( 0) :    27.977975 a.u.   761.319 eV
 571( 0) :    28.275968 a.u.   769.428 eV
 572( 0) :    28.291393 a.u.   769.848 eV
 573( 0) :    28.535052 a.u.   776.478 eV
 574( 0) :    28.632142 a.u.   779.120 eV
 575( 0) :    28.805590 a.u.   783.840 eV
 576( 0) :    29.718557 a.u.   808.683 eV
 577( 0) :    43.903241 a.u.  1194.668 eV
 578( 0) :    44.005780 a.u.  1197.458 eV
 579( 0) :    44.044458 a.u.  1198.511 eV
 580( 0) :    44.072902 a.u.  1199.285 eV
 581( 0) :    44.108012 a.u.  1200.240 eV
 582( 0) :    44.123833 a.u.  1200.671 eV
 583( 0) :    44.131408 a.u.  1200.877 eV
 584( 0) :    44.138981 a.u.  1201.083 eV
 585( 0) :    44.152187 a.u.  1201.442 eV
 586( 0) :    44.164511 a.u.  1201.777 eV
 587( 0) :    44.171499 a.u.  1201.968 eV
 588( 0) :    44.190877 a.u.  1202.495 eV
 589( 0) :    44.229378 a.u.  1203.543 eV
 590( 0) :    44.265759 a.u.  1204.533 eV
 591( 0) :   205.091363 a.u.  5580.820 eV
 592( 0) :   205.134624 a.u.  5581.997 eV
 593( 0) :   205.148637 a.u.  5582.378 eV
 594( 0) :   205.159899 a.u.  5582.685 eV
 595( 0) :   205.175153 a.u.  5583.100 eV
 596( 0) :   205.185332 a.u.  5583.377 eV
 597( 0) :   205.186250 a.u.  5583.402 eV
 598( 0) :   205.191136 a.u.  5583.535 eV
 599( 0) :   205.197028 a.u.  5583.695 eV
 600( 0) :   205.198985 a.u.  5583.748 eV
 601( 0) :   205.203238 a.u.  5583.864 eV
 602( 0) :   205.209131 a.u.  5584.024 eV
 603( 0) :   205.224474 a.u.  5584.442 eV
 604( 0) :   205.236608 a.u.  5584.772 eV
-------
TIMINGS
-------

Total SCF time: 0 days 0 hours 4 min 33 sec 

Total time                  ....     273.215 sec
Sum of individual times     ....     252.054 sec  ( 92.3%)

Fock matrix formation       ....     244.951 sec  ( 89.7%)
  Split-RI-J                ....      74.179 sec  ( 30.3% of F)
  XC integration            ....     160.203 sec  ( 65.4% of F)
    Basis function eval.    ....      26.094 sec  ( 16.3% of XC)
    Density eval.           ....      75.274 sec  ( 47.0% of XC)
    XC-Functional eval.     ....       3.695 sec  (  2.3% of XC)
    XC-Potential eval.      ....      42.355 sec  ( 26.4% of XC)
Diagonalization             ....       2.390 sec  (  0.9%)
Density matrix formation    ....       0.480 sec  (  0.2%)
Population analysis         ....       1.008 sec  (  0.4%)
Initial guess               ....       0.176 sec  (  0.1%)
Orbital Transformation      ....       0.104 sec  (  0.0%)
Orbital Orthonormalization  ....       0.146 sec  (  0.1%)
DIIS solution               ....       0.000 sec  (  0.0%)
Grid generation             ....       2.942 sec  (  1.1%)

Maximum memory used throughout the entire SCF-calculation: 621.3 MB

-------------------------   --------------------
FINAL SINGLE POINT ENERGY     -2945.830777044541
-------------------------   --------------------

                                *** OPTIMIZATION RUN DONE ***

                            ***************************************
                            *     ORCA property calculations      *
                            ***************************************

                                    ---------------------
                                    Active property flags
                                    ---------------------
   (+) Dipole Moment


------------------------------------------------------------------------------
                       ORCA ELECTRIC PROPERTIES CALCULATION
------------------------------------------------------------------------------

Dipole Moment Calculation                       ... on
Quadrupole Moment Calculation                   ... off
Polarizability Calculation                      ... off
GBWName                                         ... pbe.gbw
Electron density                                ... pbe.scfp
The origin for moment calculation is the CENTER OF MASS  = (16.615611, 15.863042 13.001125)

-------------
DIPOLE MOMENT
-------------
                                X             Y             Z
Electronic contribution:    -11.45279      16.86756       5.18117
Nuclear contribution   :     11.47306     -16.88686      -5.18832
                        -----------------------------------------
Total Dipole Moment    :      0.02027      -0.01929      -0.00716
                        -----------------------------------------
Magnitude (a.u.)       :      0.02888
Magnitude (Debye)      :      0.07342



--------------------
Rotational spectrum 
--------------------
 
Rotational constants in cm-1:     0.001247     0.000996     0.000865 
Rotational constants in MHz :    37.384559    29.852951    25.943672 

 Dipole components along the rotational axes: 
x,y,z [a.u.] :    -0.028783     0.001395     0.001984 
x,y,z [Debye]:    -0.073159     0.003547     0.005044 

 

Timings for individual modules:

Sum of individual times         ...    10090.308 sec (= 168.172 min)
GTO integral calculation        ...      216.176 sec (=   3.603 min)   2.1 %
SCF iterations                  ...     8027.103 sec (= 133.785 min)  79.6 %
SCF Gradient evaluation         ...     1839.411 sec (=  30.657 min)  18.2 %
Geometry relaxation             ...        7.618 sec (=   0.127 min)   0.1 %
                             ****ORCA TERMINATED NORMALLY****
TOTAL RUN TIME: 0 days 2 hours 48 minutes 17 seconds 859 msec
