
                                 *****************
                                 * O   R   C   A *
                                 *****************

                                            #,                                       
                                            ###                                      
                                            ####                                     
                                            #####                                    
                                            ######                                   
                                           ########,                                 
                                     ,,################,,,,,                         
                               ,,#################################,,                 
                          ,,##########################################,,             
                       ,#########################################, ''#####,          
                    ,#############################################,,   '####,        
                  ,##################################################,,,,####,       
                ,###########''''           ''''###############################       
              ,#####''   ,,,,##########,,,,          '''####'''          '####       
            ,##' ,,,,###########################,,,                        '##       
           ' ,,###''''                  '''############,,,                           
         ,,##''                                '''############,,,,        ,,,,,,###''
      ,#''                                            '''#######################'''  
     '                                                          ''''####''''         
             ,#######,   #######,   ,#######,      ##                                
            ,#'     '#,  ##    ##  ,#'     '#,    #''#        ######   ,####,        
            ##       ##  ##   ,#'  ##            #'  '#       #        #'  '#        
            ##       ##  #######   ##           ,######,      #####,   #    #        
            '#,     ,#'  ##    ##  '#,     ,#' ,#      #,         ##   #,  ,#        
             '#######'   ##     ##  '#######'  #'      '#     #####' # '####'        



                  #######################################################
                  #                        -***-                        #
                  #          Department of theory and spectroscopy      #
                  #    Directorship and core code : Frank Neese         #
                  #        Max Planck Institute fuer Kohlenforschung    #
                  #                Kaiser Wilhelm Platz 1               #
                  #                 D-45470 Muelheim/Ruhr               #
                  #                      Germany                        #
                  #                                                     #
                  #                  All rights reserved                #
                  #                        -***-                        #
                  #######################################################


                         Program Version 5.0.3 -  RELEASE  -


 With contributions from (in alphabetic order):
   Daniel Aravena         : Magnetic Suceptibility
   Michael Atanasov       : Ab Initio Ligand Field Theory (pilot matlab implementation)
   Alexander A. Auer      : GIAO ZORA, VPT2 properties, NMR spectrum
   Ute Becker             : Parallelization
   Giovanni Bistoni       : ED, misc. LED, open-shell LED, HFLD
   Martin Brehm           : Molecular dynamics
   Dmytro Bykov           : SCF Hessian
   Vijay G. Chilkuri      : MRCI spin determinant printing, contributions to CSF-ICE
   Dipayan Datta          : RHF DLPNO-CCSD density
   Achintya Kumar Dutta   : EOM-CC, STEOM-CC
   Dmitry Ganyushin       : Spin-Orbit,Spin-Spin,Magnetic field MRCI
   Miquel Garcia          : C-PCM and meta-GGA Hessian, CC/C-PCM, Gaussian charge scheme
   Yang Guo               : DLPNO-NEVPT2, F12-NEVPT2, CIM, IAO-localization
   Andreas Hansen         : Spin unrestricted coupled pair/coupled cluster methods
   Benjamin Helmich-Paris : MC-RPA, TRAH-SCF, COSX integrals
   Lee Huntington         : MR-EOM, pCC
   Robert Izsak           : Overlap fitted RIJCOSX, COSX-SCS-MP3, EOM
   Marcus Kettner         : VPT2
   Christian Kollmar      : KDIIS, OOCD, Brueckner-CCSD(T), CCSD density, CASPT2, CASPT2-K
   Simone Kossmann        : Meta GGA functionals, TD-DFT gradient, OOMP2, MP2 Hessian
   Martin Krupicka        : Initial AUTO-CI
   Lucas Lang             : DCDCAS
   Marvin Lechner         : AUTO-CI (C++ implementation), FIC-MRCC
   Dagmar Lenk            : GEPOL surface, SMD
   Dimitrios Liakos       : Extrapolation schemes; Compound Job, initial MDCI parallelization
   Dimitrios Manganas     : Further ROCIS development; embedding schemes
   Dimitrios Pantazis     : SARC Basis sets
   Anastasios Papadopoulos: AUTO-CI, single reference methods and gradients
   Taras Petrenko         : DFT Hessian,TD-DFT gradient, ASA, ECA, R-Raman, ABS, FL, XAS/XES, NRVS
   Peter Pinski           : DLPNO-MP2, DLPNO-MP2 Gradient
   Christoph Reimann      : Effective Core Potentials
   Marius Retegan         : Local ZFS, SOC
   Christoph Riplinger    : Optimizer, TS searches, QM/MM, DLPNO-CCSD(T), (RO)-DLPNO pert. Triples
   Tobias Risthaus        : Range-separated hybrids, TD-DFT gradient, RPA, STAB
   Michael Roemelt        : Original ROCIS implementation
   Masaaki Saitow         : Open-shell DLPNO-CCSD energy and density
   Barbara Sandhoefer     : DKH picture change effects
   Avijit Sen             : IP-ROCIS
   Kantharuban Sivalingam : CASSCF convergence, NEVPT2, FIC-MRCI
   Bernardo de Souza      : ESD, SOC TD-DFT
   Georgi Stoychev        : AutoAux, RI-MP2 NMR, DLPNO-MP2 response
   Willem Van den Heuvel  : Paramagnetic NMR
   Boris Wezisla          : Elementary symmetry handling
   Frank Wennmohs         : Technical directorship


 We gratefully acknowledge several colleagues who have allowed us to
 interface, adapt or use parts of their codes:
   Stefan Grimme, W. Hujo, H. Kruse, P. Pracht,  : VdW corrections, initial TS optimization,
                  C. Bannwarth, S. Ehlert          DFT functionals, gCP, sTDA/sTD-DF
   Ed Valeev, F. Pavosevic, A. Kumar             : LibInt (2-el integral package), F12 methods
   Garnet Chan, S. Sharma, J. Yang, R. Olivares  : DMRG
   Ulf Ekstrom                                   : XCFun DFT Library
   Mihaly Kallay                                 : mrcc  (arbitrary order and MRCC methods)
   Jiri Pittner, Ondrej Demel                    : Mk-CCSD
   Frank Weinhold                                : gennbo (NPA and NBO analysis)
   Christopher J. Cramer and Donald G. Truhlar   : smd solvation model
   Lars Goerigk                                  : TD-DFT with DH, B97 family of functionals
   V. Asgeirsson, H. Jonsson                     : NEB implementation
   FAccTs GmbH                                   : IRC, NEB, NEB-TS, DLPNO-Multilevel, CI-OPT
                                                   MM, QMMM, 2- and 3-layer-ONIOM, Crystal-QMMM,
                                                   LR-CPCM, SF, NACMEs, symmetry and pop. for TD-DFT,
                                                   nearIR, NL-DFT gradient (VV10), updates on ESD,
                                                   ML-optimized integration grids
   S Lehtola, MJT Oliveira, MAL Marques          : LibXC Library
   Liviu Ungur et al                             : ANISO software


 Your calculation uses the libint2 library for the computation of 2-el integrals
 For citations please refer to: http://libint.valeyev.net

 Your ORCA version has been built with support for libXC version: 5.1.0
 For citations please refer to: https://tddft.org/programs/libxc/

 This ORCA versions uses:
   CBLAS   interface :  Fast vector & matrix operations
   LAPACKE interface :  Fast linear algebra routines
   SCALAPACK package :  Parallel linear algebra routines
   Shared memory     :  Shared parallel matrices
   BLAS/LAPACK       :  OpenBLAS 0.3.15  USE64BITINT DYNAMIC_ARCH NO_AFFINITY Haswell SINGLE_THREADED
        Core in use  :  Haswell
   Copyright (c) 2011-2014, The OpenBLAS Project




***************************************
The coordinates will be read from file: pbe.xyz
***************************************


================================================================================

cite the ECPs for Au [Def2-ECP] as follows:
Ce-Yb(ecp-28): M. Dolg, H. Stoll, H.Preuss, J. Chem. Phys., 1989, 90, 1730-1734.
Y-Cd(ecp-28), Hf-Hg(ecp-46): D. Andrae,U. Haeussermann, M. Dolg, H. Stoll, H. Preuss, Theor. Chim. Acta, 1990, 77, 123-141.
In-Sb(ecp-28), Tl-Bi(ecp-46): B. Metz, H. Stoll, M. Dolg, J. Chem. Phys., 2000, 113, 2563-2569.
Te-Xe(ecp-28), Po-Rn(ecp-46): K. A. Peterson, D. Figgen, E. Goll, H. Stoll, M. Dolg, J. Chem. Phys., 2003, 119, 11113-11123.
Rb(ecp-28), Cs(ecp-46): T. Leininger, A. Nicklass, W. Kuechle, H. Stoll, M. Dolg, A. Bergner, Chem. Phys. Lett., 1996, 255, 274-280.
Sr(ecp-28), Ba(ecp-46): M. Kaupp, P. V. Schleyer, H. Stoll and H. Preuss, J. Chem. Phys., 1991, 94, 1360-1366.
La(ecp-46): M. Dolg, H. Stoll, A. Savin, H. Preuss, Theor. Chim. Acta, 1989, 75, 173-194.
Lu(ecp-28): X. Cao, M. Dolg, J. Chem. Phys., 2001, 115, 7348-7355.

ECP parameters for Au [Def2-ECP] have been obtained from:
TURBOMOLE (7.0.2)

----- Orbital basis set information -----
Your calculation utilizes the basis: def2-TZVP
   F. Weigend and R. Ahlrichs, Phys. Chem. Chem. Phys. 7, 3297 (2005).

----- AuxJ basis set information -----
Your calculation utilizes the auxiliary basis: def2/J
   F. Weigend, Phys. Chem. Chem. Phys. 8, 1057 (2006).

----- AuxC basis set information -----
Your calculation utilizes the auxiliary basis: def2-TZVP/C
  H-La, Hf-Rn : A. Hellweg, C. Hattig, S. Hofener and W. Klopper, Theor. Chem. Acc. 117, 587 (2007).
        Ce-Lu : J. Chmela and M. E. Harding, Mol. Phys. (2018).

================================================================================
                                        WARNINGS
                       Please study these warnings very carefully!
================================================================================


IMPORTANT NOTE: CASSCF must signal convergence for a subsequent CASPT2/NEVPT2! 
                Set maxiter=1 to run CASPT2/NEVPT2 with arbitrary orbitals.


INFO   : the flag for use of the SHARK integral package has been found!

================================================================================
                                       INPUT FILE
================================================================================
NAME = nevpt2.inp
|  1> !SC-NEVPT2 def2-TZVP def2-TZVP/C
|  2> !MOREAD RIJCOSX def2/J
|  3> %maxcore 4000
|  4> %moinp "casscf.gbw"
|  5> %pal nprocs 6 end 
|  6> 
|  7> %casscf
|  8>  mult 5,3
|  9>  bweight 1,1
| 10>  nroots 5,45
| 11>  nel 6
| 12>  norb 5
| 13>  ptsettings
| 14>   d4tpre 1e-14 # default = 1e-10
| 15>   d3tpre 1e-14
| 16>  end
| 17>  rel           
| 18>    dosoc true   
| 19>    gtensor true 
| 20>  end           
| 21> end
| 22> 
| 23> 
| 24> *xyzfile 0 5 pbe.xyz
| 25> 
| 26> 
| 27>                          ****END OF INPUT****
================================================================================

                       ****************************
                       * Single Point Calculation *
                       ****************************

---------------------------------
CARTESIAN COORDINATES (ANGSTROEM)
---------------------------------
  Au     7.906042   10.145211    8.678672
  Au     4.890535    7.775164    6.130346
  Au    10.042471    7.184934    4.766870
  Au    11.257324    7.344692    7.381809
  Au     9.370920    9.210146    6.547045
  Au     7.335871    7.413834    4.870400
  Au     6.744672    9.937294    6.128250
  Au     9.052897    5.720642    6.915451
  Au     6.337011    5.367212    6.665146
  Au     6.846473    8.084630   10.347899
  Au     5.173981    9.443895    8.449295
  Au     7.522423    5.566566    9.204852
  Au     4.928526    6.641748    8.766414
  Au     9.408508    7.745616    9.335835
  Fe     7.245842    7.737485    7.615433

----------------------------
CARTESIAN COORDINATES (A.U.)
----------------------------
  NO LB      ZA    FRAG     MASS         X           Y           Z
   0 Au   19.0000*   0   196.966   14.940253   19.171671   16.400312
   1 Au   19.0000*   0   196.966    9.241772   14.692931   11.584675
   2 Au   19.0000*   0   196.966   18.977520   13.577558    9.008079
   3 Au   19.0000*   0   196.966   21.273260   13.879456   13.949596
   4 Au   19.0000*   0   196.966   17.708472   17.404653   12.372122
   5 Au   19.0000*   0   196.966   13.862787   14.010115    9.203723
   6 Au   19.0000*   0   196.966   12.745582   18.778765   11.580713
   7 Au   19.0000*   0   196.966   17.107497   10.810447   13.068308
   8 Au   19.0000*   0   196.966   11.975215   10.142561   12.595300
   9 Au   19.0000*   0   196.966   12.937959   15.277737   19.554695
  10 Au   19.0000*   0   196.966    9.777406   17.846375   15.966854
  11 Au   19.0000*   0   196.966   14.215320   10.519286   17.394649
  12 Au   19.0000*   0   196.966    9.313564   12.551085   16.566122
  13 Au   19.0000*   0   196.966   17.779504   14.637093   17.642172
  14 Fe   26.0000    0    55.850   13.692657   14.621728   14.391082
* core charge reduced due to ECP

--------------------------------
INTERNAL COORDINATES (ANGSTROEM)
--------------------------------
 Au     0   0   0     0.000000000000     0.00000000     0.00000000
 Au     1   0   0     4.604819877189     0.00000000     0.00000000
 Au     1   2   0     5.350678612319    64.66786992     0.00000000
 Au     3   1   2     2.887783392399    58.35567986   221.01306979
 Au     1   2   3     2.750281379787    75.21977694    10.87243474
 Au     3   1   2     2.718234597175    61.83535547     7.72481324
 Au     5   1   2     2.757048004673    61.36046372    35.08933597
 Au     4   3   1     2.777503100872    58.78329536    78.70798688
 Au     8   4   3     2.750200953970   150.94963721   277.17783335
 Au     1   2   3     2.855695717497    73.08929474   249.64925487
 Au     1   2   3     2.829949820330    36.42721433   186.38631534
 Au     8   4   3     2.758160211332   109.49316467   211.41157415
 Au    11   1   2     2.830695655772   108.66003270    63.97449499
 Au     4   3   1     2.719757587805   111.88583298    30.21201031
 Fe     7   5   1     2.702229457004    61.64259619   291.14851831

---------------------------
INTERNAL COORDINATES (A.U.)
---------------------------
 Au     0   0   0     0.000000000000     0.00000000     0.00000000
 Au     1   0   0     8.701848463924     0.00000000     0.00000000
 Au     1   2   0    10.111317207912    64.66786992     0.00000000
 Au     3   1   2     5.457119745720    58.35567986   221.01306979
 Au     1   2   3     5.197278599020    75.21977694    10.87243474
 Au     3   1   2     5.136718956410    61.83535547     7.72481324
 Au     5   1   2     5.210065666907    61.36046372    35.08933597
 Au     4   3   1     5.248720196765    58.78329536    78.70798688
 Au     8   4   3     5.197126616253   150.94963721   277.17783335
 Au     1   2   3     5.396482827881    73.08929474   249.64925487
 Au     1   2   3     5.347830133164    36.42721433   186.38631534
 Au     8   4   3     5.212167432896   109.49316467   211.41157415
 Au    11   1   2     5.349239557889   108.66003270    63.97449499
 Au     4   3   1     5.139596991605   111.88583298    30.21201031
 Fe     7   5   1     5.106473624753    61.64259619   291.14851831

---------------------
BASIS SET INFORMATION
---------------------
There are 2 groups of distinct atoms

 Group   1 Type Au  : 8s7p6d1f contracted to 6s4p3d1f pattern {311111/4111/411/1}
 Group   2 Type Fe  : 17s11p7d1f contracted to 6s4p4d1f pattern {842111/6311/4111/1}

Atom   0Au   basis set group =>   1
Atom   1Au   basis set group =>   1
Atom   2Au   basis set group =>   1
Atom   3Au   basis set group =>   1
Atom   4Au   basis set group =>   1
Atom   5Au   basis set group =>   1
Atom   6Au   basis set group =>   1
Atom   7Au   basis set group =>   1
Atom   8Au   basis set group =>   1
Atom   9Au   basis set group =>   1
Atom  10Au   basis set group =>   1
Atom  11Au   basis set group =>   1
Atom  12Au   basis set group =>   1
Atom  13Au   basis set group =>   1
Atom  14Fe   basis set group =>   2
---------------------------------
AUXILIARY/J BASIS SET INFORMATION
---------------------------------
There are 2 groups of distinct atoms

 Group   1 Type Au  : 11s5p5d3f3g contracted to 8s5p5d2f3g pattern {41111111/11111/11111/21/111}
 Group   2 Type Fe  : 19s5p5d3f3g contracted to 8s5p5d2f3g pattern {121111111/11111/11111/21/111}

Atom   0Au   basis set group =>   1
Atom   1Au   basis set group =>   1
Atom   2Au   basis set group =>   1
Atom   3Au   basis set group =>   1
Atom   4Au   basis set group =>   1
Atom   5Au   basis set group =>   1
Atom   6Au   basis set group =>   1
Atom   7Au   basis set group =>   1
Atom   8Au   basis set group =>   1
Atom   9Au   basis set group =>   1
Atom  10Au   basis set group =>   1
Atom  11Au   basis set group =>   1
Atom  12Au   basis set group =>   1
Atom  13Au   basis set group =>   1
Atom  14Fe   basis set group =>   2
---------------------------------
AUXILIARY/C BASIS SET INFORMATION
---------------------------------
There are 2 groups of distinct atoms

 Group   1 Type Au  : 8s8p7d5f3g2h contracted to 8s8p7d5f3g2h pattern {11111111/11111111/1111111/11111/111/11}
 Group   2 Type Fe  : 11s9p8d6f5g2h contracted to 9s8p8d6f5g2h pattern {311111111/21111111/11111111/111111/11111/11}

Atom   0Au   basis set group =>   1
Atom   1Au   basis set group =>   1
Atom   2Au   basis set group =>   1
Atom   3Au   basis set group =>   1
Atom   4Au   basis set group =>   1
Atom   5Au   basis set group =>   1
Atom   6Au   basis set group =>   1
Atom   7Au   basis set group =>   1
Atom   8Au   basis set group =>   1
Atom   9Au   basis set group =>   1
Atom  10Au   basis set group =>   1
Atom  11Au   basis set group =>   1
Atom  12Au   basis set group =>   1
Atom  13Au   basis set group =>   1
Atom  14Fe   basis set group =>   2
-------------------------
ECP PARAMETER INFORMATION
-------------------------

 Group 1, Type Au ECP Def2-ECP (replacing 60 core electrons, lmax=3)

Atom   0Au   ECP group =>   1
Atom   1Au   ECP group =>   1
Atom   2Au   ECP group =>   1
Atom   3Au   ECP group =>   1
Atom   4Au   ECP group =>   1
Atom   5Au   ECP group =>   1
Atom   6Au   ECP group =>   1
Atom   7Au   ECP group =>   1
Atom   8Au   ECP group =>   1
Atom   9Au   ECP group =>   1
Atom  10Au   ECP group =>   1
Atom  11Au   ECP group =>   1
Atom  12Au   ECP group =>   1
Atom  13Au   ECP group =>   1



           ************************************************************
           *        Program running with 6 parallel MPI-processes     *
           *              working on a common directory               *
           ************************************************************
------------------------------------------------------------------------------
                           ORCA GTO INTEGRAL CALCULATION
                           -- RI-GTO INTEGRALS CHOSEN --
------------------------------------------------------------------------------
------------------------------------------------------------------------------
                   ___                                                        
                  /   \      - P O W E R E D   B Y -                         
                 /     \                                                     
                 |  |  |   _    _      __       _____    __    __             
                 |  |  |  | |  | |    /  \     |  _  \  |  |  /  |          
                  \  \/   | |  | |   /    \    | | | |  |  | /  /          
                 / \  \   | |__| |  /  /\  \   | |_| |  |  |/  /          
                |  |  |   |  __  | /  /__\  \  |    /   |      \           
                |  |  |   | |  | | |   __   |  |    \   |  |\   \          
                \     /   | |  | | |  |  |  |  | |\  \  |  | \   \       
                 \___/    |_|  |_| |__|  |__|  |_| \__\ |__|  \__/        
                                                                              
                      - O R C A' S   B I G   F R I E N D -                    
                                      &                                       
                       - I N T E G R A L  F E E D E R -                       
                                                                              
 v1 FN, 2020, v2 2021                                                         
------------------------------------------------------------------------------


Reading SHARK input file nevpt2.SHARKINP.tmp ... ok
----------------------
SHARK INTEGRAL PACKAGE
----------------------

Number of atoms                             ...     15
Number of basis functions                   ...    605
Number of shells                            ...    211
Maximum angular momentum                    ...      3
Integral batch strategy                     ... SHARK/LIBINT Hybrid
RI-J (if used) integral strategy            ... SPLIT-RIJ (Revised 2003 algorithm where possible)
Printlevel                                  ...      1
Contraction scheme used                     ... SEGMENTED contraction
Coulomb Range Separation                    ... NOT USED
Exchange Range Separation                   ... NOT USED
Finite Nucleus Model                        ... NOT USED
Auxiliary Coulomb fitting basis             ... AVAILABLE
   # of basis functions in Aux-J            ...   1335
   # of shells in Aux-J                     ...    345
   Maximum angular momentum in Aux-J        ...      4
Auxiliary J/K fitting basis                 ... NOT available
Auxiliary Correlation fitting basis         ... AVAILABLE
   # of basis functions in Aux-C            ...   2296
   # of shells in Aux-C                     ...    500
   Maximum angular momentum in Aux-C        ...      5
Auxiliary 'external' fitting basis          ... NOT available
Integral threshold                          ...     1.000000e-10
Primitive cut-off                           ...     1.000000e-11
Primitive pair pre-selection threshold      ...     1.000000e-11

Calculating pre-screening integrals         ... done (  0.3 sec) Dimension = 211
Organizing shell pair data                  ... done (  0.7 sec)
Shell pair information
Total number of shell pairs                 ...     22366
Shell pairs after pre-screening             ...     18071
Total number of primitive shell pairs       ...     59609
Primitive shell pairs kept                  ...     35041
          la=0 lb=0:   2835 shell pairs
          la=1 lb=0:   4134 shell pairs
          la=1 lb=1:   1543 shell pairs
          la=2 lb=0:   3602 shell pairs
          la=2 lb=1:   2500 shell pairs
          la=2 lb=2:   1033 shell pairs
          la=3 lb=0:    954 shell pairs
          la=3 lb=1:    730 shell pairs
          la=3 lb=2:    638 shell pairs
          la=3 lb=3:    102 shell pairs

Calculating one electron integrals          ... done (  0.0 sec)
Calculating ECP integrals                   ... done ( 18.3 sec)
Calculating RI/J V-Matrix + Cholesky decomp.... done (  3.3 sec)
Calculating RI/C V-Matrix + Cholesky decomp.... done (  7.2 sec)
Calculating Nuclear repulsion               ... done (  0.0 sec) ENN=   5799.598699783641 Eh

SHARK setup successfully completed in  31.3 seconds

Maximum memory used throughout the entire GTOINT-calculation: 49.7 MB


           ************************************************************
           *        Program running with 6 parallel MPI-processes     *
           *              working on a common directory               *
           ************************************************************
-------------------------------------------------------------------------------
                                 ORCA SCF
-------------------------------------------------------------------------------

------------
SCF SETTINGS
------------
Hamiltonian:
 Ab initio Hamiltonian  Method          .... Hartree-Fock(GTOs)
 RI-approximation to the Coulomb term is turned on
   Number of AuxJ basis functions       .... 1335
   RIJ-COSX (HFX calculated with COS-X)).... on


General Settings:
 Integral files         IntName         .... nevpt2
 Hartree-Fock type      HFTyp           .... CASSCF
 Total Charge           Charge          ....    0
 Multiplicity           Mult            ....    5
 Number of Electrons    NEL             ....  292
 Basis Dimension        Dim             ....  605
 Nuclear Repulsion      ENuc            ....   5799.5986997836 Eh


Diagonalization of the overlap matrix:
Smallest eigenvalue                        ... 2.708e-04
Time for diagonalization                   ...    0.128 sec
Threshold for overlap eigenvalues          ... 1.000e-08
Number of eigenvalues below threshold      ... 0
Time for construction of square roots      ...    0.437 sec
Total time needed                          ...    0.948 sec

---------------------
INITIAL GUESS: MOREAD
---------------------
Guess MOs are being read from file: casscf.gbw
Input Geometry matches current geometry (good)
Input basis set matches current basis set (good)
MOs were renormalized
Gram-Schmidt orthogonalization of all MOs with pivot on actives
                      ------------------
                      INITIAL GUESS DONE (   3.7 sec)
                      ------------------
--------------------
COSX GRID GENERATION
--------------------

GRIDX 1
-------
General Integration Accuracy     IntAcc      ... 3.816
Radial Grid Type                 RadialGrid  ... OptM3 with GC (2021)
Angular Grid (max. ang.)         AngularGrid ... 1 (Lebedev-50)
Angular grid pruning method      GridPruning ... 4 (adaptive)
Weight generation scheme         WeightScheme... Becke
Basis function cutoff            BFCut       ... 1.0000e-10
Integration weight cutoff        WCut        ... 1.0000e-14
Angular grids for H and He will be reduced by one unit
Partially contracted basis set               ... on
Rotationally invariant grid construction     ... off

Total number of grid points                  ...    17319
Total number of batches                      ...      277
Average number of points per batch           ...       62
Average number of grid points per atom       ...     1155
UseSFitting                                  ... on

GRIDX 2
-------
General Integration Accuracy     IntAcc      ... 4.020
Radial Grid Type                 RadialGrid  ... OptM3 with GC (2021)
Angular Grid (max. ang.)         AngularGrid ... 2 (Lebedev-110)
Angular grid pruning method      GridPruning ... 4 (adaptive)
Weight generation scheme         WeightScheme... Becke
Basis function cutoff            BFCut       ... 1.0000e-10
Integration weight cutoff        WCut        ... 1.0000e-14
Angular grids for H and He will be reduced by one unit
Partially contracted basis set               ... on
Rotationally invariant grid construction     ... off

Total number of grid points                  ...    52510
Total number of batches                      ...      829
Average number of points per batch           ...       63
Average number of grid points per atom       ...     3501
UseSFitting                                  ... on

GRIDX 3
-------
General Integration Accuracy     IntAcc      ... 4.338
Radial Grid Type                 RadialGrid  ... OptM3 with GC (2021)
Angular Grid (max. ang.)         AngularGrid ... 3 (Lebedev-194)
Angular grid pruning method      GridPruning ... 4 (adaptive)
Weight generation scheme         WeightScheme... Becke
Basis function cutoff            BFCut       ... 1.0000e-10
Integration weight cutoff        WCut        ... 1.0000e-14
Angular grids for H and He will be reduced by one unit
Partially contracted basis set               ... on
Rotationally invariant grid construction     ... off

Total number of grid points                  ...    95614
Total number of batches                      ...     1501
Average number of points per batch           ...       63
Average number of grid points per atom       ...     6374
UseSFitting                                  ... on

Time for X-Grid setup             =    5.581 sec



 ... the calculation is a CASSCF calculation -I'm leaving here GOOD LUCK!!!



           ************************************************************
           *        Program running with 6 parallel MPI-processes     *
           *              working on a common directory               *
           ************************************************************
-------------------------------------------------------------------------------
                              ORCA-CASSCF
-------------------------------------------------------------------------------

Setting up the integral package       ... done
Setting up the integral package (RI)  ... done
Building the CAS space                ... done (5 configurations for Mult=5)
Building the CAS space                ... done (35 configurations for Mult=3)

 CASSCF (estimated) memory needed     ... 150.4 MB
 NEVPT2 (estimated) memory needed     ... 548.6 MB


SYSTEM-SPECIFIC SETTINGS:
Number of active electrons          ...    6
Number of active orbitals           ...    5
Total number of electrons           ...  292
Total number of orbitals            ...  605
Total number aux. functions         ... 2296

Determined orbital ranges:
   Internal       0 -  142 ( 143 orbitals)
   Active       143 -  147 (   5 orbitals)
   External     148 -  604 ( 457 orbitals)
Number of rotation parameters      ...  68351

CI-STEP:
CI strategy                         ... General CI
Number of multiplicity blocks       ...    2
BLOCK  1 WEIGHT=   0.5000
  Multiplicity                      ...    5
  #(Configurations)                 ...    5
  #(CSFs)                           ...    5
  #(Roots)                          ...    5
    ROOT=0 WEIGHT=    0.100000
    ROOT=1 WEIGHT=    0.100000
    ROOT=2 WEIGHT=    0.100000
    ROOT=3 WEIGHT=    0.100000
    ROOT=4 WEIGHT=    0.100000

BLOCK  2 WEIGHT=   0.5000
  Multiplicity                      ...    3
  #(Configurations)                 ...   35
  #(CSFs)                           ...   45
  #(Roots)                          ...   45
    ROOT=0 WEIGHT=    0.011111
    ROOT=1 WEIGHT=    0.011111
    ROOT=2 WEIGHT=    0.011111
    ROOT=3 WEIGHT=    0.011111
    ROOT=4 WEIGHT=    0.011111
    ROOT=5 WEIGHT=    0.011111
    ROOT=6 WEIGHT=    0.011111
    ROOT=7 WEIGHT=    0.011111
    ROOT=8 WEIGHT=    0.011111
    ROOT=9 WEIGHT=    0.011111
    ROOT=10 WEIGHT=    0.011111
    ROOT=11 WEIGHT=    0.011111
    ROOT=12 WEIGHT=    0.011111
    ROOT=13 WEIGHT=    0.011111
    ROOT=14 WEIGHT=    0.011111
    ROOT=15 WEIGHT=    0.011111
    ROOT=16 WEIGHT=    0.011111
    ROOT=17 WEIGHT=    0.011111
    ROOT=18 WEIGHT=    0.011111
    ROOT=19 WEIGHT=    0.011111
    ROOT=20 WEIGHT=    0.011111
    ROOT=21 WEIGHT=    0.011111
    ROOT=22 WEIGHT=    0.011111
    ROOT=23 WEIGHT=    0.011111
    ROOT=24 WEIGHT=    0.011111
    ROOT=25 WEIGHT=    0.011111
    ROOT=26 WEIGHT=    0.011111
    ROOT=27 WEIGHT=    0.011111
    ROOT=28 WEIGHT=    0.011111
    ROOT=29 WEIGHT=    0.011111
    ROOT=30 WEIGHT=    0.011111
    ROOT=31 WEIGHT=    0.011111
    ROOT=32 WEIGHT=    0.011111
    ROOT=33 WEIGHT=    0.011111
    ROOT=34 WEIGHT=    0.011111
    ROOT=35 WEIGHT=    0.011111
    ROOT=36 WEIGHT=    0.011111
    ROOT=37 WEIGHT=    0.011111
    ROOT=38 WEIGHT=    0.011111
    ROOT=39 WEIGHT=    0.011111
    ROOT=40 WEIGHT=    0.011111
    ROOT=41 WEIGHT=    0.011111
    ROOT=42 WEIGHT=    0.011111
    ROOT=43 WEIGHT=    0.011111
    ROOT=44 WEIGHT=    0.011111

  PrintLevel                        ...    1
  N(GuessMat)                       ...       512
  MaxDim(CI)                        ...        10
  MaxIter(CI)                       ...        64
  Energy Tolerance CI               ...  1.00e-08
  Residual Tolerance CI             ...  1.00e-08
  Shift(CI)                         ...  1.00e-04

INTEGRAL-TRANSFORMATION-STEP:
  Algorithm                         ... RI-MO

ORBITAL-IMPROVEMENT-STEP:
  Algorithm                         ... SuperCI(PT)
  Default Parametrization           ... CAYLEY
  Act-Act rotations                 ... depends on algorithm used

  Note: SuperCI(PT) will ignore FreezeIE, FreezeAct and FreezeGrad. In general Default settings are encouraged.
        In conjunction with ShiftUp, ShiftDn or GradScaling the performance of SuperCI(PT) is less optimal.  

  MaxRot                            ... 2.00e-01 
  Max. no of vectors (DIIS)         ... 15
  DThresh (cut-off) metric          ... 1.00e-06
  Switch step at gradient           ...  3.00e-02 
  Switch step at iteration          ...        50   
  Switch step to                    ... SuperCI(PT)    

SCF-SETTINGS:
  Incremental                       ... off
  RIJCOSX approximation             ... on
  UseFinalGrid                      ... on
  RI-JK approximation               ... off
  AO integral handling              ... DIRECT
  Integral Neglect Thresh           ...  1.00e-10
  Primitive cutoff TCut             ...  1.00e-11
  Energy convergence tolerance      ...  1.00e-07
  Orbital gradient convergence      ...  1.00e-03
  Max. number of iterations         ...        75  

PT2-SETTINGS:
  A PT2 calculation will be performed on top of the CASSCF wave function (PT2 = SC-NEVPT2)   
 CI step strategy                   ... General CI
  D4C handling                      ... on the fly 
  CI truncation for D4C at          ...  1.00e-14
  CI truncation for D3  at          ...  1.00e-14
  Orbitals                          ... canonical for each state 
  Last  frozen  orbital             ... 4
  First deleted orbital             ... 605
  RI Step                           ... store IJV(array) (MC_ONDISK during integral transformation) 

PROPERTIES-SETTINGS:
  Spin orbit coupling               ... true
  GTensor                           ... true
  QDPT diagonal energies            ... NEVPT2 energies 

FINAL ORBITALS:
  Active   Orbitals                 ... natural 
  Internal Orbitals                 ... canonical 
  External Orbitals                 ... canonical 

------------------
CAS-SCF ITERATIONS
------------------


MACRO-ITERATION   1: 
   --- Inactive Energy E0 = -3133.94645313 Eh
CI-ITERATION   0: 
 -3149.799968346   0.000000000000 (    0.13)
 -3149.793838016   0.000000000000
 -3149.793175231   0.000000000000
 -3149.789559695   0.000000000000
 -3149.788792834   0.000000000000
   CI-PROBLEM SOLVED
   DENSITIES MADE
CI-ITERATION   0: 
 -3149.705280803   0.000000000000 (    1.58)
 -3149.704737837   0.000000000000
 -3149.704573723   0.000000000000
 -3149.703299957   0.000000000000
 -3149.700173663   0.000000000000
 -3149.700038794   0.000000000000
 -3149.699191051   0.000000000000
 -3149.696718582   0.000000000000
 -3149.696264718   0.000000000000
 -3149.695568627   0.000000000000
 -3149.695201073   0.000000000000
 -3149.690664190   0.000000000000
 -3149.688994246   0.000000000000
 -3149.688521013   0.000000000000
 -3149.686515019   0.000000000000
 -3149.684308723   0.000000000000
 -3149.683578579   0.000000000000
 -3149.683057231   0.000000000000
 -3149.681244636   0.000000000000
 -3149.678481479   0.000000000000
 -3149.678268586   0.000000000000
 -3149.676999571   0.000000000000
 -3149.676033963   0.000000000000
 -3149.675726851   0.000000000000
 -3149.674105440   0.000000000000
 -3149.671351234   0.000000000000
 -3149.670314227   0.000000000000
 -3149.668690838   0.000000000000
 -3149.667908893   0.000000000000
 -3149.667896533   0.000000000000
 -3149.640890228   0.000000000000
 -3149.638616381   0.000000000000
 -3149.637802792   0.000000000000
 -3149.636108171   0.000000000000
 -3149.634748944   0.000000000000
 -3149.538857674   0.000000000000
 -3149.537014134   0.000000000000
 -3149.536666076   0.000000000000
 -3149.535471082   0.000000000000
 -3149.535394947   0.000000000000
 -3149.535057557   0.000000000000
 -3149.534179956   0.000000000000
 -3149.530996099   0.000000000000
 -3149.529521572   0.000000000000
 -3149.528565398   0.000000000000
   CI-PROBLEM SOLVED
   DENSITIES MADE

                 <<<<<<<<<<<<<<<<<<INITIAL CI STATE CHECK>>>>>>>>>>>>>>>>>>

BLOCK  1 MULT= 5 NROOTS= 5 
ROOT   0:  E=   -3149.7999683458 Eh
      0.96459 [     3]: 12111
      0.01664 [     2]: 11211
      0.00972 [     0]: 11112
      0.00906 [     4]: 21111
ROOT   1:  E=   -3149.7938380161 Eh  0.167 eV   1345.5 cm**-1
      0.73220 [     4]: 21111
      0.25675 [     2]: 11211
      0.01101 [     0]: 11112
ROOT   2:  E=   -3149.7931752307 Eh  0.185 eV   1490.9 cm**-1
      0.78761 [     0]: 11112
      0.18967 [     2]: 11211
      0.02225 [     4]: 21111
ROOT   3:  E=   -3149.7895596946 Eh  0.283 eV   2284.4 cm**-1
      0.99897 [     1]: 11121
ROOT   4:  E=   -3149.7887928338 Eh  0.304 eV   2452.7 cm**-1
      0.53669 [     2]: 11211
      0.23634 [     4]: 21111
      0.19107 [     0]: 11112
      0.03505 [     3]: 12111

BLOCK  2 MULT= 3 NROOTS=45 
ROOT   0:  E=   -3149.7052808027 Eh
      0.49357 [    18]: 12111
      0.13616 [    32]: 22011
      0.11828 [    21]: 12210
      0.07338 [    15]: 12012
      0.03492 [    34]: 22110
      0.03064 [    28]: 21111
      0.02305 [    13]: 11211
      0.01855 [    24]: 20211
      0.01338 [    12]: 11202
      0.00963 [     0]: 01122
      0.00927 [    29]: 21120
      0.00715 [     9]: 11022
      0.00560 [    31]: 21210
      0.00537 [    25]: 21012
      0.00456 [    10]: 11112
      0.00449 [     5]: 02211
      0.00404 [    22]: 20112
      0.00251 [     2]: 01221
ROOT   1:  E=   -3149.7047378373 Eh  0.015 eV    119.2 cm**-1
      0.50774 [    33]: 22101
      0.18792 [     4]: 02121
      0.09076 [    10]: 11112
      0.06008 [    20]: 12201
      0.04578 [    28]: 21111
      0.02896 [    13]: 11211
      0.01544 [    25]: 21012
      0.01237 [    30]: 21201
      0.00898 [     8]: 10221
      0.00638 [    11]: 11121
      0.00610 [    23]: 20121
      0.00549 [    19]: 12120
      0.00500 [     2]: 01221
      0.00459 [    31]: 21210
      0.00301 [    27]: 21102
      0.00259 [     1]: 01212
ROOT   2:  E=   -3149.7045737234 Eh  0.019 eV    155.2 cm**-1
      0.38081 [    18]: 12111
      0.30843 [    15]: 12012
      0.06083 [    34]: 22110
      0.05464 [    26]: 21021
      0.04001 [    10]: 11112
      0.02844 [    21]: 12210
      0.02580 [    30]: 21201
      0.02001 [    11]: 11121
      0.01293 [    22]: 20112
      0.01138 [    29]: 21120
      0.00785 [     7]: 10212
      0.00778 [    13]: 11211
      0.00725 [    14]: 11220
      0.00648 [    28]: 21111
      0.00644 [    27]: 21102
      0.00572 [     5]: 02211
      0.00254 [     9]: 11022
ROOT   3:  E=   -3149.7032999566 Eh  0.054 eV    434.7 cm**-1
      0.46745 [    18]: 12111
      0.12643 [    27]: 21102
      0.06029 [    21]: 12210
      0.05485 [    32]: 22011
      0.05473 [    15]: 12012
      0.04619 [    11]: 11121
      0.03895 [     0]: 01122
      0.03199 [    30]: 21201
      0.02791 [     5]: 02211
      0.02518 [     9]: 11022
      0.01502 [    29]: 21120
      0.01421 [    13]: 11211
      0.01379 [     2]: 01221
      0.00523 [    28]: 21111
      0.00369 [    14]: 11220
      0.00301 [     6]: 10122
      0.00253 [    10]: 11112
ROOT   4:  E=   -3149.7001736632 Eh  0.139 eV   1120.9 cm**-1
      0.32679 [    28]: 21111
      0.16146 [    13]: 11211
      0.16077 [    17]: 12102
      0.06880 [    19]: 12120
      0.06661 [    31]: 21210
      0.06020 [    25]: 21012
      0.03362 [    20]: 12201
      0.02833 [    24]: 20211
      0.02037 [    10]: 11112
      0.01675 [    32]: 22011
      0.01072 [    18]: 12111
      0.00866 [    16]: 12021
      0.00646 [    22]: 20112
      0.00478 [    33]: 22101
      0.00464 [    21]: 12210
      0.00446 [    34]: 22110
      0.00420 [    12]: 11202
      0.00259 [     6]: 10122
ROOT   5:  E=   -3149.7000387937 Eh  0.143 eV   1150.5 cm**-1
      0.22777 [    10]: 11112
      0.18606 [    16]: 12021
      0.16393 [     4]: 02121
      0.06512 [    19]: 12120
      0.06166 [    25]: 21012
      0.04578 [    13]: 11211
      0.04002 [    23]: 20121
      0.03410 [    20]: 12201
      0.03291 [    28]: 21111
      0.02969 [     1]: 01212
      0.02586 [    11]: 11121
      0.01788 [     7]: 10212
      0.01178 [    33]: 22101
      0.00891 [    18]: 12111
      0.00864 [    15]: 12012
      0.00781 [    22]: 20112
      0.00367 [     8]: 10221
      0.00362 [     6]: 10122
      0.00336 [    26]: 21021
      0.00321 [     9]: 11022
      0.00259 [     2]: 01221
ROOT   6:  E=   -3149.6991910510 Eh  0.166 eV   1336.5 cm**-1
      0.14879 [    11]: 11121
      0.14197 [    34]: 22110
      0.13379 [    21]: 12210
      0.11901 [     3]: 02112
      0.05704 [    15]: 12012
      0.05158 [    32]: 22011
      0.04678 [    14]: 11220
      0.04525 [     7]: 10212
      0.04242 [     2]: 01221
      0.03856 [    30]: 21201
      0.03528 [     9]: 11022
      0.02208 [     0]: 01122
      0.02165 [    18]: 12111
      0.01261 [     5]: 02211
      0.01060 [     8]: 10221
      0.00952 [    10]: 11112
      0.00895 [    27]: 21102
      0.00683 [    13]: 11211
      0.00575 [    16]: 12021
      0.00492 [    31]: 21210
      0.00458 [     1]: 01212
      0.00452 [    28]: 21111
      0.00429 [     6]: 10122
      0.00410 [    29]: 21120
      0.00393 [     4]: 02121
      0.00339 [    24]: 20211
      0.00267 [    19]: 12120
ROOT   7:  E=   -3149.6967185815 Eh  0.233 eV   1879.2 cm**-1
      0.27019 [    27]: 21102
      0.13510 [    11]: 11121
      0.12283 [    18]: 12111
      0.07003 [    14]: 11220
      0.06482 [     0]: 01122
      0.06066 [    30]: 21201
      0.04081 [    15]: 12012
      0.03893 [     9]: 11022
      0.03854 [    32]: 22011
      0.03478 [    34]: 22110
      0.03256 [     5]: 02211
      0.01974 [    21]: 12210
      0.01574 [    24]: 20211
      0.01386 [    28]: 21111
      0.00677 [    13]: 11211
      0.00662 [    29]: 21120
      0.00499 [    12]: 11202
      0.00429 [    17]: 12102
      0.00394 [     2]: 01221
      0.00362 [    19]: 12120
      0.00327 [    10]: 11112
      0.00324 [    22]: 20112
ROOT   8:  E=   -3149.6962647176 Eh  0.245 eV   1978.8 cm**-1
      0.41298 [    10]: 11112
      0.17119 [    28]: 21111
      0.08512 [    13]: 11211
      0.08191 [    31]: 21210
      0.05133 [    16]: 12021
      0.04857 [    25]: 21012
      0.04115 [     8]: 10221
      0.03950 [    20]: 12201
      0.01240 [    19]: 12120
      0.01095 [    11]: 11121
      0.00929 [    17]: 12102
      0.00754 [     1]: 01212
      0.00727 [     6]: 10122
      0.00530 [    23]: 20121
      0.00400 [    34]: 22110
ROOT   9:  E=   -3149.6955686273 Eh  0.264 eV   2131.6 cm**-1
      0.41698 [    13]: 11211
      0.17719 [    28]: 21111
      0.06905 [    19]: 12120
      0.06673 [    10]: 11112
      0.06485 [    25]: 21012
      0.06301 [     6]: 10122
      0.03948 [    31]: 21210
      0.02915 [    17]: 12102
      0.01654 [    16]: 12021
      0.01498 [     8]: 10221
      0.01338 [    18]: 12111
      0.00712 [    20]: 12201
      0.00327 [     1]: 01212
      0.00326 [    11]: 11121
ROOT  10:  E=   -3149.6952010726 Eh  0.274 eV   2212.2 cm**-1
      0.26154 [    30]: 21201
      0.16252 [    11]: 11121
      0.10674 [     2]: 01221
      0.09049 [     9]: 11022
      0.06831 [    22]: 20112
      0.06232 [    27]: 21102
      0.06138 [    14]: 11220
      0.05049 [     3]: 02112
      0.02095 [    21]: 12210
      0.02088 [    18]: 12111
      0.01950 [    34]: 22110
      0.01518 [    24]: 20211
      0.01094 [    29]: 21120
      0.00846 [    33]: 22101
      0.00672 [    12]: 11202
      0.00627 [    32]: 22011
      0.00602 [     5]: 02211
      0.00359 [     0]: 01122
      0.00304 [    10]: 11112
      0.00285 [     4]: 02121
      0.00282 [     1]: 01212
      0.00274 [    20]: 12201
ROOT  11:  E=   -3149.6906641896 Eh  0.398 eV   3208.0 cm**-1
      0.32763 [    10]: 11112
      0.24597 [     4]: 02121
      0.14902 [    33]: 22101
      0.08623 [    13]: 11211
      0.04324 [    20]: 12201
      0.02427 [    28]: 21111
      0.01978 [    31]: 21210
      0.01625 [     8]: 10221
      0.01269 [     7]: 10212
      0.01030 [    15]: 12012
      0.00982 [    19]: 12120
      0.00790 [    18]: 12111
      0.00681 [    11]: 11121
      0.00667 [    22]: 20112
      0.00628 [     1]: 01212
      0.00497 [    30]: 21201
      0.00451 [     3]: 02112
      0.00373 [     6]: 10122
      0.00315 [     2]: 01221
ROOT  12:  E=   -3149.6889942463 Eh  0.443 eV   3574.5 cm**-1
      0.39993 [    11]: 11121
      0.13530 [    21]: 12210
      0.10951 [    15]: 12012
      0.09419 [    34]: 22110
      0.05216 [    22]: 20112
      0.04276 [    32]: 22011
      0.02951 [    30]: 21201
      0.01869 [     3]: 02112
      0.01529 [     5]: 02211
      0.01475 [     7]: 10212
      0.01358 [    16]: 12021
      0.01040 [     8]: 10221
      0.00992 [    24]: 20211
      0.00690 [    27]: 21102
      0.00625 [     4]: 02121
      0.00620 [     6]: 10122
      0.00600 [    19]: 12120
      0.00476 [    31]: 21210
      0.00422 [    28]: 21111
      0.00353 [    26]: 21021
      0.00303 [    23]: 20121
      0.00256 [    10]: 11112
ROOT  13:  E=   -3149.6885210135 Eh  0.456 eV   3678.3 cm**-1
      0.47156 [    18]: 12111
      0.13513 [     0]: 01122
      0.13199 [    24]: 20211
      0.05165 [     9]: 11022
      0.03225 [    22]: 20112
      0.03061 [     2]: 01221
      0.02873 [    12]: 11202
      0.02359 [    11]: 11121
      0.02067 [    34]: 22110
      0.01943 [     3]: 02112
      0.01753 [    29]: 21120
      0.01166 [    26]: 21021
      0.00540 [    13]: 11211
      0.00426 [    32]: 22011
      0.00337 [     7]: 10212
ROOT  14:  E=   -3149.6865150187 Eh  0.511 eV   4118.6 cm**-1
      0.18758 [    14]: 11220
      0.12733 [    27]: 21102
      0.12165 [     5]: 02211
      0.10960 [    18]: 12111
      0.08899 [     0]: 01122
      0.05781 [    29]: 21120
      0.04332 [    21]: 12210
      0.04178 [    32]: 22011
      0.03572 [    11]: 11121
      0.03512 [    15]: 12012
      0.03382 [     3]: 02112
      0.03138 [    30]: 21201
      0.02352 [     9]: 11022
      0.01820 [    26]: 21021
      0.01249 [    34]: 22110
      0.01109 [    13]: 11211
      0.00452 [     2]: 01221
      0.00337 [    19]: 12120
      0.00320 [    10]: 11112
ROOT  15:  E=   -3149.6843087230 Eh  0.571 eV   4602.8 cm**-1
      0.25733 [    31]: 21210
      0.25287 [    25]: 21012
      0.08716 [    13]: 11211
      0.08182 [     1]: 01212
      0.05971 [    20]: 12201
      0.05605 [    16]: 12021
      0.04651 [    10]: 11112
      0.03242 [     8]: 10221
      0.02027 [    17]: 12102
      0.01961 [    33]: 22101
      0.01813 [    19]: 12120
      0.01665 [     4]: 02121
      0.00674 [    34]: 22110
      0.00607 [    15]: 12012
      0.00567 [     6]: 10122
      0.00566 [    28]: 21111
      0.00470 [    23]: 20121
      0.00354 [     7]: 10212
      0.00310 [    32]: 22011
      0.00298 [    26]: 21021
      0.00285 [    21]: 12210
      0.00268 [    22]: 20112
ROOT  16:  E=   -3149.6835785794 Eh  0.591 eV   4763.1 cm**-1
      0.26169 [     2]: 01221
      0.19036 [    30]: 21201
      0.13910 [    11]: 11121
      0.11522 [    26]: 21021
      0.06332 [    18]: 12111
      0.04377 [    27]: 21102
      0.02909 [     0]: 01122
      0.02320 [     3]: 02112
      0.02184 [    21]: 12210
      0.01598 [    22]: 20112
      0.01309 [     5]: 02211
      0.00959 [     4]: 02121
      0.00863 [     9]: 11022
      0.00766 [    29]: 21120
      0.00721 [    15]: 12012
      0.00692 [     7]: 10212
      0.00619 [    33]: 22101
      0.00535 [    12]: 11202
      0.00455 [    14]: 11220
      0.00376 [     8]: 10221
      0.00358 [    23]: 20121
      0.00349 [    19]: 12120
      0.00303 [    16]: 12021
      0.00292 [     6]: 10122
      0.00260 [    20]: 12201
ROOT  17:  E=   -3149.6830572313 Eh  0.605 eV   4877.5 cm**-1
      0.36479 [    28]: 21111
      0.30406 [    13]: 11211
      0.10149 [    17]: 12102
      0.07914 [    10]: 11112
      0.03607 [     6]: 10122
      0.02334 [    20]: 12201
      0.01977 [    19]: 12120
      0.01429 [    25]: 21012
      0.00900 [    18]: 12111
      0.00794 [     8]: 10221
      0.00767 [    21]: 12210
      0.00716 [     1]: 01212
      0.00489 [    16]: 12021
      0.00444 [    12]: 11202
      0.00299 [    33]: 22101
      0.00287 [    15]: 12012
ROOT  18:  E=   -3149.6812446360 Eh  0.654 eV   5275.3 cm**-1
      0.23195 [     9]: 11022
      0.15773 [    12]: 11202
      0.13443 [     0]: 01122
      0.10334 [    24]: 20211
      0.06555 [    14]: 11220
      0.04757 [    32]: 22011
      0.04705 [     2]: 01221
      0.04361 [    29]: 21120
      0.04303 [    27]: 21102
      0.02355 [    22]: 20112
      0.02314 [    11]: 11121
      0.02229 [    18]: 12111
      0.01132 [    34]: 22110
      0.01125 [     5]: 02211
      0.00529 [    21]: 12210
      0.00499 [    17]: 12102
      0.00359 [    15]: 12012
      0.00318 [     7]: 10212
      0.00302 [    19]: 12120
      0.00297 [     3]: 02112
      0.00261 [    13]: 11211
ROOT  19:  E=   -3149.6784814788 Eh  0.729 eV   5881.8 cm**-1
      0.23876 [    11]: 11121
      0.21536 [     7]: 10212
      0.13545 [    22]: 20112
      0.06438 [    10]: 11112
      0.05027 [     3]: 02112
      0.03448 [    23]: 20121
      0.02977 [    30]: 21201
      0.02433 [     0]: 01122
      0.02382 [     2]: 01221
      0.01876 [     4]: 02121
      0.01775 [     5]: 02211
      0.01680 [     8]: 10221
      0.01673 [    13]: 11211
      0.01647 [    21]: 12210
      0.01168 [    18]: 12111
      0.01114 [    24]: 20211
      0.00925 [    16]: 12021
      0.00914 [    15]: 12012
      0.00850 [    29]: 21120
      0.00815 [    25]: 21012
      0.00681 [    27]: 21102
      0.00677 [     1]: 01212
      0.00642 [    33]: 22101
      0.00521 [     6]: 10122
      0.00331 [     9]: 11022
      0.00266 [    34]: 22110
ROOT  20:  E=   -3149.6782685863 Eh  0.735 eV   5928.5 cm**-1
      0.31315 [    10]: 11112
      0.13930 [     8]: 10221
      0.10606 [    23]: 20121
      0.05910 [     6]: 10122
      0.05535 [    13]: 11211
      0.05203 [     1]: 01212
      0.04553 [     7]: 10212
      0.04551 [    11]: 11121
      0.03981 [    16]: 12021
      0.02080 [     4]: 02121
      0.02014 [     3]: 02112
      0.01346 [    33]: 22101
      0.01173 [    22]: 20112
      0.01150 [     2]: 01221
      0.00986 [     0]: 01122
      0.00788 [     5]: 02211
      0.00774 [    28]: 21111
      0.00713 [    15]: 12012
      0.00627 [    30]: 21201
      0.00546 [    19]: 12120
      0.00421 [    25]: 21012
      0.00410 [    29]: 21120
      0.00371 [    21]: 12210
ROOT  21:  E=   -3149.6769995710 Eh  0.770 eV   6207.0 cm**-1
      0.20434 [    19]: 12120
      0.15578 [    17]: 12102
      0.12592 [    28]: 21111
      0.11402 [    31]: 21210
      0.10519 [    13]: 11211
      0.06810 [    25]: 21012
      0.05544 [    10]: 11112
      0.04888 [    16]: 12021
      0.03590 [    20]: 12201
      0.01530 [    24]: 20211
      0.01145 [     6]: 10122
      0.00958 [    32]: 22011
      0.00594 [     1]: 01212
      0.00572 [     4]: 02121
      0.00567 [    18]: 12111
      0.00530 [    12]: 11202
      0.00474 [    33]: 22101
      0.00394 [    34]: 22110
      0.00392 [    14]: 11220
      0.00317 [    22]: 20112
      0.00255 [     8]: 10221
ROOT  22:  E=   -3149.6760339627 Eh  0.796 eV   6418.9 cm**-1
      0.23448 [    28]: 21111
      0.22678 [    10]: 11112
      0.08981 [     4]: 02121
      0.07939 [    25]: 21012
      0.07812 [    16]: 12021
      0.07061 [    20]: 12201
      0.06221 [    13]: 11211
      0.04571 [    31]: 21210
      0.02877 [    33]: 22101
      0.01987 [     1]: 01212
      0.01267 [     8]: 10221
      0.00923 [    17]: 12102
      0.00713 [    19]: 12120
      0.00625 [    11]: 11121
      0.00480 [    22]: 20112
      0.00474 [    34]: 22110
      0.00420 [     6]: 10122
ROOT  23:  E=   -3149.6757268508 Eh  0.804 eV   6486.3 cm**-1
      0.16527 [    11]: 11121
      0.13788 [    18]: 12111
      0.12406 [    32]: 22011
      0.10462 [    27]: 21102
      0.10128 [     0]: 01122
      0.06752 [    24]: 20211
      0.06614 [     5]: 02211
      0.04497 [     2]: 01221
      0.03701 [    14]: 11220
      0.03089 [     9]: 11022
      0.01957 [    30]: 21201
      0.01895 [    28]: 21111
      0.01635 [    22]: 20112
      0.01540 [    34]: 22110
      0.01038 [    12]: 11202
      0.00748 [     6]: 10122
      0.00580 [     3]: 02112
      0.00386 [    10]: 11112
      0.00326 [    26]: 21021
      0.00311 [    19]: 12120
      0.00280 [    31]: 21210
ROOT  24:  E=   -3149.6741054397 Eh  0.848 eV   6842.2 cm**-1
      0.15656 [    14]: 11220
      0.14714 [    11]: 11121
      0.12897 [     9]: 11022
      0.12296 [     3]: 02112
      0.08905 [    34]: 22110
      0.07600 [     2]: 01221
      0.04780 [    22]: 20112
      0.03995 [     0]: 01122
      0.03001 [     7]: 10212
      0.02642 [     5]: 02211
      0.02009 [    30]: 21201
      0.01938 [    18]: 12111
      0.01681 [    15]: 12012
      0.01632 [    32]: 22011
      0.00868 [     8]: 10221
      0.00751 [     1]: 01212
      0.00680 [    29]: 21120
      0.00610 [    10]: 11112
      0.00578 [    24]: 20211
      0.00478 [    27]: 21102
      0.00397 [    31]: 21210
      0.00359 [    13]: 11211
      0.00344 [    16]: 12021
      0.00315 [    21]: 12210
      0.00281 [     4]: 02121
ROOT  25:  E=   -3149.6713512344 Eh  0.923 eV   7446.7 cm**-1
      0.39561 [    28]: 21111
      0.39166 [    13]: 11211
      0.08590 [    10]: 11112
      0.04507 [    25]: 21012
      0.03470 [    31]: 21210
      0.01754 [    18]: 12111
      0.00635 [    24]: 20211
      0.00454 [    17]: 12102
      0.00421 [    34]: 22110
      0.00323 [    22]: 20112
      0.00281 [    32]: 22011
      0.00256 [    19]: 12120
ROOT  26:  E=   -3149.6703142274 Eh  0.951 eV   7674.3 cm**-1
      0.29126 [    24]: 20211
      0.15656 [    14]: 11220
      0.13501 [    11]: 11121
      0.10529 [    18]: 12111
      0.06661 [    22]: 20112
      0.05528 [     5]: 02211
      0.03691 [    12]: 11202
      0.02811 [    28]: 21111
      0.02751 [    27]: 21102
      0.01764 [    15]: 12012
      0.01338 [     2]: 01221
      0.01044 [    13]: 11211
      0.00752 [     7]: 10212
      0.00739 [    21]: 12210
      0.00735 [    34]: 22110
      0.00498 [    19]: 12120
      0.00454 [    31]: 21210
      0.00344 [    32]: 22011
      0.00291 [    29]: 21120
      0.00280 [     0]: 01122
      0.00264 [     3]: 02112
ROOT  27:  E=   -3149.6686908379 Eh  0.996 eV   8030.6 cm**-1
      0.29246 [    11]: 11121
      0.21061 [    22]: 20112
      0.14482 [     2]: 01221
      0.07631 [    30]: 21201
      0.05658 [     3]: 02112
      0.05188 [     0]: 01122
      0.04901 [    24]: 20211
      0.02598 [    34]: 22110
      0.01747 [    27]: 21102
      0.01012 [     5]: 02211
      0.00822 [    32]: 22011
      0.00804 [    16]: 12021
      0.00705 [    18]: 12111
      0.00678 [    28]: 21111
      0.00476 [    10]: 11112
      0.00447 [    21]: 12210
      0.00309 [    29]: 21120
      0.00290 [    33]: 22101
      0.00286 [     9]: 11022
      0.00279 [    25]: 21012
ROOT  28:  E=   -3149.6679088930 Eh  1.017 eV   8202.2 cm**-1
      0.26283 [    13]: 11211
      0.21264 [     6]: 10122
      0.13121 [     8]: 10221
      0.11981 [    10]: 11112
      0.06895 [    19]: 12120
      0.06553 [    28]: 21111
      0.03285 [    16]: 12021
      0.02045 [    25]: 21012
      0.01888 [    17]: 12102
      0.01105 [    11]: 11121
      0.01085 [    20]: 12201
      0.00956 [    31]: 21210
      0.00660 [    18]: 12111
      0.00577 [    23]: 20121
      0.00459 [    32]: 22011
      0.00379 [     5]: 02211
      0.00336 [     1]: 01212
ROOT  29:  E=   -3149.6678965330 Eh  1.017 eV   8204.9 cm**-1
      0.28220 [     8]: 10221
      0.15073 [    10]: 11112
      0.13953 [     6]: 10122
      0.07305 [    28]: 21111
      0.06773 [    31]: 21210
      0.05999 [    13]: 11211
      0.04371 [     4]: 02121
      0.04336 [    16]: 12021
      0.02983 [     1]: 01212
      0.02386 [    11]: 11121
      0.01927 [    20]: 12201
      0.01750 [    19]: 12120
      0.01280 [    17]: 12102
      0.00567 [    14]: 11220
      0.00526 [     9]: 11022
      0.00424 [     7]: 10212
      0.00335 [    23]: 20121
      0.00256 [     3]: 02112
      0.00254 [    34]: 22110
ROOT  30:  E=   -3149.6408902280 Eh  1.752 eV  14132.1 cm**-1
      0.14663 [    12]: 11202
      0.12004 [    29]: 21120
      0.10700 [    32]: 22011
      0.10251 [     5]: 02211
      0.07721 [     9]: 11022
      0.07473 [    11]: 11121
      0.06361 [     0]: 01122
      0.05440 [    26]: 21021
      0.03239 [    15]: 12012
      0.03056 [    34]: 22110
      0.03010 [    21]: 12210
      0.03000 [     3]: 02112
      0.02781 [    18]: 12111
      0.02220 [    27]: 21102
      0.01980 [    14]: 11220
      0.01827 [    30]: 21201
      0.01409 [     2]: 01221
      0.00681 [     6]: 10122
      0.00656 [    13]: 11211
      0.00505 [    28]: 21111
ROOT  31:  E=   -3149.6386163807 Eh  1.814 eV  14631.1 cm**-1
      0.41532 [    28]: 21111
      0.23034 [    13]: 11211
      0.10463 [    17]: 12102
      0.08100 [    10]: 11112
      0.05141 [    19]: 12120
      0.02818 [    31]: 21210
      0.02411 [    20]: 12201
      0.01192 [    18]: 12111
      0.01169 [    16]: 12021
      0.00792 [     1]: 01212
      0.00610 [    25]: 21012
      0.00462 [    12]: 11202
      0.00429 [     6]: 10122
      0.00300 [    27]: 21102
      0.00271 [    21]: 12210
ROOT  32:  E=   -3149.6378027915 Eh  1.836 eV  14809.7 cm**-1
      0.18604 [    10]: 11112
      0.16920 [    23]: 20121
      0.11467 [    16]: 12021
      0.09478 [     1]: 01212
      0.09251 [    20]: 12201
      0.07123 [    33]: 22101
      0.06743 [    25]: 21012
      0.04287 [    28]: 21111
      0.04268 [     4]: 02121
      0.03514 [    17]: 12102
      0.01830 [    13]: 11211
      0.01818 [    31]: 21210
      0.01655 [    19]: 12120
      0.00601 [    11]: 11121
      0.00378 [    22]: 20112
      0.00310 [    15]: 12012
      0.00291 [     7]: 10212
      0.00251 [     6]: 10122
ROOT  33:  E=   -3149.6361081711 Eh  1.882 eV  15181.6 cm**-1
      0.43357 [    11]: 11121
      0.14074 [     7]: 10212
      0.09023 [     3]: 02112
      0.07321 [    21]: 12210
      0.05943 [    18]: 12111
      0.04352 [     5]: 02211
      0.03767 [    34]: 22110
      0.01914 [    15]: 12012
      0.01321 [    24]: 20211
      0.01154 [     2]: 01221
      0.01133 [    14]: 11220
      0.01127 [    22]: 20112
      0.01071 [     9]: 11022
      0.00774 [    32]: 22011
      0.00759 [    26]: 21021
      0.00728 [    10]: 11112
      0.00414 [    29]: 21120
      0.00306 [     0]: 01122
      0.00289 [     8]: 10221
      0.00284 [     4]: 02121
ROOT  34:  E=   -3149.6347489443 Eh  1.919 eV  15480.0 cm**-1
      0.29618 [    13]: 11211
      0.24636 [    28]: 21111
      0.13190 [     6]: 10122
      0.09735 [    10]: 11112
      0.08015 [    19]: 12120
      0.03285 [     8]: 10221
      0.02521 [    31]: 21210
      0.02061 [    16]: 12021
      0.01737 [    17]: 12102
      0.00739 [    11]: 11121
      0.00662 [    25]: 21012
      0.00601 [     1]: 01212
      0.00475 [    18]: 12111
      0.00420 [    32]: 22011
      0.00392 [    20]: 12201
      0.00359 [    23]: 20121
      0.00299 [     5]: 02211
ROOT  35:  E=   -3149.5388576738 Eh  4.529 eV  36525.7 cm**-1
      0.34360 [    20]: 12201
      0.15889 [    16]: 12021
      0.11033 [    10]: 11112
      0.09940 [    17]: 12102
      0.09084 [     8]: 10221
      0.03621 [    19]: 12120
      0.03463 [    13]: 11211
      0.03344 [     1]: 01212
      0.02904 [    33]: 22101
      0.01823 [     6]: 10122
      0.01244 [    25]: 21012
      0.01056 [    28]: 21111
      0.00546 [    31]: 21210
      0.00279 [    23]: 20121
      0.00277 [     7]: 10212
ROOT  36:  E=   -3149.5370141341 Eh  4.579 eV  36930.3 cm**-1
      0.24737 [    34]: 22110
      0.17030 [     3]: 02112
      0.11626 [    22]: 20112
      0.08492 [    11]: 11121
      0.06961 [    26]: 21021
      0.06851 [    21]: 12210
      0.05287 [    32]: 22011
      0.04123 [    29]: 21120
      0.03244 [    24]: 20211
      0.02433 [     5]: 02211
      0.01920 [    15]: 12012
      0.01732 [    18]: 12111
      0.01153 [     2]: 01221
      0.01104 [     9]: 11022
      0.00646 [     7]: 10212
      0.00519 [    23]: 20121
      0.00410 [    30]: 21201
      0.00355 [    14]: 11220
      0.00288 [    31]: 21210
      0.00279 [     1]: 01212
ROOT  37:  E=   -3149.5366660763 Eh  4.588 eV  37006.7 cm**-1
      0.35982 [    12]: 11202
      0.15438 [     5]: 02211
      0.07590 [    14]: 11220
      0.06687 [    24]: 20211
      0.05728 [     9]: 11022
      0.05589 [    18]: 12111
      0.05155 [    32]: 22011
      0.04380 [     3]: 02112
      0.02444 [    30]: 21201
      0.01693 [    22]: 20112
      0.01569 [    27]: 21102
      0.01308 [    29]: 21120
      0.01170 [    34]: 22110
      0.01070 [    17]: 12102
      0.00870 [     0]: 01122
      0.00780 [    26]: 21021
      0.00496 [     6]: 10122
      0.00451 [    15]: 12012
      0.00261 [    20]: 12201
ROOT  38:  E=   -3149.5354710819 Eh  4.621 eV  37268.9 cm**-1
      0.50665 [     1]: 01212
      0.13894 [    31]: 21210
      0.11856 [    25]: 21012
      0.04674 [    20]: 12201
      0.03259 [    13]: 11211
      0.02912 [    33]: 22101
      0.02626 [    23]: 20121
      0.02088 [    10]: 11112
      0.01983 [     8]: 10221
      0.01008 [     4]: 02121
      0.00841 [     7]: 10212
      0.00781 [    16]: 12021
      0.00628 [     3]: 02112
      0.00441 [    28]: 21111
      0.00345 [    17]: 12102
      0.00286 [     5]: 02211
      0.00269 [    19]: 12120
ROOT  39:  E=   -3149.5353949470 Eh  4.623 eV  37285.6 cm**-1
      0.23251 [     6]: 10122
      0.18527 [    19]: 12120
      0.16886 [    17]: 12102
      0.08740 [    28]: 21111
      0.07504 [    13]: 11211
      0.04428 [     8]: 10221
      0.03695 [    16]: 12021
      0.02836 [    10]: 11112
      0.02606 [    20]: 12201
      0.02006 [    12]: 11202
      0.01988 [     1]: 01212
      0.01770 [     9]: 11022
      0.01522 [    14]: 11220
      0.00722 [     4]: 02121
      0.00719 [    25]: 21012
      0.00411 [     0]: 01122
      0.00368 [    29]: 21120
      0.00366 [    18]: 12111
      0.00319 [    23]: 20121
      0.00286 [    27]: 21102
      0.00275 [    15]: 12012
ROOT  40:  E=   -3149.5350575572 Eh  4.632 eV  37359.7 cm**-1
      0.16102 [    12]: 11202
      0.14066 [     5]: 02211
      0.13857 [    32]: 22011
      0.10618 [    18]: 12111
      0.10591 [     9]: 11022
      0.07829 [    29]: 21120
      0.03991 [    24]: 20211
      0.03982 [     3]: 02112
      0.03920 [    15]: 12012
      0.03468 [    14]: 11220
      0.02390 [    34]: 22110
      0.01223 [    17]: 12102
      0.01079 [     6]: 10122
      0.00943 [    11]: 11121
      0.00897 [    27]: 21102
      0.00889 [    22]: 20112
      0.00686 [    19]: 12120
      0.00577 [    21]: 12210
      0.00498 [    26]: 21021
      0.00437 [    16]: 12021
      0.00400 [     0]: 01122
      0.00362 [    13]: 11211
      0.00334 [     8]: 10221
      0.00320 [    20]: 12201
ROOT  41:  E=   -3149.5341799561 Eh  4.656 eV  37552.3 cm**-1
      0.48127 [    26]: 21021
      0.09503 [    29]: 21120
      0.07846 [     2]: 01221
      0.07664 [    30]: 21201
      0.03545 [    18]: 12111
      0.03247 [    21]: 12210
      0.03083 [    34]: 22110
      0.02510 [     0]: 01122
      0.02125 [     3]: 02112
      0.01791 [     7]: 10212
      0.01779 [    27]: 21102
      0.01492 [    22]: 20112
      0.01462 [    23]: 20121
      0.01211 [    11]: 11121
      0.00972 [    14]: 11220
      0.00871 [    32]: 22011
      0.00436 [     9]: 11022
      0.00388 [    16]: 12021
      0.00373 [     4]: 02121
      0.00289 [    33]: 22101
ROOT  42:  E=   -3149.5309960988 Eh  4.743 eV  38251.1 cm**-1
      0.40619 [    29]: 21120
      0.12074 [    18]: 12111
      0.11732 [     0]: 01122
      0.09266 [    26]: 21021
      0.06439 [     5]: 02211
      0.05488 [    27]: 21102
      0.04128 [     3]: 02112
      0.02445 [     2]: 01221
      0.01791 [    30]: 21201
      0.01317 [    12]: 11202
      0.00887 [    21]: 12210
      0.00775 [    32]: 22011
      0.00631 [    19]: 12120
      0.00556 [    11]: 11121
      0.00465 [     9]: 11022
      0.00278 [    14]: 11220
      0.00251 [    13]: 11211
ROOT  43:  E=   -3149.5295215723 Eh  4.783 eV  38574.7 cm**-1
      0.38275 [     7]: 10212
      0.12634 [    21]: 12210
      0.09496 [    15]: 12012
      0.09363 [    11]: 11121
      0.08231 [    22]: 20112
      0.05647 [    24]: 20211
      0.04486 [    26]: 21021
      0.01406 [    29]: 21120
      0.01273 [     5]: 02211
      0.01021 [     3]: 02112
      0.00915 [    10]: 11112
      0.00818 [    18]: 12111
      0.00770 [     9]: 11022
      0.00731 [    23]: 20121
      0.00693 [    25]: 21012
      0.00637 [    34]: 22110
      0.00538 [     2]: 01221
      0.00521 [    30]: 21201
      0.00435 [    14]: 11220
      0.00324 [    33]: 22101
      0.00315 [     0]: 01122
      0.00295 [     1]: 01212
      0.00254 [    31]: 21210
ROOT  44:  E=   -3149.5285653981 Eh  4.809 eV  38784.5 cm**-1
      0.54095 [    23]: 20121
      0.10201 [     4]: 02121
      0.08240 [    33]: 22101
      0.07304 [    10]: 11112
      0.04880 [     8]: 10221
      0.04560 [     1]: 01212
      0.02690 [    13]: 11211
      0.01761 [    16]: 12021
      0.01007 [     7]: 10212
      0.00804 [    11]: 11121
      0.00628 [    26]: 21021
      0.00598 [     2]: 01221
      0.00559 [    25]: 21012
      0.00519 [    17]: 12102
      0.00369 [    29]: 21120
      0.00325 [    31]: 21210

                 <<<<<<<<<<<<<<<<<<INITIAL CI STATE CHECK>>>>>>>>>>>>>>>>>>

   E(CAS)= -3149.720128980 Eh DE=    0.000000e+00
   --- Energy gap subspaces: Ext-Act = 0.212   Act-Int = -0.059
   N(occ)=  1.20000 1.20000 1.20000 1.20000 1.20000
   ||g|| =     3.796979e-04 Max(G)=    9.819033e-05 Rot=148,144
                     ---- THE CAS-SCF GRADIENT HAS CONVERGED ----
                            --- FINALIZING ORBITALS ---
                    ---- DOING ONE FINAL ITERATION FOR PRINTING ----
   --- Forming Natural Orbitals
   --- Canonicalize Internal Space
   --- Canonicalize External Space

MACRO-ITERATION   2: 
   --- Inactive Energy E0 = -3133.94645313 Eh
   --- All densities will be recomputed
CI-ITERATION   0: 
 -3149.799968344   0.000000000000 (    0.15)
 -3149.793838012   0.000000000000
 -3149.793175229   0.000000000000
 -3149.789559692   0.000000000000
 -3149.788792832   0.000000000000
   CI-PROBLEM SOLVED
   DENSITIES MADE
CI-ITERATION   0: 
 -3149.705280800   0.000000000000 (    1.11)
 -3149.704737835   0.000000000000
 -3149.704573721   0.000000000000
 -3149.703299955   0.000000000000
 -3149.700173660   0.000000000000
 -3149.700038792   0.000000000000
 -3149.699191049   0.000000000000
 -3149.696718579   0.000000000000
 -3149.696264715   0.000000000000
 -3149.695568625   0.000000000000
 -3149.695201070   0.000000000000
 -3149.690664188   0.000000000000
 -3149.688994244   0.000000000000
 -3149.688521012   0.000000000000
 -3149.686515017   0.000000000000
 -3149.684308720   0.000000000000
 -3149.683578578   0.000000000000
 -3149.683057229   0.000000000000
 -3149.681244634   0.000000000000
 -3149.678481476   0.000000000000
 -3149.678268584   0.000000000000
 -3149.676999568   0.000000000000
 -3149.676033960   0.000000000000
 -3149.675726848   0.000000000000
 -3149.674105438   0.000000000000
 -3149.671351231   0.000000000000
 -3149.670314224   0.000000000000
 -3149.668690835   0.000000000000
 -3149.667908890   0.000000000000
 -3149.667896530   0.000000000000
 -3149.640890226   0.000000000000
 -3149.638616378   0.000000000000
 -3149.637802789   0.000000000000
 -3149.636108169   0.000000000000
 -3149.634748941   0.000000000000
 -3149.538857672   0.000000000000
 -3149.537014131   0.000000000000
 -3149.536666075   0.000000000000
 -3149.535471081   0.000000000000
 -3149.535394945   0.000000000000
 -3149.535057555   0.000000000000
 -3149.534179952   0.000000000000
 -3149.530996096   0.000000000000
 -3149.529521569   0.000000000000
 -3149.528565394   0.000000000000
   CI-PROBLEM SOLVED
   DENSITIES MADE
   E(CAS)= -3149.720128977 Eh DE=    2.402430e-09
   --- Energy gap subspaces: Ext-Act = 0.213   Act-Int = -0.055
   N(occ)=  1.20000 1.20000 1.20000 1.20000 1.20000
   ||g|| =     3.796978e-04 Max(G)=   -9.002099e-05 Rot=148,146
--------------
CASSCF RESULTS
--------------

Final CASSCF energy       : -3149.720128977 Eh  -85708.2420 eV

----------------
ORBITAL ENERGIES
----------------

  NO   OCC          E(Eh)            E(eV) 
   0   2.0000    -261.404146     -7113.1684 
   1   2.0000     -31.965402      -869.8228 
   2   2.0000     -27.445638      -746.8338 
   3   2.0000     -27.445469      -746.8292 
   4   2.0000     -27.445458      -746.8289 
   5   2.0000      -4.730159      -128.7142 
   6   2.0000      -4.730019      -128.7104 
   7   2.0000      -4.729242      -128.6892 
   8   2.0000      -4.729078      -128.6848 
   9   2.0000      -4.717283      -128.3638 
  10   2.0000      -4.717183      -128.3611 
  11   2.0000      -4.716458      -128.3414 
  12   2.0000      -4.716448      -128.3411 
  13   2.0000      -4.714762      -128.2952 
  14   2.0000      -4.714744      -128.2947 
  15   2.0000      -4.708988      -128.1381 
  16   2.0000      -4.708826      -128.1337 
  17   2.0000      -4.703103      -127.9780 
  18   2.0000      -4.702718      -127.9675 
  19   2.0000      -4.199472      -114.2734 
  20   2.0000      -2.780510       -75.6615 
  21   2.0000      -2.779397       -75.6312 
  22   2.0000      -2.777994       -75.5931 
  23   2.0000      -2.771611       -75.4194 
  24   2.0000      -2.769949       -75.3741 
  25   2.0000      -2.768872       -75.3448 
  26   2.0000      -2.768163       -75.3256 
  27   2.0000      -2.766816       -75.2889 
  28   2.0000      -2.766611       -75.2833 
  29   2.0000      -2.766135       -75.2704 
  30   2.0000      -2.766030       -75.2675 
  31   2.0000      -2.765042       -75.2406 
  32   2.0000      -2.764889       -75.2365 
  33   2.0000      -2.763514       -75.1990 
  34   2.0000      -2.763434       -75.1969 
  35   2.0000      -2.756200       -75.0000 
  36   2.0000      -2.755888       -74.9915 
  37   2.0000      -2.753530       -74.9274 
  38   2.0000      -2.753367       -74.9229 
  39   2.0000      -2.752108       -74.8887 
  40   2.0000      -2.752005       -74.8859 
  41   2.0000      -2.751855       -74.8818 
  42   2.0000      -2.751733       -74.8785 
  43   2.0000      -2.751572       -74.8741 
  44   2.0000      -2.751218       -74.8645 
  45   2.0000      -2.750032       -74.8322 
  46   2.0000      -2.749974       -74.8306 
  47   2.0000      -2.749956       -74.8301 
  48   2.0000      -2.749936       -74.8296 
  49   2.0000      -2.748737       -74.7969 
  50   2.0000      -2.748286       -74.7847 
  51   2.0000      -2.747822       -74.7720 
  52   2.0000      -2.747672       -74.7680 
  53   2.0000      -2.745731       -74.7151 
  54   2.0000      -2.745242       -74.7018 
  55   2.0000      -2.744299       -74.6762 
  56   2.0000      -2.742751       -74.6341 
  57   2.0000      -2.742395       -74.6244 
  58   2.0000      -2.740567       -74.5746 
  59   2.0000      -2.739730       -74.5518 
  60   2.0000      -2.739011       -74.5323 
  61   2.0000      -2.738586       -74.5207 
  62   2.0000      -2.737196       -74.4829 
  63   2.0000      -2.736781       -74.4716 
  64   2.0000      -2.736401       -74.4612 
  65   2.0000      -0.604015       -16.4361 
  66   2.0000      -0.567039       -15.4299 
  67   2.0000      -0.564390       -15.3578 
  68   2.0000      -0.557337       -15.1659 
  69   2.0000      -0.557220       -15.1627 
  70   2.0000      -0.554491       -15.0885 
  71   2.0000      -0.552478       -15.0337 
  72   2.0000      -0.550591       -14.9824 
  73   2.0000      -0.548867       -14.9354 
  74   2.0000      -0.548756       -14.9324 
  75   2.0000      -0.547293       -14.8926 
  76   2.0000      -0.546586       -14.8734 
  77   2.0000      -0.543530       -14.7902 
  78   2.0000      -0.543407       -14.7869 
  79   2.0000      -0.543190       -14.7809 
  80   2.0000      -0.542413       -14.7598 
  81   2.0000      -0.537289       -14.6204 
  82   2.0000      -0.537102       -14.6153 
  83   2.0000      -0.536290       -14.5932 
  84   2.0000      -0.532850       -14.4996 
  85   2.0000      -0.528428       -14.3793 
  86   2.0000      -0.525504       -14.2997 
  87   2.0000      -0.523906       -14.2562 
  88   2.0000      -0.522949       -14.2302 
  89   2.0000      -0.520673       -14.1682 
  90   2.0000      -0.512566       -13.9476 
  91   2.0000      -0.506167       -13.7735 
  92   2.0000      -0.505239       -13.7483 
  93   2.0000      -0.499856       -13.6018 
  94   2.0000      -0.499715       -13.5979 
  95   2.0000      -0.499373       -13.5886 
  96   2.0000      -0.496503       -13.5105 
  97   2.0000      -0.492828       -13.4105 
  98   2.0000      -0.490103       -13.3364 
  99   2.0000      -0.487979       -13.2786 
 100   2.0000      -0.485040       -13.1986 
 101   2.0000      -0.472902       -12.8683 
 102   2.0000      -0.470742       -12.8095 
 103   2.0000      -0.470478       -12.8024 
 104   2.0000      -0.461372       -12.5546 
 105   2.0000      -0.459997       -12.5171 
 106   2.0000      -0.459043       -12.4912 
 107   2.0000      -0.458799       -12.4845 
 108   2.0000      -0.457865       -12.4591 
 109   2.0000      -0.456578       -12.4241 
 110   2.0000      -0.453379       -12.3371 
 111   2.0000      -0.453349       -12.3363 
 112   2.0000      -0.450831       -12.2677 
 113   2.0000      -0.450701       -12.2642 
 114   2.0000      -0.450493       -12.2585 
 115   2.0000      -0.450166       -12.2496 
 116   2.0000      -0.447148       -12.1675 
 117   2.0000      -0.445124       -12.1124 
 118   2.0000      -0.443281       -12.0623 
 119   2.0000      -0.440562       -11.9883 
 120   2.0000      -0.438595       -11.9348 
 121   2.0000      -0.437323       -11.9002 
 122   2.0000      -0.437119       -11.8946 
 123   2.0000      -0.432094       -11.7579 
 124   2.0000      -0.431413       -11.7393 
 125   2.0000      -0.430923       -11.7260 
 126   2.0000      -0.430175       -11.7056 
 127   2.0000      -0.428158       -11.6508 
 128   2.0000      -0.426045       -11.5933 
 129   2.0000      -0.423352       -11.5200 
 130   2.0000      -0.421181       -11.4609 
 131   2.0000      -0.417662       -11.3652 
 132   2.0000      -0.413530       -11.2527 
 133   2.0000      -0.410283       -11.1644 
 134   2.0000      -0.394051       -10.7227 
 135   2.0000      -0.392318       -10.6755 
 136   2.0000      -0.380872       -10.3640 
 137   2.0000      -0.351833        -9.5739 
 138   2.0000      -0.350729        -9.5438 
 139   2.0000      -0.257742        -7.0135 
 140   2.0000      -0.237340        -6.4584 
 141   2.0000      -0.236937        -6.4474 
 142   2.0000      -0.223156        -6.0724 
 143   1.2000      -0.276481        -7.5234 
 144   1.2000      -0.275092        -7.4856 
 145   1.2000      -0.272782        -7.4228 
 146   1.2000      -0.278312        -7.5733 
 147   1.2000      -0.274159        -7.4602 
 148   0.0000      -0.059293        -1.6134 
 149   0.0000      -0.023480        -0.6389 
 150   0.0000      -0.004619        -0.1257 
 151   0.0000      -0.000629        -0.0171 
 152   0.0000       0.011118         0.3025 
 153   0.0000       0.015480         0.4212 
 154   0.0000       0.039241         1.0678 
 155   0.0000       0.042647         1.1605 
 156   0.0000       0.044056         1.1988 
 157   0.0000       0.047076         1.2810 
 158   0.0000       0.047554         1.2940 
 159   0.0000       0.051890         1.4120 
 160   0.0000       0.075851         2.0640 
 161   0.0000       0.082833         2.2540 
 162   0.0000       0.090810         2.4711 
 163   0.0000       0.095361         2.5949 
 164   0.0000       0.104365         2.8399 
 165   0.0000       0.108543         2.9536 
 166   0.0000       0.110469         3.0060 
 167   0.0000       0.120205         3.2709 
 168   0.0000       0.126602         3.4450 
 169   0.0000       0.129520         3.5244 
 170   0.0000       0.131164         3.5692 
 171   0.0000       0.142054         3.8655 
 172   0.0000       0.145507         3.9595 
 173   0.0000       0.147399         4.0109 
 174   0.0000       0.149460         4.0670 
 175   0.0000       0.150994         4.1087 
 176   0.0000       0.151208         4.1146 
 177   0.0000       0.153912         4.1882 
 178   0.0000       0.154685         4.2092 
 179   0.0000       0.160007         4.3540 
 180   0.0000       0.177584         4.8323 
 181   0.0000       0.179203         4.8764 
 182   0.0000       0.180034         4.8990 
 183   0.0000       0.188598         5.1320 
 184   0.0000       0.188613         5.1324 
 185   0.0000       0.190546         5.1850 
 186   0.0000       0.192536         5.2392 
 187   0.0000       0.199943         5.4407 
 188   0.0000       0.203518         5.5380 
 189   0.0000       0.204645         5.5687 
 190   0.0000       0.224497         6.1089 
 191   0.0000       0.225326         6.1314 
 192   0.0000       0.228813         6.2263 
 193   0.0000       0.233704         6.3594 
 194   0.0000       0.249634         6.7929 
 195   0.0000       0.252421         6.8687 
 196   0.0000       0.258457         7.0330 
 197   0.0000       0.268773         7.3137 
 198   0.0000       0.279077         7.5941 
 199   0.0000       0.281016         7.6468 
 200   0.0000       0.305816         8.3217 
 201   0.0000       0.305885         8.3235 
 202   0.0000       0.307809         8.3759 
 203   0.0000       0.315092         8.5741 
 204   0.0000       0.318684         8.6718 
 205   0.0000       0.352262         9.5855 
 206   0.0000       0.353958         9.6317 
 207   0.0000       0.361301         9.8315 
 208   0.0000       0.367514        10.0006 
 209   0.0000       0.368819        10.0361 
 210   0.0000       0.376590        10.2475 
 211   0.0000       0.380344        10.3497 
 212   0.0000       0.383654        10.4398 
 213   0.0000       0.388504        10.5717 
 214   0.0000       0.389437        10.5971 
 215   0.0000       0.399781        10.8786 
 216   0.0000       0.402526        10.9533 
 217   0.0000       0.404213        10.9992 
 218   0.0000       0.404865        11.0169 
 219   0.0000       0.411800        11.2056 
 220   0.0000       0.419706        11.4208 
 221   0.0000       0.419869        11.4252 
 222   0.0000       0.435078        11.8391 
 223   0.0000       0.440951        11.9989 
 224   0.0000       0.445678        12.1275 
 225   0.0000       0.449475        12.2308 
 226   0.0000       0.454803        12.3758 
 227   0.0000       0.474684        12.9168 
 228   0.0000       0.483685        13.1617 
 229   0.0000       0.484071        13.1723 
 230   0.0000       0.486413        13.2360 
 231   0.0000       0.499018        13.5790 
 232   0.0000       0.500845        13.6287 
 233   0.0000       0.506160        13.7733 
 234   0.0000       0.512958        13.9583 
 235   0.0000       0.514723        14.0063 
 236   0.0000       0.514830        14.0092 
 237   0.0000       0.517434        14.0801 
[...]
 3 117   30665.4    326.1   0.000000000   0.00000   0.00005   0.00032   0.00002
 3 118   31540.6    317.1   0.000000000   0.00000   0.00018   0.00005   0.00036
 3 119   31545.0    317.0   0.000000000   0.00000   0.00001   0.00000   0.00001
 3 120   31548.4    317.0   0.000000000   0.00000   0.00003   0.00000   0.00001
 3 121   31764.7    314.8   0.000000002   0.00000   0.00075   0.00011   0.00034
 3 122   31766.3    314.8   0.000000000   0.00000   0.00001   0.00001   0.00008
 3 123   31770.4    314.8   0.000000000   0.00000   0.00000   0.00001   0.00001
 3 124   32532.6    307.4   0.000000000   0.00000   0.00005   0.00001   0.00002
 3 125   32535.8    307.4   0.000000000   0.00000   0.00000   0.00001   0.00001
 3 126   32538.6    307.3   0.000000000   0.00000   0.00001   0.00007   0.00001
 3 127   32952.0    303.5   0.000000002   0.00000   0.00071   0.00010   0.00032
 3 128   32952.9    303.5   0.000000000   0.00000   0.00022   0.00003   0.00010
 3 129   32958.0    303.4   0.000000000   0.00000   0.00008   0.00001   0.00016
 3 130   46695.8    214.2   0.000000000   0.00000   0.00001   0.00002   0.00001
 3 131   46716.9    214.1   0.000000000   0.00000   0.00002   0.00002   0.00005
 3 132   46722.5    214.0   0.000000000   0.00000   0.00018   0.00002   0.00008
 3 133   48314.1    207.0   0.000000000   0.00000   0.00001   0.00002   0.00001
 3 134   48316.7    207.0   0.000000000   0.00000   0.00002   0.00000   0.00001
 3 135   48339.0    206.9   0.000000000   0.00000   0.00001   0.00000   0.00002
 3 136   48788.1    205.0   0.000000000   0.00000   0.00000   0.00007   0.00002
 3 137   48792.2    205.0   0.000000000   0.00000   0.00007   0.00001   0.00003
 3 138   48800.7    204.9   0.000000000   0.00000   0.00000   0.00000   0.00000
 3 139   49074.8    203.8   0.000000000   0.00000   0.00001   0.00003   0.00002
 3 140   49086.9    203.7   0.000000000   0.00000   0.00007   0.00001   0.00002
 3 141   49093.4    203.7   0.000000000   0.00000   0.00000   0.00000   0.00001
 3 142   49179.4    203.3   0.000000000   0.00000   0.00017   0.00004   0.00003
 3 143   49184.1    203.3   0.000000001   0.00000   0.00030   0.00004   0.00020
 3 144   49186.0    203.3   0.000000000   0.00000   0.00006   0.00001   0.00003
 3 145   49305.5    202.8   0.000000000   0.00000   0.00008   0.00001   0.00002
 3 146   49319.1    202.8   0.000000000   0.00000   0.00001   0.00005   0.00000
 3 147   49322.1    202.7   0.000000000   0.00000   0.00014   0.00002   0.00009
 3 148   49563.4    201.8   0.000000000   0.00000   0.00000   0.00003   0.00002
 3 149   49575.2    201.7   0.000000000   0.00000   0.00003   0.00000   0.00001
 3 150   49608.9    201.6   0.000000000   0.00000   0.00001   0.00001   0.00001
 3 151   49890.0    200.4   0.000000001   0.00000   0.00003   0.00033   0.00003
 3 152   49915.7    200.3   0.000000000   0.00000   0.00017   0.00002   0.00008
 3 153   49927.1    200.3   0.000000000   0.00000   0.00030   0.00004   0.00013
 3 154   50580.9    197.7   0.000000000   0.00000   0.00001   0.00001   0.00002
 3 155   50751.1    197.0   0.000000000   0.00000   0.00000   0.00003   0.00000
 3 156   50787.7    196.9   0.000000001   0.00000   0.00035   0.00005   0.00015
 3 157   51302.6    194.9   0.000000009   0.00000   0.00128   0.00018   0.00057
 3 158   51361.9    194.7   0.000000000   0.00000   0.00002   0.00003   0.00004
 3 159   51373.4    194.7   0.000000000   0.00000   0.00000   0.00005   0.00002
 4  5    2036.9   4909.4   0.000000000   0.00000   0.00018   0.00047   0.00007
 4  6    2039.5   4903.2   0.000000008   0.00004   0.00092   0.00646   0.00007
 4  7    2126.7   4702.2   0.000000001   0.00000   0.00090   0.00000   0.00190
 4  8    2164.7   4619.6   0.000000000   0.00000   0.00011   0.00001   0.00003
 4  9    2189.5   4567.3   0.000000000   0.00000   0.00007   0.00018   0.00003
 4 10    2622.8   3812.7   0.000000004   0.00002   0.00056   0.00405   0.00000
 4 11    2637.6   3791.3   0.000000000   0.00000   0.00044   0.00028   0.00085
 4 12    2700.9   3702.5   0.000000000   0.00000   0.00001   0.00004   0.00001
 4 13    2770.3   3609.8   0.000000000   0.00000   0.00018   0.00022   0.00007
 4 14    2772.5   3606.8   0.000000036   0.00015   0.00165   0.01217   0.00005
 4 15    4038.0   2476.5   0.000000004   0.00001   0.00127   0.00089   0.00313
 4 16    4044.8   2472.3   0.000000000   0.00000   0.00012   0.00019   0.00006
 4 17    4053.8   2466.8   0.000000000   0.00000   0.00005   0.00005   0.00009
 4 18    4086.3   2447.2   0.000000000   0.00000   0.00027   0.00019   0.00068
 4 19    4088.5   2445.9   0.000000000   0.00000   0.00018   0.00051   0.00028
 4 20    4405.9   2269.7   0.000000000   0.00000   0.00035   0.00016   0.00017
 4 21    4414.6   2265.2   0.000000000   0.00000   0.00015   0.00037   0.00019
 4 22    4425.0   2259.9   0.000000000   0.00000   0.00017   0.00002   0.00005
 4 23    4459.5   2242.4   0.000000004   0.00001   0.00121   0.00054   0.00278
 4 24    4460.2   2242.1   0.000000000   0.00000   0.00038   0.00011   0.00016
 4 25   18439.0    542.3   0.000000000   0.00000   0.00004   0.00001   0.00001
 4 26   18449.8    542.0   0.000000000   0.00000   0.00000   0.00027   0.00008
 4 27   18479.8    541.1   0.000000000   0.00000   0.00001   0.00001   0.00003
 4 28   18794.9    532.1   0.000000001   0.00000   0.00078   0.00011   0.00036
 4 29   18836.6    530.9   0.000000000   0.00000   0.00001   0.00000   0.00000
 4 30   18862.7    530.1   0.000000000   0.00000   0.00002   0.00015   0.00008
 4 31   18879.0    529.7   0.000000000   0.00000   0.00024   0.00003   0.00010
 4 32   18880.5    529.6   0.000000001   0.00000   0.00026   0.00007   0.00052
 4 33   18886.2    529.5   0.000000001   0.00000   0.00051   0.00007   0.00026
 4 34   19880.2    503.0   0.000000000   0.00000   0.00002   0.00022   0.00003
 4 35   19888.2    502.8   0.000000000   0.00000   0.00018   0.00001   0.00039
 4 36   19900.4    502.5   0.000000000   0.00000   0.00000   0.00000   0.00000
 4 37   20524.2    487.2   0.000000000   0.00000   0.00041   0.00005   0.00016
 4 38   20525.4    487.2   0.000000000   0.00000   0.00030   0.00004   0.00012
 4 39   20553.7    486.5   0.000000000   0.00000   0.00026   0.00006   0.00044
 4 40   20706.0    483.0   0.000000000   0.00000   0.00001   0.00012   0.00006
 4 41   20737.7    482.2   0.000000000   0.00000   0.00003   0.00000   0.00001
 4 42   20818.7    480.3   0.000000000   0.00000   0.00004   0.00001   0.00007
 4 43   20954.7    477.2   0.000000000   0.00000   0.00023   0.00004   0.00039
 4 44   20999.8    476.2   0.000000000   0.00000   0.00003   0.00001   0.00001
 4 45   21013.3    475.9   0.000000000   0.00000   0.00004   0.00001   0.00003
 4 46   21041.4    475.3   0.000000001   0.00000   0.00069   0.00011   0.00038
 4 47   21066.9    474.7   0.000000000   0.00000   0.00017   0.00001   0.00035
 4 48   21121.6    473.4   0.000000000   0.00000   0.00032   0.00005   0.00016
 4 49   21401.9    467.2   0.000000000   0.00000   0.00001   0.00005   0.00001
 4 50   21456.8    466.1   0.000000000   0.00000   0.00000   0.00000   0.00000
 4 51   21524.7    464.6   0.000000000   0.00000   0.00001   0.00000   0.00000
 4 52   21808.8    458.5   0.000000000   0.00000   0.00001   0.00000   0.00001
 4 53   21826.0    458.2   0.000000000   0.00000   0.00000   0.00011   0.00003
 4 54   22067.2    453.2   0.000000000   0.00000   0.00019   0.00003   0.00008
 4 55   22290.4    448.6   0.000000000   0.00000   0.00002   0.00002   0.00005
 4 56   22343.5    447.6   0.000000000   0.00000   0.00001   0.00000   0.00000
 4 57   22351.4    447.4   0.000000000   0.00000   0.00007   0.00001   0.00003
 4 58   22386.0    446.7   0.000000000   0.00000   0.00014   0.00002   0.00029
 4 59   22459.2    445.3   0.000000000   0.00000   0.00003   0.00038   0.00006
 4 60   22539.7    443.7   0.000000000   0.00000   0.00010   0.00005   0.00021
 4 61   22559.2    443.3   0.000000000   0.00000   0.00003   0.00001   0.00001
 4 62   22568.4    443.1   0.000000000   0.00000   0.00001   0.00017   0.00003
 4 63   22654.7    441.4   0.000000000   0.00000   0.00001   0.00000   0.00000
 4 64   22676.8    441.0   0.000000000   0.00000   0.00001   0.00018   0.00003
 4 65   22681.4    440.9   0.000000000   0.00000   0.00011   0.00002   0.00005
 4 66   22765.6    439.3   0.000000000   0.00000   0.00002   0.00000   0.00006
 4 67   22875.7    437.1   0.000000000   0.00000   0.00007   0.00001   0.00003
 4 68   22920.3    436.3   0.000000000   0.00000   0.00001   0.00000   0.00000
 4 69   22935.0    436.0   0.000000000   0.00000   0.00000   0.00002   0.00000
 4 70   23332.9    428.6   0.000000000   0.00000   0.00006   0.00002   0.00012
 4 71   23339.0    428.5   0.000000000   0.00000   0.00006   0.00001   0.00003
 4 72   23372.0    427.9   0.000000000   0.00000   0.00002   0.00000   0.00001
 4 73   23825.0    419.7   0.000000000   0.00000   0.00000   0.00004   0.00002
 4 74   23833.6    419.6   0.000000000   0.00000   0.00009   0.00002   0.00019
 4 75   23845.5    419.4   0.000000000   0.00000   0.00010   0.00001   0.00004
 4 76   23875.3    418.8   0.000000000   0.00000   0.00001   0.00008   0.00001
 4 77   23917.0    418.1   0.000000000   0.00000   0.00004   0.00001   0.00002
 4 78   23935.0    417.8   0.000000000   0.00000   0.00039   0.00005   0.00017
 4 79   24459.0    408.8   0.000000000   0.00000   0.00017   0.00003   0.00037
 4 80   24462.8    408.8   0.000000000   0.00000   0.00003   0.00000   0.00006
 4 81   24622.1    406.1   0.000000000   0.00000   0.00001   0.00000   0.00001
 4 82   24701.2    404.8   0.000000001   0.00000   0.00069   0.00010   0.00032
 4 83   24817.3    402.9   0.000000000   0.00000   0.00007   0.00001   0.00015
 4 84   24859.2    402.3   0.000000000   0.00000   0.00002   0.00014   0.00000
 4 85   25043.5    399.3   0.000000000   0.00000   0.00038   0.00005   0.00018
 4 86   25047.0    399.3   0.000000000   0.00000   0.00027   0.00004   0.00013
 4 87   25237.3    396.2   0.000000000   0.00000   0.00013   0.00001   0.00028
 4 88   25264.1    395.8   0.000000000   0.00000   0.00001   0.00000   0.00001
 4 89   25310.8    395.1   0.000000000   0.00000   0.00001   0.00007   0.00003
 4 90   25478.4    392.5   0.000000000   0.00000   0.00013   0.00001   0.00005
 4 91   25487.9    392.3   0.000000000   0.00000   0.00016   0.00002   0.00007
 4 92   25560.1    391.2   0.000000000   0.00000   0.00011   0.00003   0.00026
 4 93   25647.0    389.9   0.000000000   0.00000   0.00003   0.00001   0.00005
 4 94   25730.1    388.7   0.000000000   0.00000   0.00002   0.00002   0.00003
 4 95   25803.4    387.5   0.000000001   0.00000   0.00046   0.00006   0.00021
 4 96   25900.4    386.1   0.000000000   0.00000   0.00000   0.00000   0.00000
 4 97   26065.1    383.7   0.000000000   0.00000   0.00001   0.00001   0.00001
 4 98   26205.9    381.6   0.000000000   0.00000   0.00001   0.00001   0.00000
 4 99   26241.0    381.1   0.000000000   0.00000   0.00032   0.00004   0.00014
 4 100   26778.5    373.4   0.000000000   0.00000   0.00000   0.00008   0.00001
 4 101   26779.5    373.4   0.000000000   0.00000   0.00007   0.00001   0.00016
 4 102   26842.3    372.5   0.000000000   0.00000   0.00004   0.00000   0.00002
 4 103   27378.7    365.2   0.000000000   0.00000   0.00000   0.00000   0.00000
 4 104   27388.3    365.1   0.000000000   0.00000   0.00002   0.00000   0.00006
 4 105   27434.0    364.5   0.000000000   0.00000   0.00000   0.00001   0.00001
 4 106   27795.9    359.8   0.000000000   0.00000   0.00003   0.00000   0.00002
 4 107   27820.9    359.4   0.000000000   0.00000   0.00001   0.00008   0.00001
 4 108   27927.4    358.1   0.000000000   0.00000   0.00003   0.00001   0.00002
 4 109   28042.9    356.6   0.000000000   0.00000   0.00019   0.00002   0.00006
 4 110   28060.2    356.4   0.000000001   0.00000   0.00049   0.00007   0.00024
 4 111   28347.8    352.8   0.000000000   0.00000   0.00000   0.00005   0.00001
 4 112   28446.1    351.5   0.000000000   0.00000   0.00002   0.00001   0.00001
 4 113   28557.8    350.2   0.000000000   0.00000   0.00013   0.00002   0.00019
 4 114   28599.8    349.7   0.000000000   0.00000   0.00017   0.00003   0.00010
 4 115   30654.4    326.2   0.000000000   0.00000   0.00009   0.00003   0.00019
 4 116   30655.6    326.2   0.000000000   0.00000   0.00002   0.00021   0.00002
 4 117   30659.1    326.2   0.000000000   0.00000   0.00001   0.00000   0.00000
 4 118   31534.3    317.1   0.000000000   0.00000   0.00007   0.00001   0.00003
 4 119   31538.7    317.1   0.000000000   0.00000   0.00001   0.00005   0.00000
 4 120   31542.1    317.0   0.000000000   0.00000   0.00012   0.00002   0.00024
 4 121   31758.4    314.9   0.000000000   0.00000   0.00001   0.00001   0.00007
 4 122   31760.0    314.9   0.000000001   0.00000   0.00047   0.00007   0.00021
 4 123   31764.0    314.8   0.000000000   0.00000   0.00001   0.00000   0.00000
 4 124   32526.3    307.4   0.000000000   0.00000   0.00001   0.00006   0.00001
 4 125   32529.5    307.4   0.000000000   0.00000   0.00023   0.00003   0.00010
 4 126   32532.3    307.4   0.000000000   0.00000   0.00001   0.00000   0.00000
 4 127   32945.7    303.5   0.000000000   0.00000   0.00005   0.00002   0.00009
 4 128   32946.6    303.5   0.000000000   0.00000   0.00000   0.00009   0.00003
 4 129   32951.6    303.5   0.000000003   0.00000   0.00085   0.00012   0.00038
 4 130   46689.4    214.2   0.000000000   0.00000   0.00000   0.00000   0.00000
 4 131   46710.6    214.1   0.000000000   0.00000   0.00014   0.00002   0.00006
 4 132   46716.1    214.1   0.000000000   0.00000   0.00003   0.00002   0.00005
 4 133   48307.8    207.0   0.000000000   0.00000   0.00000   0.00000   0.00000
 4 134   48310.4    207.0   0.000000000   0.00000   0.00001   0.00001   0.00001
 4 135   48332.6    206.9   0.000000000   0.00000   0.00004   0.00001   0.00002
 4 136   48781.8    205.0   0.000000000   0.00000   0.00001   0.00000   0.00000
 4 137   48785.9    205.0   0.000000000   0.00000   0.00002   0.00000   0.00004
 4 138   48794.4    204.9   0.000000000   0.00000   0.00000   0.00005   0.00002
 4 139   49068.5    203.8   0.000000000   0.00000   0.00000   0.00001   0.00000
 4 140   49080.6    203.7   0.000000000   0.00000   0.00003   0.00000   0.00001
 4 141   49087.0    203.7   0.000000000   0.00000   0.00000   0.00001   0.00000
 4 142   49173.1    203.4   0.000000001   0.00000   0.00034   0.00005   0.00019
 4 143   49177.8    203.3   0.000000000   0.00000   0.00016   0.00002   0.00002
 4 144   49179.7    203.3   0.000000000   0.00000   0.00001   0.00009   0.00002
 4 145   49299.2    202.8   0.000000000   0.00000   0.00010   0.00002   0.00006
 4 146   49312.8    202.8   0.000000000   0.00000   0.00001   0.00001   0.00001
 4 147   49315.8    202.8   0.000000000   0.00000   0.00009   0.00000   0.00003
 4 148   49557.1    201.8   0.000000000   0.00000   0.00000   0.00000   0.00000
 4 149   49568.8    201.7   0.000000000   0.00000   0.00001   0.00003   0.00001
 4 150   49602.5    201.6   0.000000000   0.00000   0.00024   0.00003   0.00011
 4 151   49883.7    200.5   0.000000000   0.00000   0.00003   0.00000   0.00001
 4 152   49909.4    200.4   0.000000000   0.00000   0.00002   0.00026   0.00003
 4 153   49920.8    200.3   0.000000000   0.00000   0.00004   0.00007   0.00005
 4 154   50574.5    197.7   0.000000000   0.00000   0.00029   0.00004   0.00013
 4 155   50744.8    197.1   0.000000000   0.00000   0.00016   0.00002   0.00007
 4 156   50781.4    196.9   0.000000000   0.00000   0.00001   0.00011   0.00001
 4 157   51296.2    194.9   0.000000000   0.00000   0.00002   0.00002   0.00004
 4 158   51355.5    194.7   0.000000004   0.00000   0.00091   0.00013   0.00040
 4 159   51367.0    194.7   0.000000001   0.00000   0.00049   0.00007   0.00022

------------------------------------------------------------------------------
                           SOC CORRECTED DIPOLE MOMENTS
------------------------------------------------------------------------------
      TX        TY        TZ           |T|
   (Debye)   (Debye)   (Debye)      (Debye)
------------------------------------------------------------------------------
 -37.26350   5.15167  16.82842     41.21048

--------------
CASSCF TIMINGS
--------------

Total time                       ...    10588.7 sec
Sum of individual times          ...    10570.1 sec ( 99.8%)

Calculation of AO operators
   F(Core) operator              ...       81.5 sec (  0.8%)
   G(Act) operator               ...       73.2 sec (  0.7%)
   J(AO) operators               ...        0.0 sec (  0.0%)
Calculation of MO transformed quantities
   J(MO) operators               ...        7.5 sec (  0.1%)
   (pq|rs) integrals             ...        0.0 sec (  0.0%)
   AO->MO one electron integrals ...        0.2 sec (  0.0%)
Configuration interaction steps
   CI-setup phase                ...        0.0 sec (  0.0%)
   CI-solution phase             ...       15.4 sec (  0.1%)
   Generation of densities       ...        8.7 sec (  0.1%)
Orbital improvement steps
   Orbital gradient              ...        0.3 sec (  0.0%)
PT2 
   NEVPT2 time                   ...    10316.5 sec ( 97.4%)
Properties                       ...       38.4 sec (  0.4%)
   SOC integral calculation      ...       28.1 sec (  0.3%)
   SSC RMEs (incl. integrals)    ...        0.0 sec (  0.0%)
   SOC RMEs                      ...        0.2 sec (  0.0%)

Maximum memory used throughout the entire CASSCF-calculation: 1672.7 MB

-------------------------   --------------------
FINAL SINGLE POINT ENERGY     -3156.784784254369
-------------------------   --------------------


                            ***************************************
                            *     ORCA property calculations      *
                            ***************************************

                                    ---------------------
                                    Active property flags
                                    ---------------------
   (+) Dipole Moment


------------------------------------------------------------------------------
                       ORCA ELECTRIC PROPERTIES CALCULATION
------------------------------------------------------------------------------

Dipole Moment Calculation                       ... on
Quadrupole Moment Calculation                   ... off
Polarizability Calculation                      ... off
GBWName                                         ... nevpt2.gbw
Electron density                                ... nevpt2.scfp
The origin for moment calculation is the CENTER OF MASS  = (14.403889, 14.523401 14.069885)

-------------
DIPOLE MOMENT
-------------
                                X             Y             Z
Electronic contribution:     14.62523      -2.02159      -6.60292
Nuclear contribution   :    -14.66029       2.02678       6.62067
                        -----------------------------------------
Total Dipole Moment    :     -0.03506       0.00519       0.01776
                        -----------------------------------------
Magnitude (a.u.)       :      0.03964
Magnitude (Debye)      :      0.10076



--------------------
Rotational spectrum 
--------------------
 
Rotational constants in cm-1:     0.001284     0.000989     0.000950 
Rotational constants in MHz :    38.485350    29.651388    28.493723 

 Dipole components along the rotational axes: 
x,y,z [a.u.] :     0.039602     0.001793    -0.000092 
x,y,z [Debye]:     0.100660     0.004558    -0.000235 

 

Timings for individual modules:

Sum of individual times         ...    10652.882 sec (= 177.548 min)
GTO integral calculation        ...       32.039 sec (=   0.534 min)   0.3 %
SCF iterations                  ...       26.521 sec (=   0.442 min)   0.2 %
CASSCF iterations               ...    10594.322 sec (= 176.572 min)  99.5 %
                             ****ORCA TERMINATED NORMALLY****
TOTAL RUN TIME: 0 days 2 hours 57 minutes 34 seconds 91 msec
