
                                 *****************
                                 * O   R   C   A *
                                 *****************

                                            #,                                       
                                            ###                                      
                                            ####                                     
                                            #####                                    
                                            ######                                   
                                           ########,                                 
                                     ,,################,,,,,                         
                               ,,#################################,,                 
                          ,,##########################################,,             
                       ,#########################################, ''#####,          
                    ,#############################################,,   '####,        
                  ,##################################################,,,,####,       
                ,###########''''           ''''###############################       
              ,#####''   ,,,,##########,,,,          '''####'''          '####       
            ,##' ,,,,###########################,,,                        '##       
           ' ,,###''''                  '''############,,,                           
         ,,##''                                '''############,,,,        ,,,,,,###''
      ,#''                                            '''#######################'''  
     '                                                          ''''####''''         
             ,#######,   #######,   ,#######,      ##                                
            ,#'     '#,  ##    ##  ,#'     '#,    #''#        ######   ,####,        
            ##       ##  ##   ,#'  ##            #'  '#       #        #'  '#        
            ##       ##  #######   ##           ,######,      #####,   #    #        
            '#,     ,#'  ##    ##  '#,     ,#' ,#      #,         ##   #,  ,#        
             '#######'   ##     ##  '#######'  #'      '#     #####' # '####'        



                  #######################################################
                  #                        -***-                        #
                  #          Department of theory and spectroscopy      #
                  #    Directorship and core code : Frank Neese         #
                  #        Max Planck Institute fuer Kohlenforschung    #
                  #                Kaiser Wilhelm Platz 1               #
                  #                 D-45470 Muelheim/Ruhr               #
                  #                      Germany                        #
                  #                                                     #
                  #                  All rights reserved                #
                  #                        -***-                        #
                  #######################################################


                         Program Version 5.0.3 -  RELEASE  -


 With contributions from (in alphabetic order):
   Daniel Aravena         : Magnetic Suceptibility
   Michael Atanasov       : Ab Initio Ligand Field Theory (pilot matlab implementation)
   Alexander A. Auer      : GIAO ZORA, VPT2 properties, NMR spectrum
   Ute Becker             : Parallelization
   Giovanni Bistoni       : ED, misc. LED, open-shell LED, HFLD
   Martin Brehm           : Molecular dynamics
   Dmytro Bykov           : SCF Hessian
   Vijay G. Chilkuri      : MRCI spin determinant printing, contributions to CSF-ICE
   Dipayan Datta          : RHF DLPNO-CCSD density
   Achintya Kumar Dutta   : EOM-CC, STEOM-CC
   Dmitry Ganyushin       : Spin-Orbit,Spin-Spin,Magnetic field MRCI
   Miquel Garcia          : C-PCM and meta-GGA Hessian, CC/C-PCM, Gaussian charge scheme
   Yang Guo               : DLPNO-NEVPT2, F12-NEVPT2, CIM, IAO-localization
   Andreas Hansen         : Spin unrestricted coupled pair/coupled cluster methods
   Benjamin Helmich-Paris : MC-RPA, TRAH-SCF, COSX integrals
   Lee Huntington         : MR-EOM, pCC
   Robert Izsak           : Overlap fitted RIJCOSX, COSX-SCS-MP3, EOM
   Marcus Kettner         : VPT2
   Christian Kollmar      : KDIIS, OOCD, Brueckner-CCSD(T), CCSD density, CASPT2, CASPT2-K
   Simone Kossmann        : Meta GGA functionals, TD-DFT gradient, OOMP2, MP2 Hessian
   Martin Krupicka        : Initial AUTO-CI
   Lucas Lang             : DCDCAS
   Marvin Lechner         : AUTO-CI (C++ implementation), FIC-MRCC
   Dagmar Lenk            : GEPOL surface, SMD
   Dimitrios Liakos       : Extrapolation schemes; Compound Job, initial MDCI parallelization
   Dimitrios Manganas     : Further ROCIS development; embedding schemes
   Dimitrios Pantazis     : SARC Basis sets
   Anastasios Papadopoulos: AUTO-CI, single reference methods and gradients
   Taras Petrenko         : DFT Hessian,TD-DFT gradient, ASA, ECA, R-Raman, ABS, FL, XAS/XES, NRVS
   Peter Pinski           : DLPNO-MP2, DLPNO-MP2 Gradient
   Christoph Reimann      : Effective Core Potentials
   Marius Retegan         : Local ZFS, SOC
   Christoph Riplinger    : Optimizer, TS searches, QM/MM, DLPNO-CCSD(T), (RO)-DLPNO pert. Triples
   Tobias Risthaus        : Range-separated hybrids, TD-DFT gradient, RPA, STAB
   Michael Roemelt        : Original ROCIS implementation
   Masaaki Saitow         : Open-shell DLPNO-CCSD energy and density
   Barbara Sandhoefer     : DKH picture change effects
   Avijit Sen             : IP-ROCIS
   Kantharuban Sivalingam : CASSCF convergence, NEVPT2, FIC-MRCI
   Bernardo de Souza      : ESD, SOC TD-DFT
   Georgi Stoychev        : AutoAux, RI-MP2 NMR, DLPNO-MP2 response
   Willem Van den Heuvel  : Paramagnetic NMR
   Boris Wezisla          : Elementary symmetry handling
   Frank Wennmohs         : Technical directorship


 We gratefully acknowledge several colleagues who have allowed us to
 interface, adapt or use parts of their codes:
   Stefan Grimme, W. Hujo, H. Kruse, P. Pracht,  : VdW corrections, initial TS optimization,
                  C. Bannwarth, S. Ehlert          DFT functionals, gCP, sTDA/sTD-DF
   Ed Valeev, F. Pavosevic, A. Kumar             : LibInt (2-el integral package), F12 methods
   Garnet Chan, S. Sharma, J. Yang, R. Olivares  : DMRG
   Ulf Ekstrom                                   : XCFun DFT Library
   Mihaly Kallay                                 : mrcc  (arbitrary order and MRCC methods)
   Jiri Pittner, Ondrej Demel                    : Mk-CCSD
   Frank Weinhold                                : gennbo (NPA and NBO analysis)
   Christopher J. Cramer and Donald G. Truhlar   : smd solvation model
   Lars Goerigk                                  : TD-DFT with DH, B97 family of functionals
   V. Asgeirsson, H. Jonsson                     : NEB implementation
   FAccTs GmbH                                   : IRC, NEB, NEB-TS, DLPNO-Multilevel, CI-OPT
                                                   MM, QMMM, 2- and 3-layer-ONIOM, Crystal-QMMM,
                                                   LR-CPCM, SF, NACMEs, symmetry and pop. for TD-DFT,
                                                   nearIR, NL-DFT gradient (VV10), updates on ESD,
                                                   ML-optimized integration grids
   S Lehtola, MJT Oliveira, MAL Marques          : LibXC Library
   Liviu Ungur et al                             : ANISO software


 Your calculation uses the libint2 library for the computation of 2-el integrals
 For citations please refer to: http://libint.valeyev.net

 Your ORCA version has been built with support for libXC version: 5.1.0
 For citations please refer to: https://tddft.org/programs/libxc/

 This ORCA versions uses:
   CBLAS   interface :  Fast vector & matrix operations
   LAPACKE interface :  Fast linear algebra routines
   SCALAPACK package :  Parallel linear algebra routines
   Shared memory     :  Shared parallel matrices
   BLAS/LAPACK       :  OpenBLAS 0.3.15  USE64BITINT DYNAMIC_ARCH NO_AFFINITY Haswell SINGLE_THREADED
        Core in use  :  Haswell
   Copyright (c) 2011-2014, The OpenBLAS Project




***************************************
The coordinates will be read from file: 4.xyz
***************************************


================================================================================

cite the ECPs for Au [Def2-ECP] as follows:
Ce-Yb(ecp-28): M. Dolg, H. Stoll, H.Preuss, J. Chem. Phys., 1989, 90, 1730-1734.
Y-Cd(ecp-28), Hf-Hg(ecp-46): D. Andrae,U. Haeussermann, M. Dolg, H. Stoll, H. Preuss, Theor. Chim. Acta, 1990, 77, 123-141.
In-Sb(ecp-28), Tl-Bi(ecp-46): B. Metz, H. Stoll, M. Dolg, J. Chem. Phys., 2000, 113, 2563-2569.
Te-Xe(ecp-28), Po-Rn(ecp-46): K. A. Peterson, D. Figgen, E. Goll, H. Stoll, M. Dolg, J. Chem. Phys., 2003, 119, 11113-11123.
Rb(ecp-28), Cs(ecp-46): T. Leininger, A. Nicklass, W. Kuechle, H. Stoll, M. Dolg, A. Bergner, Chem. Phys. Lett., 1996, 255, 274-280.
Sr(ecp-28), Ba(ecp-46): M. Kaupp, P. V. Schleyer, H. Stoll and H. Preuss, J. Chem. Phys., 1991, 94, 1360-1366.
La(ecp-46): M. Dolg, H. Stoll, A. Savin, H. Preuss, Theor. Chim. Acta, 1989, 75, 173-194.
Lu(ecp-28): X. Cao, M. Dolg, J. Chem. Phys., 2001, 115, 7348-7355.

ECP parameters for Au [Def2-ECP] have been obtained from:
TURBOMOLE (7.0.2)

----- Orbital basis set information -----
Your calculation utilizes the basis: def2-TZVP
   F. Weigend and R. Ahlrichs, Phys. Chem. Chem. Phys. 7, 3297 (2005).

----- AuxJ basis set information -----
Your calculation utilizes the auxiliary basis: def2/J
   F. Weigend, Phys. Chem. Chem. Phys. 8, 1057 (2006).

================================================================================
                                        WARNINGS
                       Please study these warnings very carefully!
================================================================================


WARNING: your system is open-shell and RHF/RKS was chosen
  ===> : WILL SWITCH to UHF/UKS


WARNING: Geometry Optimization
  ===> : Switching off AutoStart
         For restart on a previous wavefunction, please use MOREAD

INFO   : the flag for use of the SHARK integral package has been found!

================================================================================
                                       INPUT FILE
================================================================================
NAME = pbe.inp
|  1> %pal nprocs 1 end 
|  2> 
|  3> !PBE def2-TZVP OPT UNO
|  4> !SLOWCONV KDIIS 
|  5> 
|  6> %geom maxiter 300 end
|  7> 
|  8> *xyzfile 0 5 4.xyz                           ****END OF INPUT****
================================================================================

                       *****************************
                       * Geometry Optimization Run *
                       *****************************

Geometry optimization settings:
Update method            Update   .... BFGS
Choice of coordinates    CoordSys .... Z-matrix Internals
Initial Hessian          InHess   .... Almoef's Model

Convergence Tolerances:
Energy Change            TolE     ....  5.0000e-06 Eh
Max. Gradient            TolMAXG  ....  3.0000e-04 Eh/bohr
RMS Gradient             TolRMSG  ....  1.0000e-04 Eh/bohr
Max. Displacement        TolMAXD  ....  4.0000e-03 bohr
RMS Displacement         TolRMSD  ....  2.0000e-03 bohr
Strict Convergence                ....  False
------------------------------------------------------------------------------
                        ORCA OPTIMIZATION COORDINATE SETUP
------------------------------------------------------------------------------

The optimization will be done in new redundant internal coordinates
Making redundant internal coordinates   ...  (new redundants) done
Evaluating the initial hessian          ...  (Almloef) done
Evaluating the coordinates              ...  done
Calculating the B-matrix                .... done
Calculating the G-matrix                .... done
Diagonalizing the G-matrix              .... done
The first mode is                       ....  136
The number of degrees of freedom        ....   33

    -----------------------------------------------------------------
                    Redundant Internal Coordinates


    -----------------------------------------------------------------
         Definition                    Initial Value    Approx d2E/dq
    -----------------------------------------------------------------
      1. B(Au  6,Au  4)                  2.7899         0.007072   
      2. B(Au  8,Au  6)                  2.7734         0.007513   
      3. B(Au 10,Au  6)                  2.8662         0.005343   
      4. B(Au 11,Au  1)                  2.7655         0.007732   
      5. B(Au 11,Au 10)                  2.8064         0.006654   
      6. B(Au 11,Au  6)                  2.8364         0.005960   
      7. B(Au 11,Au  4)                  2.9256         0.004295   
      8. B(Cr 12,Au  7)                  2.6283         0.093081   
      9. B(Cr 12,Au  5)                  2.6250         0.094224   
     10. B(Cr 12,Au  2)                  2.6628         0.081995   
     11. B(Cr 12,Au 10)                  2.8224         0.045613   
     12. B(Cr 12,Au  4)                  2.7894         0.051497   
     13. B(Cr 12,Au  9)                  2.5917         0.106451   
     14. B(Cr 12,Au  8)                  2.7959         0.050282   
     15. B(Cr 12,Au  3)                  2.5280         0.134529   
     16. B(Cr 12,Au  1)                  2.8452         0.041960   
     17. B(Cr 12,Au  0)                  2.6659         0.081076   
     18. A(Au 11,Au  1,Cr 12)          103.1234         0.174576   
     19. A(Au  6,Au  4,Au 11)           59.4508         0.133640   
     20. A(Au 11,Au  4,Cr 12)          100.5063         0.167466   
     21. A(Au  6,Au  4,Cr 12)          102.8320         0.176843   
     22. A(Au  8,Au  6,Au 10)           64.1686         0.136549   
     23. A(Au  4,Au  6,Au 10)           70.2685         0.135902   
     24. A(Au  8,Au  6,Au 11)          110.3573         0.137739   
     25. A(Au 10,Au  6,Au 11)           58.9585         0.134120   
     26. A(Au  4,Au  6,Au 11)           62.6570         0.137076   
     27. A(Au  4,Au  6,Au  8)           62.9006         0.139663   
     28. A(Au  6,Au  8,Cr 12)          103.0888         0.177575   
     29. A(Au 11,Au 10,Cr 12)          102.6679         0.173295   
     30. A(Au  6,Au 10,Au 11)           59.9923         0.135260   
     31. A(Au  6,Au 10,Cr 12)          100.1087         0.169210   
     32. A(Au  1,Au 11,Au 10)           64.2382         0.139297   
     33. A(Au  1,Au 11,Au  4)           63.4875         0.134551   
     34. A(Au  4,Au 11,Au  6)           57.8922         0.131944   
     35. A(Au  6,Au 11,Au 10)           61.0492         0.136418   
     36. A(Au  1,Au 11,Au  6)          109.4784         0.138057   
     37. A(Au  4,Au 11,Au 10)           69.1810         0.133029   
     38. A(Au  4,Cr 12,Au  5)          121.7766         0.266034   
     39. A(Au  3,Cr 12,Au  5)          130.3677         0.309013   
     40. A(Au  0,Cr 12,Au  4)          109.2046         0.260113   
     41. A(Au  5,Cr 12,Au  8)          119.5622         0.265081   
     42. A(Au  4,Cr 12,Au  8)           62.6244         0.242576   
     43. A(Au  2,Cr 12,Au  5)          104.2346         0.285688   
     44. A(Au  7,Cr 12,Au  8)           60.2998         0.264595   
     45. A(Au  0,Cr 12,Au  9)          120.5725         0.290680   
     46. A(Au  1,Cr 12,Au  9)          116.5531         0.262747   
     47. A(Au  2,Cr 12,Au  9)          105.2297         0.291196   
     48. A(Au  3,Cr 12,Au  8)          104.8579         0.279860   
     49. A(Au  2,Cr 12,Au  8)          120.6075         0.259626   
     50. A(Au  1,Cr 12,Au  5)           64.0532         0.258015   
     51. A(Au  2,Cr 12,Au  3)           66.6282         0.302198   
     52. A(Au  1,Cr 12,Au  2)          120.8334         0.252779   
     53. A(Au  1,Cr 12,Au  8)          113.8263         0.235620   
     54. A(Au  0,Cr 12,Au  8)          171.8287         0.259192   
     55. A(Au  0,Cr 12,Au  5)           63.8145         0.285187   
     56. A(Au  7,Cr 12,Au 10)          115.1220         0.260764   
     57. A(Au  5,Cr 12,Au 10)           63.1070         0.261239   
     58. A(Au  5,Cr 12,Au  7)          122.1894         0.291416   
     59. A(Au  4,Cr 12,Au 10)           70.9167         0.239226   
     60. A(Au  8,Cr 12,Au 10)           64.4628         0.238417   
     61. A(Au  9,Cr 12,Au 10)           62.3893         0.266062   
     62. A(Au  3,Cr 12,Au 10)          127.6222         0.275696   
     63. A(Au  4,Cr 12,Au  7)          108.3663         0.265546   
     64. A(Au  3,Cr 12,Au  4)           60.1821         0.280894   
     65. A(Au  1,Cr 12,Au  3)           79.1212         0.272201   
     66. A(Au  2,Cr 12,Au 10)          164.7553         0.255904   
     67. A(Au  1,Cr 12,Au 10)           63.0317         0.232421   
     68. A(Au  3,Cr 12,Au  7)           97.7383         0.308406   
     69. A(Au  0,Cr 12,Au 10)          113.8989         0.255479   
     70. A(Au  8,Cr 12,Au  9)           66.4078         0.270011   
     71. A(Au  2,Cr 12,Au  7)           63.0086         0.285146   
     72. A(Au  2,Cr 12,Au  4)          124.3243         0.260550   
     73. A(Au  7,Cr 12,Au  9)           66.2412         0.297083   
     74. A(Au  5,Cr 12,Au  9)           64.1230         0.297659   
     75. A(Au  1,Cr 12,Au  7)          172.6204         0.257548   
     76. A(Au  4,Cr 12,Au  9)          121.4556         0.270991   
     77. A(Au  3,Cr 12,Au  9)          163.8782         0.315173   
     78. A(Au  0,Cr 12,Au  7)          125.3111         0.284646   
     79. A(Au  1,Cr 12,Au  4)           64.2663         0.236414   
     80. A(Au  0,Cr 12,Au  3)           69.4195         0.301654   
     81. A(Au  0,Cr 12,Au  2)           63.2345         0.279110   
     82. A(Au  0,Cr 12,Au  1)           60.0167         0.252362   
     83. D(Au  8,Au  6,Au  4,Cr 12)    -40.0464         0.001502   
     84. D(Au 10,Au  6,Au  4,Au 11)    -64.4522         0.001502   
     85. D(Au 10,Au  6,Au  4,Cr 12)     30.2927         0.001502   
     86. D(Au 11,Au  6,Au  4,Cr 12)     94.7450         0.001502   
     87. D(Au  8,Au  6,Au  4,Au 11)   -134.7914         0.001502   
     88. D(Cr 12,Au  8,Au  6,Au 11)     -2.2671         0.001502   
     89. D(Cr 12,Au  8,Au  6,Au 10)    -40.0168         0.001502   
     90. D(Cr 12,Au  8,Au  6,Au  4)     39.9841         0.001502   
     91. D(Au 11,Au 10,Au  6,Au  4)     69.2886         0.001501   
     92. D(Cr 12,Au 10,Au  6,Au 11)    -98.8747         0.001501   
     93. D(Cr 12,Au 10,Au  6,Au  8)     39.0652         0.001501   
     94. D(Cr 12,Au 10,Au  6,Au  4)    -29.5861         0.001501   
     95. D(Au 11,Au 10,Au  6,Au  8)    137.9398         0.001501   
     96. D(Au 10,Au 11,Au  1,Cr 12)     38.8800         0.001502   
     97. D(Au 10,Au 11,Au  6,Au  8)    -40.0266         0.001501   
     98. D(Au  4,Au 11,Au  1,Cr 12)    -39.5670         0.001502   
     99. D(Au  4,Au 11,Au  6,Au 10)     82.3918         0.001501   
    100. D(Au  1,Au 11,Au  6,Au 10)     43.7376         0.001501   
    101. D(Au 10,Au 11,Au  4,Cr 12)    -30.6785         0.001501   
    102. D(Au  1,Au 11,Au  6,Au  8)      3.7110         0.001501   
    103. D(Au  1,Au 11,Au  6,Au  4)    -38.6542         0.001501   
    104. D(Au  4,Au 11,Au  6,Au  8)     42.3653         0.001501   
    105. D(Au  1,Au 11,Au 10,Cr 12)    -39.1680         0.001501   
    106. D(Au 10,Au 11,Au  4,Au  6)     68.1126         0.001501   
    107. D(Au  1,Au 11,Au 10,Au  6)   -133.6375         0.001501   
    108. D(Au 10,Au 11,Au  6,Au  4)    -82.3918         0.001501   
    109. D(Au  6,Au 11,Au  4,Cr 12)    -98.7911         0.001501   
    110. D(Au  1,Au 11,Au  4,Au  6)    138.8467         0.001501   
    111. D(Au  6,Au 11,Au 10,Cr 12)     94.4696         0.001501   
    112. D(Au  6,Au 11,Au  1,Cr 12)     -3.3203         0.001502   
    113. D(Au  4,Au 11,Au 10,Au  6)    -63.9278         0.001501   
    114. D(Au  4,Au 11,Au 10,Cr 12)     30.5418         0.001501   
    115. D(Au  1,Au 11,Au  4,Cr 12)     40.0557         0.001501   
    116. D(Au  1,Cr 12,Au  8,Au  6)      0.1448         0.001512   
    117. D(Au  0,Cr 12,Au  8,Au  6)    -39.6612         0.001512   
    118. D(Au 10,Cr 12,Au  4,Au  6)    -30.6769         0.001514   
    119. D(Au  9,Cr 12,Au  4,Au  6)      7.4608         0.001514   
    120. D(Au  9,Cr 12,Au  4,Au 11)     68.2552         0.001514   
    121. D(Au  8,Cr 12,Au  4,Au  6)     39.7777         0.001514   
    122. D(Au  7,Cr 12,Au  4,Au  6)     80.3305         0.001514   
    123. D(Au  7,Cr 12,Au  4,Au 11)    141.1250         0.001514   
    124. D(Au  5,Cr 12,Au  4,Au  6)    -69.6603         0.001514   
    125. D(Au  5,Cr 12,Au  4,Au 11)     -8.8658         0.001514   
    126. D(Au  3,Cr 12,Au  4,Au  6)    168.7976         0.001514   
    127. D(Au  3,Cr 12,Au  4,Au 11)   -130.4079         0.001514   
    128. D(Au  2,Cr 12,Au  4,Au  6)    149.6981         0.001514   
    129. D(Au  2,Cr 12,Au  4,Au 11)   -149.5074         0.001514   
    130. D(Au  1,Cr 12,Au  4,Au  6)    -99.2106         0.001514   
    131. D(Au  1,Cr 12,Au  4,Au 11)    -38.4161         0.001514   
    132. D(Au  0,Cr 12,Au  4,Au  6)   -140.1546         0.001514   
    133. D(Au  0,Cr 12,Au  4,Au 11)    -79.3601         0.001514   
    134. D(Au  8,Cr 12,Au 10,Au 11)    -99.8535         0.001511   
    135. D(Au 10,Cr 12,Au  1,Au 11)    -39.1002         0.001509   
    136. D(Au  8,Cr 12,Au  4,Au 11)    100.5722         0.001514   
    137. D(Au  9,Cr 12,Au  1,Au 11)    -72.4210         0.001509   
    138. D(Au  5,Cr 12,Au 10,Au  6)    172.6170         0.001511   
    139. D(Au  5,Cr 12,Au 10,Au 11)    111.3419         0.001511   
    140. D(Au 10,Cr 12,Au  4,Au 11)     30.1176         0.001514   
    141. D(Au  8,Cr 12,Au  1,Au 11)      2.0090         0.001509   
    142. D(Au  7,Cr 12,Au  1,Au 11)     38.1857         0.001509   
    143. D(Au  3,Cr 12,Au 10,Au 11)    -10.3940         0.001511   
    144. D(Au  2,Cr 12,Au  8,Au  6)   -155.6712         0.001512   
    145. D(Au  5,Cr 12,Au  1,Au 11)   -110.6296         0.001509   
    146. D(Au  4,Cr 12,Au  1,Au 11)     41.5786         0.001509   
    147. D(Au  1,Cr 12,Au 10,Au  6)     99.6178         0.001511   
    148. D(Au  1,Cr 12,Au 10,Au 11)     38.3427         0.001511   
    149. D(Au  3,Cr 12,Au  1,Au 11)    103.5794         0.001509   
    150. D(Au  0,Cr 12,Au 10,Au  6)    132.6067         0.001511   
    151. D(Au  0,Cr 12,Au 10,Au 11)     71.3316         0.001511   
    152. D(Au  2,Cr 12,Au  1,Au 11)    157.7646         0.001509   
    153. D(Au 10,Cr 12,Au  8,Au  6)     40.6446         0.001512   
    154. D(Au  9,Cr 12,Au  8,Au  6)    110.0452         0.001512   
    155. D(Au  2,Cr 12,Au 10,Au 11)    147.0087         0.001511   
    156. D(Au  2,Cr 12,Au 10,Au  6)   -151.7162         0.001511   
    157. D(Au  0,Cr 12,Au  1,Au 11)    175.9789         0.001509   
    158. D(Au  3,Cr 12,Au 10,Au  6)     50.8811         0.001511   
    159. D(Au  4,Cr 12,Au 10,Au 11)    -31.8133         0.001511   
    160. D(Au  4,Cr 12,Au 10,Au  6)     29.4619         0.001511   
    161. D(Au  7,Cr 12,Au  8,Au  6)   -174.8478         0.001512   
    162. D(Au  5,Cr 12,Au  8,Au  6)     72.7230         0.001512   
    163. D(Au  7,Cr 12,Au 10,Au 11)   -133.7030         0.001511   
    164. D(Au  7,Cr 12,Au 10,Au  6)    -72.4279         0.001511   
    165. D(Au  4,Cr 12,Au  8,Au  6)    -40.1112         0.001512   
    166. D(Au  8,Cr 12,Au 10,Au  6)    -38.5784         0.001511   
    167. D(Au  9,Cr 12,Au 10,Au 11)   -175.3360         0.001511   
    168. D(Au  9,Cr 12,Au 10,Au  6)   -114.0609         0.001511   
    169. D(Au  3,Cr 12,Au  8,Au  6)    -84.3290         0.001512   
    -----------------------------------------------------------------

Number of atoms                         .... 13
Number of degrees of freedom            .... 169

         *************************************************************
         *                GEOMETRY OPTIMIZATION CYCLE   1            *
         *************************************************************
---------------------------------
CARTESIAN COORDINATES (ANGSTROEM)
---------------------------------
  Au     6.354819    7.926721   10.866264
  Au     6.426355   10.232949    9.350678
  Au     8.050711    5.807662   10.205019
  Au     9.202652    8.417855   10.227304
  Au     9.123992    9.993591    8.066346
  Au     4.891062    7.922019    8.483269
  Au     8.671438   10.607495    5.382766
  Au     8.773889    5.644989    7.541153
  Au     8.891585    7.923352    6.045017
  Au     6.292824    6.591599    6.499796
  Au     6.327099    9.402571    6.508446
  Au     7.107503   11.975191    7.313797
  Cr     7.510614    7.754227    8.470180

----------------------------
CARTESIAN COORDINATES (A.U.)
----------------------------
  NO LB      ZA    FRAG     MASS         X           Y           Z
   0 Au   19.0000*   0   196.966   12.008867   14.979332   20.534264
   1 Au   19.0000*   0   196.966   12.144050   19.337471   17.670221
   2 Au   19.0000*   0   196.966   15.213640   10.974890   19.284690
   3 Au   19.0000*   0   196.966   17.390491   15.907440   19.326804
   4 Au   19.0000*   0   196.966   17.241845   18.885150   15.243185
   5 Au   19.0000*   0   196.966    9.242767   14.970446   16.031056
   6 Au   19.0000*   0   196.966   16.386644   20.045261   10.171953
   7 Au   19.0000*   0   196.966   16.580247   10.667484   14.250713
   8 Au   19.0000*   0   196.966   16.802661   14.972965   11.423427
   9 Au   19.0000*   0   196.966   11.891713   12.456318   12.282834
  10 Au   19.0000*   0   196.966   11.956485   17.768284   12.299181
  11 Au   19.0000*   0   196.966   13.431235   22.629831   13.821073
  12 Cr   24.0000    0    52.000   14.193003   14.653366   16.006320
* core charge reduced due to ECP

--------------------------------
INTERNAL COORDINATES (ANGSTROEM)
--------------------------------
 Au     0   0   0     0.000000000000     0.00000000     0.00000000
 Au     1   0   0     2.760580519815     0.00000000     0.00000000
 Au     1   2   0     2.793512206837   119.21112402     0.00000000
 Au     3   1   2     2.853168444804    63.21073736    45.04736768
 Au     4   3   1     2.675607297301   121.37221376   272.91590236
 Au     1   2   3     2.796653724565    63.07414295   277.84530237
 Au     5   4   3     2.789854074103   155.67829445   349.79822511
 Au     3   1   2     2.765073155847   115.55944020   332.28973299
 Au     8   3   1     2.728224611762   119.37161277    28.77458672
 Au     6   1   2     2.769317349334   110.25322267   100.45360972
 Au    10   6   1     2.811193561933    61.54890447   259.22336237
 Au     2   1   3     2.765548020143   159.55926170     5.76742124
 Cr     4   3   1     2.528019073358    58.94826214   291.08764140

---------------------------
INTERNAL COORDINATES (A.U.)
---------------------------
 Au     0   0   0     0.000000000000     0.00000000     0.00000000
 Au     1   0   0     5.216741153088     0.00000000     0.00000000
 Au     1   2   0     5.278973022688   119.21112402     0.00000000
 Au     3   1   2     5.391706974626    63.21073736    45.04736768
 Au     4   3   1     5.056165033821   121.37221376   272.91590236
 Au     1   2   3     5.284909630839    63.07414295   277.84530237
 Au     5   4   3     5.272060153659   155.67829445   349.79822511
 Au     3   1   2     5.225231004807   115.55944020   332.28973299
 Au     8   3   1     5.155597348055   119.37161277    28.77458672
 Au     6   1   2     5.233251368158   110.25322267   100.45360972
 Au    10   6   1     5.312385941495    61.54890447   259.22336237
 Au     2   1   3     5.226128368279   159.55926170     5.76742124
 Cr     4   3   1     4.777263709977    58.94826214   291.08764140

---------------------
BASIS SET INFORMATION
---------------------
There are 2 groups of distinct atoms

 Group   1 Type Au  : 8s7p6d1f contracted to 6s4p3d1f pattern {311111/4111/411/1}
 Group   2 Type Cr  : 17s11p7d1f contracted to 6s4p4d1f pattern {842111/6311/4111/1}

Atom   0Au   basis set group =>   1
Atom   1Au   basis set group =>   1
Atom   2Au   basis set group =>   1
Atom   3Au   basis set group =>   1
Atom   4Au   basis set group =>   1
Atom   5Au   basis set group =>   1
Atom   6Au   basis set group =>   1
Atom   7Au   basis set group =>   1
Atom   8Au   basis set group =>   1
Atom   9Au   basis set group =>   1
Atom  10Au   basis set group =>   1
Atom  11Au   basis set group =>   1
Atom  12Cr   basis set group =>   2
---------------------------------
AUXILIARY/J BASIS SET INFORMATION
---------------------------------
There are 2 groups of distinct atoms

 Group   1 Type Au  : 11s5p5d3f3g contracted to 8s5p5d2f3g pattern {41111111/11111/11111/21/111}
 Group   2 Type Cr  : 19s5p5d3f3g contracted to 8s5p5d2f3g pattern {121111111/11111/11111/21/111}

Atom   0Au   basis set group =>   1
Atom   1Au   basis set group =>   1
Atom   2Au   basis set group =>   1
Atom   3Au   basis set group =>   1
Atom   4Au   basis set group =>   1
Atom   5Au   basis set group =>   1
Atom   6Au   basis set group =>   1
Atom   7Au   basis set group =>   1
Atom   8Au   basis set group =>   1
Atom   9Au   basis set group =>   1
Atom  10Au   basis set group =>   1
Atom  11Au   basis set group =>   1
Atom  12Cr   basis set group =>   2
-------------------------
ECP PARAMETER INFORMATION
-------------------------

 Group 1, Type Au ECP Def2-ECP (replacing 60 core electrons, lmax=3)

Atom   0Au   ECP group =>   1
Atom   1Au   ECP group =>   1
Atom   2Au   ECP group =>   1
Atom   3Au   ECP group =>   1
Atom   4Au   ECP group =>   1
Atom   5Au   ECP group =>   1
Atom   6Au   ECP group =>   1
Atom   7Au   ECP group =>   1
Atom   8Au   ECP group =>   1
Atom   9Au   ECP group =>   1
Atom  10Au   ECP group =>   1
Atom  11Au   ECP group =>   1

------------------------------------------------------------------------------
                           ORCA GTO INTEGRAL CALCULATION
                           -- RI-GTO INTEGRALS CHOSEN --
------------------------------------------------------------------------------
------------------------------------------------------------------------------
                   ___                                                        
                  /   \      - P O W E R E D   B Y -                         
                 /     \                                                     
                 |  |  |   _    _      __       _____    __    __             
                 |  |  |  | |  | |    /  \     |  _  \  |  |  /  |          
                  \  \/   | |  | |   /    \    | | | |  |  | /  /          
                 / \  \   | |__| |  /  /\  \   | |_| |  |  |/  /          
                |  |  |   |  __  | /  /__\  \  |    /   |      \           
                |  |  |   | |  | | |   __   |  |    \   |  |\   \          
                \     /   | |  | | |  |  |  |  | |\  \  |  | \   \       
                 \___/    |_|  |_| |__|  |__|  |_| \__\ |__|  \__/        
                                                                              
                      - O R C A' S   B I G   F R I E N D -                    
                                      &                                       
                       - I N T E G R A L  F E E D E R -                       
                                                                              
 v1 FN, 2020, v2 2021                                                         
------------------------------------------------------------------------------


Reading SHARK input file pbe.SHARKINP.tmp ... ok
----------------------
SHARK INTEGRAL PACKAGE
----------------------

Number of atoms                             ...     13
Number of basis functions                   ...    525
Number of shells                            ...    183
Maximum angular momentum                    ...      3
Integral batch strategy                     ... SHARK/LIBINT Hybrid
RI-J (if used) integral strategy            ... SPLIT-RIJ (Revised 2003 algorithm where possible)
Printlevel                                  ...      1
Contraction scheme used                     ... SEGMENTED contraction
Coulomb Range Separation                    ... NOT USED
Exchange Range Separation                   ... NOT USED
Finite Nucleus Model                        ... NOT USED
Auxiliary Coulomb fitting basis             ... AVAILABLE
   # of basis functions in Aux-J            ...   1157
   # of shells in Aux-J                     ...    299
   Maximum angular momentum in Aux-J        ...      4
Auxiliary J/K fitting basis                 ... NOT available
Auxiliary Correlation fitting basis         ... NOT available
Auxiliary 'external' fitting basis          ... NOT available
Integral threshold                          ...     2.500000e-11
Primitive cut-off                           ...     2.500000e-12
Primitive pair pre-selection threshold      ...     2.500000e-12

Calculating pre-screening integrals         ... done (  0.3 sec) Dimension = 183
Organizing shell pair data                  ... done (  0.2 sec)
Shell pair information
Total number of shell pairs                 ...     16836
Shell pairs after pre-screening             ...     13870
Total number of primitive shell pairs       ...     45389
Primitive shell pairs kept                  ...     27462
          la=0 lb=0:   2160 shell pairs
          la=1 lb=0:   3175 shell pairs
          la=1 lb=1:   1186 shell pairs
          la=2 lb=0:   2755 shell pairs
          la=2 lb=1:   1924 shell pairs
          la=2 lb=2:    791 shell pairs
          la=3 lb=0:    750 shell pairs
          la=3 lb=1:    566 shell pairs
          la=3 lb=2:    484 shell pairs
          la=3 lb=3:     79 shell pairs

Calculating one electron integrals          ... done (  0.1 sec)
Calculating ECP integrals                   ... done (  7.1 sec)
Calculating RI/J V-Matrix + Cholesky decomp.... done (  0.0 sec)
Calculating Nuclear repulsion               ... done (  0.0 sec) ENN=   4318.226542627019 Eh

SHARK setup successfully completed in   8.2 seconds

Maximum memory used throughout the entire GTOINT-calculation: 410.4 MB
-------------------------------------------------------------------------------
                                 ORCA SCF
-------------------------------------------------------------------------------

------------
SCF SETTINGS
------------
Hamiltonian:
 Density Functional     Method          .... DFT(GTOs)
 Exchange Functional    Exchange        .... PBE
   PBE kappa parameter   XKappa         ....  0.804000
   PBE mue parameter    XMuePBE         ....  0.219520
 Correlation Functional Correlation     .... PBE
   PBE beta parameter  CBetaPBE         ....  0.066725
 LDA part of GGA corr.  LDAOpt          .... PW91-LDA
 Gradients option       PostSCFGGA      .... off
   Density functional embedding theory  .... OFF
   NL short-range parameter             ....  6.400000
 RI-approximation to the Coulomb term is turned on
   Number of AuxJ basis functions       .... 1157


General Settings:
 Integral files         IntName         .... pbe
 Hartree-Fock type      HFTyp           .... UHF
 Total Charge           Charge          ....    0
 Multiplicity           Mult            ....    5
 Number of Electrons    NEL             ....  252
 Basis Dimension        Dim             ....  525
 Nuclear Repulsion      ENuc            ....   4318.2265426270 Eh

Convergence Acceleration:
 DIIS                   CNVDIIS         .... off
 Trust-Rad. Augm. Hess. CNVTRAH         .... auto
   Auto Start mean grad. ratio tolernc. ....  1.125000
   Auto Start start iteration           ....    20
   Auto Start num. interpolation iter.  ....    10
   Max. Number of Micro iterations      ....    16
   Max. Number of Macro iterations      .... Maxiter - #DIIS iter
   Number of Davidson start vectors     ....     2
   Converg. threshold I  (grad. norm)   ....   1.000e-05
   Converg. threshold II (energy diff.) ....   1.000e-08
   Grad. Scal. Fac. for Micro threshold ....   0.100
   Minimum threshold for Micro iter.    ....   0.010
   NR start threshold (gradient norm)   ....   0.001
   Initial trust radius                 ....   0.400
   Minimum AH scaling param. (alpha)    ....   1.000
   Maximum AH scaling param. (alpha)    .... 1000.000
   Orbital update algorithm             .... Taylor
   White noise on init. David. guess    .... on
   Maximum white noise                  ....   0.010
   Quad. conv. algorithm                .... NR
 SOSCF                  CNVSOSCF        .... off
 Level Shifting         CNVShift        .... off
 Zerner damping         CNVZerner       .... off
 Static damping         CNVDamp         .... off
 Fernandez-Rico         CNVRico         .... off

SCF Procedure:
 Maximum # iterations   MaxIter         ....   125
 SCF integral mode      SCFMode         .... Direct
   Integral package                     .... SHARK and LIBINT hybrid scheme
 Reset frequency        DirectResetFreq ....    20
 Integral Threshold     Thresh          ....  2.500e-11 Eh
 Primitive CutOff       TCut            ....  2.500e-12 Eh

Convergence Tolerance:
 Convergence Check Mode ConvCheckMode   .... Total+1el-Energy
 Convergence forced     ConvForced      .... 0
 Energy Change          TolE            ....  1.000e-08 Eh
 1-El. energy change                    ....  1.000e-05 Eh


Diagonalization of the overlap matrix:
Smallest eigenvalue                        ... 1.190e-04
Time for diagonalization                   ...    0.033 sec
Threshold for overlap eigenvalues          ... 1.000e-08
Number of eigenvalues below threshold      ... 0
Time for construction of square roots      ...    0.017 sec
Total time needed                          ...    0.051 sec

Time for model grid setup =    1.054 sec

------------------------------
INITIAL GUESS: MODEL POTENTIAL
------------------------------
Loading Hartree-Fock densities                     ... done
  calling /media/Programs/ORCA501/orca pbe_atom79.inp > pbe_atom79.out in order to generate an atomic fitting density for atom 0 (Au with ECP) on-the-fly... 
    atom 0 (Au), assumed electronic state with S=2: 1s2 2s2 2p6 3s2 3p6 4s2 3d10 4p6 5s2 4d10 5p6 6s1 4f14 5d10           ... done
Calculating cut-offs                               ... done
Initializing the effective Hamiltonian             ... done
Setting up the integral package (SHARK)            ... done
Starting the Coulomb interaction                   ... done (   1.8 sec)
Reading the grid                                   ... done
Mapping shells                                     ... done
Starting the XC term evaluation                    ... done (   2.0 sec)
  promolecular density results
     # of electrons  =    972.013009702
     EX              =  -4437.111564040
     EC              =    -59.147053356
     EX+EC           =  -4496.258617396
Transforming the Hamiltonian                       ... done (   0.0 sec)
Diagonalizing the Hamiltonian                      ... done (   0.0 sec)
Back transforming the eigenvectors                 ... done (   0.0 sec)
Now organizing SCF variables                       ... done
                      ------------------
                      INITIAL GUESS DONE (   5.5 sec)
                      ------------------
-------------------
DFT GRID GENERATION
-------------------

General Integration Accuracy     IntAcc      ... 4.388
Radial Grid Type                 RadialGrid  ... OptM3 with GC (2021)
Angular Grid (max. ang.)         AngularGrid ... 4 (Lebedev-302)
Angular grid pruning method      GridPruning ... 4 (adaptive)
Weight generation scheme         WeightScheme... Becke
Basis function cutoff            BFCut       ... 1.0000e-11
Integration weight cutoff        WCut        ... 1.0000e-14
Angular grids for H and He will be reduced by one unit
Partially contracted basis set               ... off
Rotationally invariant grid construction     ... off

Total number of grid points                  ...   144559
Total number of batches                      ...     2266
Average number of points per batch           ...       63
Average number of grid points per atom       ...    11120
Time for grid setup =    2.406 sec

--------------
SCF ITERATIONS
--------------
ITER       Energy         Delta-E        Max-DP      RMS-DP      [F,P]   Gradient Norm
               ***  Starting incremental Fock matrix formation  ***
                             ****Resetting KDIIS****
                             ****Turning on KDIIS(Cayley)****
  0  -2672.4046366112   0.000000000000 0.66290535  0.00226887  0.3546035   0.216431006
  1  -2673.4146484626  -1.010011851350 0.51996526  0.00203020  0.3172234   0.165483896
  2  -2673.8227253440  -0.408076881477 0.09831698  0.00130412  0.2505113   0.124382840
  3  -2674.0272438860  -0.204518541957 0.43178389  0.00186676  0.1461649   0.072165847
  4  -2674.0910340325  -0.063790146504 0.12085011  0.00068833  0.0314281   0.019743665
  5  -2674.1238821640  -0.032848131450 0.09881486  0.00066669  0.0211408   0.005914892
  6  -2674.1336483004  -0.009766136413 0.05848225  0.00042542  0.0271805   0.006439282
  7  -2674.1409767409  -0.007328440581 0.10124874  0.00041155  0.0107804   0.004596828
  8  -2674.1357172699   0.005259470999 0.12051333  0.00037141  0.0145563   0.009466488
  9  -2674.1460014891  -0.010284219154 0.01469482  0.00014047  0.0064338   0.001514224
 10  -2674.1465528809  -0.000551391784 0.00735604  0.00010020  0.0050153   0.002518953
 11  -2674.1475383958  -0.000985514887 0.07329636  0.00017974  0.0032999   0.001194233
 12  -2674.1473205102   0.000217885612 0.03502168  0.00009301  0.0065626   0.002812674
 13  -2674.1478405567  -0.000520046536 0.01213775  0.00010090  0.0029821   0.001102556
 14  -2674.1482314990  -0.000390942333 0.01701345  0.00005240  0.0009021   0.000443251
 15  -2674.1481631009   0.000068398087 0.02188805  0.00005865  0.0027366   0.001058581
 16  -2674.1482954709  -0.000132369943 0.00120603  0.00001589  0.0007186   0.000309590
 17  -2674.1482961979  -0.000000727033 0.00464285  0.00002623  0.0006431   0.000320056
 18  -2674.1483236723  -0.000027474418 0.00426642  0.00001491  0.0004581   0.000299927
 19  -2674.1483247454  -0.000001073076 0.00233968  0.00001305  0.0010415   0.000337516
               *** Restarting incremental Fock matrix formation ***
                             ****Resetting KDIIS****
 20  -2674.1483306571  -0.000005911696 0.00055069  0.00000202  0.0004730   0.000151061
 21  -2674.1483325760  -0.000001918896 0.00028013  0.00000192  0.0004286   0.000109227
 22  -2674.1483345889  -0.000002012895 0.00041118  0.00000362  0.0004542   0.000096394
 23  -2674.1483382046  -0.000003615658 0.00471581  0.00002978  0.0003578   0.000081742
 24  -2674.1483548220  -0.000016617460 0.00187969  0.00001098  0.0001631   0.000138340
 25  -2674.1483590104  -0.000004188420 0.00082355  0.00000404  0.0000810   0.000040644
 26  -2674.1483595005  -0.000000490028 0.00030310  0.00000307  0.0000661   0.000054831
 27  -2674.1483601054  -0.000000604945 0.00022213  0.00000264  0.0000572   0.000019686
 28  -2674.1483603882  -0.000000282796 0.00048234  0.00000312  0.0000565   0.000036944
 29  -2674.1483607091  -0.000000320941 0.00035074  0.00000142  0.0000968   0.000028264
 30  -2674.1483608127  -0.000000103601 0.00055360  0.00000180  0.0000451   0.000020490
 31  -2674.1483607712   0.000000041548 0.00023719  0.00000275  0.0000424   0.000026899
 32  -2674.1483610144  -0.000000243207 0.00017145  0.00000095  0.0000382   0.000013467
 33  -2674.1483609864   0.000000028012 0.00031750  0.00000122  0.0000298   0.000014563

 WARNING: the maximum gradient error descreased on average only by a factor   1.1
          during the last 20 iterations

                      *** Initiating the TRAH-SCF procedure ***

                    *** KDIIS BlockDiag ( 0.072 sec) ***

TRAH GRID
---------

General Integration Accuracy     IntAcc      ... 3.467
Radial Grid Type                 RadialGrid  ... OptM3 with GC (2021)
Angular Grid (max. ang.)         AngularGrid ... 1 (Lebedev-50)
Angular grid pruning method      GridPruning ... 4 (adaptive)
Weight generation scheme         WeightScheme... Becke
Basis function cutoff            BFCut       ... 1.0000e-11
Integration weight cutoff        WCut        ... 1.0000e-14
Angular grids for H and He will be reduced by one unit
Partially contracted basis set               ... off
Rotationally invariant grid construction     ... off

Total number of grid points                  ...    62395
Total number of batches                      ...      982
Average number of points per batch           ...       63
Average number of grid points per atom       ...     4800

 --------------------------------------------------------------------------------------------
   Iter.        energy            ||Error||_2        Shift      TRadius  Mac/Mic        Rej.
 --------------------------------------------------------------------------------------------
    0      -2674.148361041473     2.321188e-04                     0.400 (TRAH MAcro)   No
    0     dE    -1.258741e-08     3.269066e-04    -1.2590e-08      0.000 (TRAH MIcro)
    0     dE    -8.440314e-08     3.607840e-04    -8.4403e-08      0.001 (TRAH MIcro)
    0     dE    -1.328847e-07     1.968117e-04    -1.3288e-07      0.002 (TRAH MIcro)
    0     dE    -1.457777e-07     8.555959e-05    -1.4578e-07      0.002 (TRAH MIcro)
    0     dE    -1.484191e-07     4.134338e-05    -1.4842e-07      0.002 (TRAH MIcro)
    0     dE    -1.493367e-07     3.021558e-05    -1.4934e-07      0.002 (TRAH MIcro)
    0     dE    -1.497218e-07     1.355435e-05    -1.4972e-07      0.002 (TRAH MIcro)
    0     dE    -1.498304e-07     7.227959e-06    -1.4983e-07      0.002 (TRAH MIcro)
    0     dE    -1.498518e-07     3.948419e-06    -1.4985e-07      0.002 (TRAH MIcro)
    0     dE    -1.498587e-07     1.633941e-06    -1.4986e-07      0.002 (TRAH MIcro)
    0     dE    -1.498599e-07     7.387813e-07    -1.4986e-07      0.002 (TRAH MIcro)
    1      -2674.148361191254     1.034119e-06                           (NR   MAcro)
    1     dE    -4.074791e-13     8.663160e-07                           (NR   MIcro)
    2      -2674.148361191249     8.663201e-07                           (NR   MAcro)

               *****************************************************
               *                     SUCCESS                       *
               *           SCF CONVERGED AFTER  49 CYCLES          *
               *****************************************************


----------------
TOTAL SCF ENERGY
----------------

Total Energy       :        -2674.14836119 Eh          -72767.27632 eV

Components:
Nuclear Repulsion  :         4318.22654263 Eh          117504.91806 eV
Electronic Energy  :        -6992.37490382 Eh         -190272.19438 eV
One Electron Energy:       -12927.90076662 Eh         -351786.06432 eV
Two Electron Energy:         5935.52586280 Eh          161513.86993 eV

Virial components:
Potential Energy   :        -4266.40004604 Eh         -116094.64739 eV
Kinetic Energy     :         1592.25168485 Eh           43327.37107 eV
Virial Ratio       :            2.67947592


DFT components:
N(Alpha)           :      127.999948322111 electrons
N(Beta)            :      123.999953612602 electrons
N(Total)           :      251.999901934713 electrons
E(X)               :     -192.060849379926 Eh       
E(C)               :      -10.962341790948 Eh       
E(XC)              :     -203.023191170873 Eh       
DFET-embed. en.    :        0.000000000000 Eh       

---------------
SCF CONVERGENCE
---------------

  Last Energy change         ...    4.5475e-12  Tolerance :   1.0000e-08
  Last Orbital Gradient      ...    8.6632e-07  Tolerance :   1.0000e-05
  Last Orbital Rotation      ...    9.4094e-07

             **** THE GBW FILE WAS UPDATED (pbe.gbw) ****
             **** DENSITY pbe.scfp WAS UPDATED ****
             **** ENERGY FILE WAS UPDATED (pbe.en.tmp) ****
----------------------
UHF SPIN CONTAMINATION
----------------------

Warning: in a DFT calculation there is little theoretical justification to 
         calculate <S**2> as in Hartree-Fock theory. We will do it anyways
         but you should keep in mind that the values have only limited relevance

Expectation value of <S**2>     :     6.232673
Ideal value S*(S+1) for S=2.0   :     6.000000
Deviation                       :     0.232673

             **** THE GBW FILE WAS UPDATED (pbe.gbw) ****
             **** DENSITY pbe.scfp WAS UPDATED ****
----------------
ORBITAL ENERGIES
----------------
                 SPIN UP ORBITALS
  NO   OCC          E(Eh)            E(eV) 
   0   1.0000    -214.487160     -5836.4923 
   1   1.0000     -24.289956      -660.9633 
   2   1.0000     -20.655690      -562.0699 
   3   1.0000     -20.653946      -562.0224 
   4   1.0000     -20.649995      -561.9149 
   5   1.0000      -4.034369      -109.7808 
   6   1.0000      -4.033761      -109.7642 
   7   1.0000      -4.032176      -109.7211 
   8   1.0000      -4.026769      -109.5739 
   9   1.0000      -4.024426      -109.5102 
  10   1.0000      -4.023167      -109.4759 
  11   1.0000      -4.022991      -109.4712 
  12   1.0000      -4.022498      -109.4577 
  13   1.0000      -4.022146      -109.4482 
  14   1.0000      -4.017405      -109.3191 
  15   1.0000      -4.013734      -109.2192 
  16   1.0000      -4.013302      -109.2075 
  17   1.0000      -2.793953       -76.0273 
  18   1.0000      -2.253158       -61.3116 
  19   1.0000      -2.250691       -61.2444 
  20   1.0000      -2.248970       -61.1976 
  21   1.0000      -2.246719       -61.1363 
  22   1.0000      -2.245661       -61.1075 
  23   1.0000      -2.244948       -61.0881 
  24   1.0000      -2.244588       -61.0783 
  25   1.0000      -2.244109       -61.0653 
  26   1.0000      -2.243378       -61.0454 
  27   1.0000      -2.242504       -61.0216 
  28   1.0000      -2.242318       -61.0166 
  29   1.0000      -2.241195       -60.9860 
  30   1.0000      -2.240359       -60.9633 
  31   1.0000      -2.239901       -60.9508 
  32   1.0000      -2.238768       -60.9200 
  33   1.0000      -2.238291       -60.9070 
  34   1.0000      -2.237538       -60.8865 
  35   1.0000      -2.236464       -60.8573 
  36   1.0000      -2.235964       -60.8437 
  37   1.0000      -2.235541       -60.8322 
  38   1.0000      -2.235195       -60.8227 
  39   1.0000      -2.234934       -60.8156 
  40   1.0000      -2.233793       -60.7846 
  41   1.0000      -2.232126       -60.7392 
  42   1.0000      -2.231875       -60.7324 
  43   1.0000      -2.231600       -60.7249 
  44   1.0000      -2.231329       -60.7175 
  45   1.0000      -2.229975       -60.6807 
  46   1.0000      -2.229445       -60.6663 
  47   1.0000      -2.228704       -60.6461 
  48   1.0000      -2.228599       -60.6433 
  49   1.0000      -2.228134       -60.6306 
  50   1.0000      -2.226518       -60.5866 
  51   1.0000      -2.225464       -60.5579 
  52   1.0000      -2.223814       -60.5131 
  53   1.0000      -2.222500       -60.4773 
  54   1.0000      -1.787732       -48.6467 
  55   1.0000      -1.784652       -48.5629 
  56   1.0000      -1.779298       -48.4172 
  57   1.0000      -0.423508       -11.5242 
  58   1.0000      -0.385426       -10.4880 
  59   1.0000      -0.380360       -10.3501 
  60   1.0000      -0.378211       -10.2916 
  61   1.0000      -0.367884       -10.0106 
  62   1.0000      -0.362164        -9.8550 
  63   1.0000      -0.359699        -9.7879 
  64   1.0000      -0.358150        -9.7458 
  65   1.0000      -0.350647        -9.5416 
  66   1.0000      -0.347927        -9.4676 
  67   1.0000      -0.347627        -9.4594 
  68   1.0000      -0.342521        -9.3205 
  69   1.0000      -0.339085        -9.2270 
  70   1.0000      -0.338900        -9.2219 
  71   1.0000      -0.335922        -9.1409 
  72   1.0000      -0.333911        -9.0862 
  73   1.0000      -0.333151        -9.0655 
  74   1.0000      -0.327169        -8.9027 
  75   1.0000      -0.325964        -8.8699 
  76   1.0000      -0.324814        -8.8386 
  77   1.0000      -0.321863        -8.7583 
  78   1.0000      -0.318898        -8.6777 
  79   1.0000      -0.317155        -8.6302 
  80   1.0000      -0.316228        -8.6050 
  81   1.0000      -0.314259        -8.5514 
  82   1.0000      -0.312042        -8.4911 
  83   1.0000      -0.309279        -8.4159 
  84   1.0000      -0.303927        -8.2703 
  85   1.0000      -0.300137        -8.1671 
  86   1.0000      -0.295971        -8.0538 
  87   1.0000      -0.295330        -8.0363 
  88   1.0000      -0.291078        -7.9206 
  89   1.0000      -0.289411        -7.8753 
  90   1.0000      -0.285529        -7.7696 
  91   1.0000      -0.284314        -7.7366 
  92   1.0000      -0.280319        -7.6279 
  93   1.0000      -0.279543        -7.6067 
  94   1.0000      -0.278929        -7.5900 
  95   1.0000      -0.277457        -7.5500 
  96   1.0000      -0.276821        -7.5327 
  97   1.0000      -0.274203        -7.4614 
  98   1.0000      -0.272991        -7.4285 
  99   1.0000      -0.271691        -7.3931 
 100   1.0000      -0.270393        -7.3578 
 101   1.0000      -0.268996        -7.3198 
 102   1.0000      -0.268556        -7.3078 
 103   1.0000      -0.266861        -7.2617 
 104   1.0000      -0.263811        -7.1787 
 105   1.0000      -0.262876        -7.1532 
 106   1.0000      -0.261899        -7.1266 
 107   1.0000      -0.260481        -7.0881 
 108   1.0000      -0.256275        -6.9736 
 109   1.0000      -0.255207        -6.9445 
 110   1.0000      -0.253554        -6.8996 
 111   1.0000      -0.252752        -6.8777 
 112   1.0000      -0.251902        -6.8546 
 113   1.0000      -0.249940        -6.8012 
 114   1.0000      -0.248556        -6.7636 
 115   1.0000      -0.245145        -6.6707 
 116   1.0000      -0.243501        -6.6260 
 117   1.0000      -0.242035        -6.5861 
 118   1.0000      -0.240192        -6.5360 
 119   1.0000      -0.239282        -6.5112 
 120   1.0000      -0.236811        -6.4439 
 121   1.0000      -0.215067        -5.8523 
 122   1.0000      -0.210777        -5.7355 
 123   1.0000      -0.209797        -5.7089 
 124   1.0000      -0.204980        -5.5778 
 125   1.0000      -0.200431        -5.4540 
 126   1.0000      -0.185243        -5.0407 
 127   1.0000      -0.184014        -5.0073 
 128   0.0000      -0.163518        -4.4496 
 129   0.0000      -0.159196        -4.3320 
 130   0.0000      -0.152205        -4.1417 
 131   0.0000      -0.131129        -3.5682 
 132   0.0000      -0.121796        -3.3142 
 133   0.0000      -0.116426        -3.1681 
 134   0.0000      -0.104137        -2.8337 
 135   0.0000      -0.062976        -1.7137 
 136   0.0000      -0.061728        -1.6797 
 137   0.0000      -0.055037        -1.4976 
 138   0.0000      -0.052943        -1.4406 
 139   0.0000      -0.049481        -1.3464 
 140   0.0000      -0.045009        -1.2247 
 141   0.0000      -0.034105        -0.9280 
 142   0.0000      -0.031491        -0.8569 
 143   0.0000      -0.020286        -0.5520 
 144   0.0000      -0.013465        -0.3664 
 145   0.0000       0.008344         0.2270 
 146   0.0000       0.018685         0.5085 
 147   0.0000       0.031051         0.8449 
 148   0.0000       0.036866         1.0032 
 149   0.0000       0.040223         1.0945 
 150   0.0000       0.045621         1.2414 
 151   0.0000       0.047400         1.2898 
 152   0.0000       0.049471         1.3462 
 153   0.0000       0.053975         1.4687 
 154   0.0000       0.054646         1.4870 
 155   0.0000       0.058667         1.5964 
 156   0.0000       0.059954         1.6314 
 157   0.0000       0.063308         1.7227 
 158   0.0000       0.068693         1.8692 
 159   0.0000       0.073445         1.9985 
 160   0.0000       0.081561         2.2194 
 161   0.0000       0.089196         2.4272 
 162   0.0000       0.091933         2.5016 
 163   0.0000       0.097524         2.6538 
 164   0.0000       0.100335         2.7302 
 165   0.0000       0.105502         2.8708 
 166   0.0000       0.109411         2.9772 
 167   0.0000       0.120619         3.2822 
 168   0.0000       0.122922         3.3449 
 169   0.0000       0.126108         3.4316 
 170   0.0000       0.132316         3.6005 
 171   0.0000       0.137556         3.7431 
 172   0.0000       0.138958         3.7812 
 173   0.0000       0.142323         3.8728 
 174   0.0000       0.147952         4.0260 
 175   0.0000       0.152816         4.1583 
 176   0.0000       0.158327         4.3083 
 177   0.0000       0.165042         4.4910 
 178   0.0000       0.172985         4.7072 
 179   0.0000       0.190539         5.1848 
 180   0.0000       0.196570         5.3489 
 181   0.0000       0.203207         5.5295 
 182   0.0000       0.212608         5.7853 
 183   0.0000       0.216221         5.8837 
 184   0.0000       0.216889         5.9018 
 185   0.0000       0.222038         6.0420 
 186   0.0000       0.236936         6.4473 
 187   0.0000       0.237473         6.4620 
 188   0.0000       0.248289         6.7563 
 189   0.0000       0.251289         6.8379 
 190   0.0000       0.252962         6.8835 
 191   0.0000       0.254426         6.9233 
 192   0.0000       0.256967         6.9924 
 193   0.0000       0.260481         7.0880 
 194   0.0000       0.265377         7.2213 
 195   0.0000       0.271752         7.3948 
 196   0.0000       0.274859         7.4793 
 197   0.0000       0.280187         7.6243 
 198   0.0000       0.285144         7.7592 
 199   0.0000       0.295562         8.0426 
 200   0.0000       0.304755         8.2928 
 201   0.0000       0.309330         8.4173 
 202   0.0000       0.315154         8.5758 
 203   0.0000       0.317468         8.6387 
 204   0.0000       0.318640         8.6706 
 205   0.0000       0.321760         8.7555 
 206   0.0000       0.324588         8.8325 
 207   0.0000       0.327233         8.9045 
 208   0.0000       0.336446         9.1552 
 209   0.0000       0.340188         9.2570 
 210   0.0000       0.343674         9.3518 
 211   0.0000       0.347093         9.4449 
 212   0.0000       0.350515         9.5380 
 213   0.0000       0.352924         9.6035 
 214   0.0000       0.360236         9.8025 
 215   0.0000       0.365323         9.9409 
 216   0.0000       0.369571        10.0565 
 217   0.0000       0.377822        10.2811 
 218   0.0000       0.382124        10.3981 
 219   0.0000       0.392276        10.6744 
 220   0.0000       0.394871        10.7450 
 221   0.0000       0.397701        10.8220 
 222   0.0000       0.404568        11.0088 
 223   0.0000       0.411637        11.2012 
 224   0.0000       0.421046        11.4572 
 225   0.0000       0.426694        11.6109 
 226   0.0000       0.430190        11.7061 
 227   0.0000       0.437992        11.9184 
 228   0.0000       0.439858        11.9691 
 229   0.0000       0.445435        12.1209 
 230   0.0000       0.449587        12.2339 
 231   0.0000       0.455845        12.4042 
 232   0.0000       0.456472        12.4212 
 233   0.0000       0.466227        12.6867 
 234   0.0000       0.468707        12.7542 
 235   0.0000       0.474336        12.9073 
 236   0.0000       0.479300        13.0424 
 237   0.0000       0.483615        13.1598 
 238   0.0000       0.488723        13.2988 
 239   0.0000       0.493716        13.4347 
 240   0.0000       0.496012        13.4972 
 241   0.0000       0.501290        13.6408 
 242   0.0000       0.513447        13.9716 
 243   0.0000       0.516118        14.0443 
 244   0.0000       0.519776        14.1438 
 245   0.0000       0.521490        14.1905 
 246   0.0000       0.525357        14.2957 
 247   0.0000       0.533269        14.5110 
 248   0.0000       0.536013        14.5857 
 249   0.0000       0.538475        14.6526 
 250   0.0000       0.539533        14.6815 
 251   0.0000       0.545815        14.8524 
 252   0.0000       0.549312        14.9475 
 253   0.0000       0.557163        15.1612 
 254   0.0000       0.565765        15.3952 
 255   0.0000       0.571961        15.5638 
 256   0.0000       0.584376        15.9017 
 257   0.0000       0.634032        17.2529 
 258   0.0000       0.654866        17.8198 
 259   0.0000       0.680214        18.5096 
 260   0.0000       0.691584        18.8190 
 261   0.0000       0.694623        18.9017 
 262   0.0000       0.705258        19.1910 
 263   0.0000       0.709437        19.3048 
 264   0.0000       0.721355        19.6291 
 265   0.0000       0.729404        19.8481 
 266   0.0000       0.739723        20.1289 
 267   0.0000       0.751409        20.4469 
 268   0.0000       0.761235        20.7142 
 269   0.0000       0.763206        20.7679 
 270   0.0000       0.770881        20.9767 
 271   0.0000       0.775825        21.1113 
 272   0.0000       0.792646        21.5690 
 273   0.0000       0.815224        22.1834 
 274   0.0000       0.825651        22.4671 
 275   0.0000       0.835393        22.7322 
 276   0.0000       0.851087        23.1593 
 277   0.0000       0.873462        23.7681 
 278   0.0000       0.878600        23.9079 
 279   0.0000       0.887881        24.1605 
 280   0.0000       0.894054        24.3284 
 281   0.0000       0.904351        24.6086 
 282   0.0000       0.913460        24.8565 
 283   0.0000       0.924096        25.1459 
 284   0.0000       0.929635        25.2967 
 285   0.0000       0.942295        25.6411 
 286   0.0000       0.969930        26.3931 
 287   0.0000       0.977876        26.6093 
 288   0.0000       1.024127        27.8679 
 289   0.0000       1.040682        28.3184 
 290   0.0000       1.107441        30.1350 
 291   0.0000       1.134725        30.8774 
 292   0.0000       1.165081        31.7035 
 293   0.0000       1.205147        32.7937 
 294   0.0000       1.214954        33.0606 
 295   0.0000       1.229090        33.4452 
 296   0.0000       1.236223        33.6393 
 297   0.0000       1.263273        34.3754 
 298   0.0000       1.268165        34.5085 
 299   0.0000       1.287196        35.0264 
 300   0.0000       1.296200        35.2714 
 301   0.0000       1.302341        35.4385 
 302   0.0000       1.316488        35.8235 
 303   0.0000       1.318682        35.8832 
 304   0.0000       1.321335        35.9553 
 305   0.0000       1.327921        36.1346 
 306   0.0000       1.335219        36.3332 
 307   0.0000       1.335833        36.3499 
 308   0.0000       1.347232        36.6600 
 309   0.0000       1.356601        36.9150 
 310   0.0000       1.362492        37.0753 
 311   0.0000       1.377375        37.4803 
 312   0.0000       1.388314        37.7779 
 313   0.0000       1.390992        37.8508 
 314   0.0000       1.396987        38.0139 
 315   0.0000       1.400787        38.1173 
 316   0.0000       1.410303        38.3763 
 317   0.0000       1.412639        38.4399 
 318   0.0000       1.417012        38.5588 
 319   0.0000       1.420077        38.6423 
 320   0.0000       1.424344        38.7584 
 321   0.0000       1.427767        38.8515 
 322   0.0000       1.433644        39.0114 
 323   0.0000       1.436387        39.0861 
 324   0.0000       1.438552        39.1450 
 325   0.0000       1.439815        39.1793 
 326   0.0000       1.442492        39.2522 
 327   0.0000       1.444572        39.3088 
 328   0.0000       1.448379        39.4124 
 329   0.0000       1.450925        39.4817 
 330   0.0000       1.457506        39.6608 
 331   0.0000       1.458638        39.6916 
 332   0.0000       1.461529        39.7702 
 333   0.0000       1.462671        39.8013 
 334   0.0000       1.468064        39.9481 
 335   0.0000       1.469428        39.9852 
 336   0.0000       1.472904        40.0798 
 337   0.0000       1.475980        40.1634 
 338   0.0000       1.476639        40.1814 
 339   0.0000       1.479714        40.2651 
 340   0.0000       1.483531        40.3689 
 341   0.0000       1.484720        40.4013 
 342   0.0000       1.486874        40.4599 
 343   0.0000       1.489717        40.5373 
 344   0.0000       1.490590        40.5610 
 345   0.0000       1.491898        40.5966 
 346   0.0000       1.494351        40.6634 
 347   0.0000       1.494952        40.6797 
 348   0.0000       1.496998        40.7354 
 349   0.0000       1.498301        40.7708 
 350   0.0000       1.500035        40.8180 
 351   0.0000       1.501345        40.8537 
 352   0.0000       1.502462        40.8841 
 353   0.0000       1.506332        40.9894 
 354   0.0000       1.507420        41.0190 
 355   0.0000       1.509258        41.0690 
 356   0.0000       1.510206        41.0948 
 357   0.0000       1.511710        41.1357 
 358   0.0000       1.513620        41.1877 
 359   0.0000       1.514770        41.2190 
 360   0.0000       1.516223        41.2585 
 361   0.0000       1.518322        41.3156 
 362   0.0000       1.522834        41.4384 
 363   0.0000       1.523631        41.4601 
 364   0.0000       1.524419        41.4815 
 365   0.0000       1.526207        41.5302 
 366   0.0000       1.527355        41.5615 
 367   0.0000       1.528604        41.5954 
 368   0.0000       1.531270        41.6680 
 369   0.0000       1.533337        41.7242 
 370   0.0000       1.533875        41.7389 
 371   0.0000       1.535021        41.7700 
 372   0.0000       1.538517        41.8652 
 373   0.0000       1.541701        41.9518 
 374   0.0000       1.544415        42.0257 
 375   0.0000       1.547382        42.1064 
 376   0.0000       1.549827        42.1729 
 377   0.0000       1.550571        42.1932 
 378   0.0000       1.553509        42.2731 
 379   0.0000       1.558240        42.4019 
 380   0.0000       1.559224        42.4286 
 381   0.0000       1.562900        42.5287 
 382   0.0000       1.564130        42.5622 
 383   0.0000       1.565413        42.5971 
 384   0.0000       1.570781        42.7431 
 385   0.0000       1.572600        42.7926 
 386   0.0000       1.575779        42.8791 
 387   0.0000       1.576920        42.9102 
 388   0.0000       1.579436        42.9786 
 389   0.0000       1.582899        43.0729 
 390   0.0000       1.583595        43.0918 
 391   0.0000       1.586423        43.1688 
 392   0.0000       1.587582        43.2003 
 393   0.0000       1.591927        43.3185 
 394   0.0000       1.593082        43.3500 
 395   0.0000       1.597405        43.4676 
 396   0.0000       1.601226        43.5716 
 397   0.0000       1.602802        43.6144 
 398   0.0000       1.608060        43.7575 
 399   0.0000       1.616831        43.9962 
 400   0.0000       1.619305        44.0635 
 401   0.0000       1.620456        44.0949 
 402   0.0000       1.622498        44.1504 
 403   0.0000       1.626942        44.2713 
 404   0.0000       1.630096        44.3572 
 405   0.0000       1.631771        44.4027 
 406   0.0000       1.644680        44.7540 
 407   0.0000       1.652300        44.9614 
 408   0.0000       1.654987        45.0345 
 409   0.0000       1.659504        45.1574 
 410   0.0000       1.661006        45.1983 
 411   0.0000       1.672844        45.5204 
 412   0.0000       1.682938        45.7951 
 413   0.0000       1.686464        45.8910 
 414   0.0000       1.692735        46.0617 
 415   0.0000       1.706093        46.4252 
 416   0.0000       1.716826        46.7172 
 417   0.0000       1.723730        46.9051 
 418   0.0000       1.731752        47.1234 
 419   0.0000       1.735365        47.2217 
 420   0.0000       1.744699        47.4757 
 421   0.0000       1.754828        47.7513 
 422   0.0000       1.758903        47.8622 
 423   0.0000       1.770090        48.1666 
 424   0.0000       1.777228        48.3608 
 425   0.0000       1.789431        48.6929 
 426   0.0000       1.799561        48.9685 
 427   0.0000       1.804032        49.0902 
 428   0.0000       1.825995        49.6878 
 429   0.0000       1.839655        50.0596 
 430   0.0000       1.845634        50.2223 
 431   0.0000       1.852513        50.4095 
 432   0.0000       1.877962        51.1020 
 433   0.0000       1.896802        51.6146 
 434   0.0000       1.903631        51.8004 
 435   0.0000       1.927059        52.4380 
 436   0.0000       1.961230        53.3678 
 437   0.0000       2.038177        55.4616 
 438   0.0000       2.129481        57.9461 
 439   0.0000       2.169243        59.0281 
 440   0.0000       2.249733        61.2183 
 441   0.0000       2.266177        61.6658 
 442   0.0000       2.279595        62.0309 
 443   0.0000       2.293285        62.4034 
 444   0.0000       2.306133        62.7531 
 445   0.0000       2.367752        64.4298 
 446   0.0000       2.374946        64.6256 
 447   0.0000       2.386635        64.9436 
 448   0.0000       2.405235        65.4498 
 449   0.0000       2.431752        66.1713 
 450   0.0000       2.446417        66.5704 
 451   0.0000       2.476155        67.3796 
 452   0.0000       2.494393        67.8759 
 453   0.0000       2.527547        68.7781 
 454   0.0000       2.557740        69.5996 
 455   0.0000       2.576333        70.1056 
 456   0.0000       2.667266        72.5800 
 457   0.0000       2.825548        76.8871 
 458   0.0000       2.839671        77.2714 
 459   0.0000       2.860537        77.8392 
 460   0.0000       2.864384        77.9439 
 461   0.0000       2.884912        78.5024 
 462   0.0000       2.906984        79.1031 
 463   0.0000       2.947706        80.2112 
 464   0.0000       2.960976        80.5722 
 465   0.0000      23.760288       646.5503 
 466   0.0000      23.836584       648.6264 
 467   0.0000      24.012466       653.4124 
 468   0.0000      24.366460       663.0451 
 469   0.0000      24.440062       665.0479 
 470   0.0000      24.742172       673.2687 
 471   0.0000      24.963746       679.2981 
 472   0.0000      25.053029       681.7276 
 473   0.0000      25.199044       685.7008 
 474   0.0000      25.405548       691.3201 
 475   0.0000      25.432449       692.0521 
 476   0.0000      25.510429       694.1741 
 477   0.0000      25.577359       695.9953 
 478   0.0000      25.634826       697.5591 
 479   0.0000      25.687178       698.9837 
 480   0.0000      25.877930       704.1743 
 481   0.0000      25.968640       706.6426 
 482   0.0000      26.090143       709.9489 
 483   0.0000      26.271158       714.8745 
 484   0.0000      26.428187       719.1475 
 485   0.0000      26.569450       722.9915 
 486   0.0000      26.733111       727.4449 
 487   0.0000      26.788516       728.9526 
 488   0.0000      26.874806       731.3007 
 489   0.0000      27.007781       734.9191 
 490   0.0000      27.174352       739.4517 
 491   0.0000      27.241189       741.2704 
 492   0.0000      27.426262       746.3065 
 493   0.0000      27.612244       751.3674 
 494   0.0000      27.855526       757.9874 
 495   0.0000      27.974229       761.2175 
 496   0.0000      28.437417       773.8214 
 497   0.0000      28.601561       778.2880 
 498   0.0000      28.807282       783.8860 
 499   0.0000      28.934344       787.3435 
 500   0.0000      30.144571       820.2755 
 501   0.0000      43.903421      1194.6728 
 502   0.0000      43.988170      1196.9790 
 503   0.0000      44.018980      1197.8174 
 504   0.0000      44.050571      1198.6770 
 505   0.0000      44.069795      1199.2001 
 506   0.0000      44.093272      1199.8389 
 507   0.0000      44.115023      1200.4308 
 508   0.0000      44.123908      1200.6726 
 509   0.0000      44.142306      1201.1732 
 510   0.0000      44.147740      1201.3211 
 511   0.0000      44.168602      1201.8888 
 512   0.0000      44.278994      1204.8927 
 513   0.0000     205.093075      5580.8663 
 514   0.0000     205.129224      5581.8500 
 515   0.0000     205.137673      5582.0799 
 516   0.0000     205.150933      5582.4407 
 517   0.0000     205.165376      5582.8337 
 518   0.0000     205.170470      5582.9723 
 519   0.0000     205.179727      5583.2242 
 520   0.0000     205.185012      5583.3680 
 521   0.0000     205.190307      5583.5121 
 522   0.0000     205.194071      5583.6145 
 523   0.0000     205.203064      5583.8592 
 524   0.0000     205.238711      5584.8293 

                 SPIN DOWN ORBITALS
  NO   OCC          E(Eh)            E(eV) 
   0   1.0000    -214.486720     -5836.4804 
   1   1.0000     -24.244107      -659.7157 
   2   1.0000     -20.622949      -561.1790 
   3   1.0000     -20.619913      -561.0964 
   4   1.0000     -20.611645      -560.8714 
   5   1.0000      -4.032953      -109.7422 
   6   1.0000      -4.032283      -109.7240 
   7   1.0000      -4.030528      -109.6762 
   8   1.0000      -4.025728      -109.5456 
   9   1.0000      -4.023075      -109.4734 
  10   1.0000      -4.022080      -109.4464 
  11   1.0000      -4.021729      -109.4368 
  12   1.0000      -4.021622      -109.4339 
  13   1.0000      -4.020900      -109.4142 
  14   1.0000      -4.016826      -109.3034 
  15   1.0000      -4.012864      -109.1956 
  16   1.0000      -4.012334      -109.1812 
  17   1.0000      -2.670222       -72.6604 
  18   1.0000      -2.251146       -61.2568 
  19   1.0000      -2.248640       -61.1886 
  20   1.0000      -2.246640       -61.1342 
  21   1.0000      -2.245425       -61.1011 
  22   1.0000      -2.244405       -61.0734 
  23   1.0000      -2.243463       -61.0477 
  24   1.0000      -2.243198       -61.0405 
  25   1.0000      -2.242719       -61.0275 
  26   1.0000      -2.241647       -60.9983 
  27   1.0000      -2.241165       -60.9852 
  28   1.0000      -2.240821       -60.9758 
  29   1.0000      -2.239881       -60.9503 
  30   1.0000      -2.239080       -60.9285 
  31   1.0000      -2.238350       -60.9086 
  32   1.0000      -2.237278       -60.8794 
  33   1.0000      -2.237202       -60.8774 
  34   1.0000      -2.235906       -60.8421 
  35   1.0000      -2.235377       -60.8277 
  36   1.0000      -2.234515       -60.8042 
  37   1.0000      -2.234392       -60.8009 
  38   1.0000      -2.234053       -60.7917 
  39   1.0000      -2.233818       -60.7853 
  40   1.0000      -2.232882       -60.7598 
  41   1.0000      -2.231267       -60.7159 
  42   1.0000      -2.230930       -60.7067 
  43   1.0000      -2.230868       -60.7050 
  44   1.0000      -2.230141       -60.6852 
  45   1.0000      -2.228978       -60.6536 
  46   1.0000      -2.228093       -60.6295 
  47   1.0000      -2.227942       -60.6254 
  48   1.0000      -2.227542       -60.6145 
  49   1.0000      -2.227302       -60.6080 
  50   1.0000      -2.225286       -60.5531 
  51   1.0000      -2.225064       -60.5471 
  52   1.0000      -2.223401       -60.5018 
  53   1.0000      -2.221341       -60.4458 
  54   1.0000      -1.673384       -45.5351 
  55   1.0000      -1.665971       -45.3334 
  56   1.0000      -1.646585       -44.8059 
  57   1.0000      -0.416112       -11.3230 
  58   1.0000      -0.381478       -10.3806 
  59   1.0000      -0.376568       -10.2469 
  60   1.0000      -0.374837       -10.1998 
  61   1.0000      -0.364009        -9.9052 
  62   1.0000      -0.357893        -9.7388 
  63   1.0000      -0.355908        -9.6848 
  64   1.0000      -0.354421        -9.6443 
  65   1.0000      -0.347137        -9.4461 
  66   1.0000      -0.345133        -9.3916 
  67   1.0000      -0.343776        -9.3546 
  68   1.0000      -0.338389        -9.2080 
  69   1.0000      -0.336781        -9.1643 
  70   1.0000      -0.335387        -9.1263 
  71   1.0000      -0.332104        -9.0370 
  72   1.0000      -0.331011        -9.0073 
  73   1.0000      -0.329980        -8.9792 
  74   1.0000      -0.324933        -8.8419 
  75   1.0000      -0.324449        -8.8287 
  76   1.0000      -0.322768        -8.7830 
  77   1.0000      -0.320573        -8.7232 
  78   1.0000      -0.317175        -8.6308 
  79   1.0000      -0.315108        -8.5745 
  80   1.0000      -0.314412        -8.5556 
  81   1.0000      -0.309539        -8.4230 
  82   1.0000      -0.307143        -8.3578 
  83   1.0000      -0.306799        -8.3484 
  84   1.0000      -0.302145        -8.2218 
  85   1.0000      -0.296721        -8.0742 
  86   1.0000      -0.294602        -8.0165 
  87   1.0000      -0.293571        -7.9885 
  88   1.0000      -0.288834        -7.8596 
  89   1.0000      -0.287386        -7.8202 
  90   1.0000      -0.283986        -7.7276 
  91   1.0000      -0.282474        -7.6865 
  92   1.0000      -0.278822        -7.5871 
  93   1.0000      -0.278269        -7.5721 
  94   1.0000      -0.277300        -7.5457 
  95   1.0000      -0.275735        -7.5031 
  96   1.0000      -0.275014        -7.4835 
  97   1.0000      -0.272864        -7.4250 
  98   1.0000      -0.270884        -7.3711 
  99   1.0000      -0.270359        -7.3569 
 100   1.0000      -0.269358        -7.3296 
 101   1.0000      -0.267592        -7.2816 
 102   1.0000      -0.267525        -7.2797 
 103   1.0000      -0.265766        -7.2319 
 104   1.0000      -0.262681        -7.1479 
 105   1.0000      -0.261790        -7.1237 
 106   1.0000      -0.260979        -7.1016 
 107   1.0000      -0.259432        -7.0595 
 108   1.0000      -0.254825        -6.9341 
 109   1.0000      -0.254369        -6.9217 
 110   1.0000      -0.251945        -6.8558 
 111   1.0000      -0.251235        -6.8365 
 112   1.0000      -0.250823        -6.8252 
 113   1.0000      -0.248522        -6.7626 
 114   1.0000      -0.247080        -6.7234 
 115   1.0000      -0.243333        -6.6214 
 116   1.0000      -0.242045        -6.5864 
 117   1.0000      -0.241147        -6.5620 
 118   1.0000      -0.238851        -6.4995 
 119   1.0000      -0.237741        -6.4693 
 120   1.0000      -0.235564        -6.4100 
 121   1.0000      -0.208116        -5.6631 
 122   1.0000      -0.202146        -5.5007 
 123   1.0000      -0.197502        -5.3743 
 124   0.0000      -0.170836        -4.6487 
 125   0.0000      -0.163598        -4.4517 
 126   0.0000      -0.139077        -3.7845 
 127   0.0000      -0.130984        -3.5643 
 128   0.0000      -0.118676        -3.2293 
 129   0.0000      -0.107577        -2.9273 
 130   0.0000      -0.103161        -2.8071 
 131   0.0000      -0.100493        -2.7346 
 132   0.0000      -0.098691        -2.6855 
 133   0.0000      -0.090624        -2.4660 
 134   0.0000      -0.087645        -2.3849 
 135   0.0000      -0.058950        -1.6041 
 136   0.0000      -0.053249        -1.4490 
 137   0.0000      -0.052062        -1.4167 
 138   0.0000      -0.050539        -1.3752 
 139   0.0000      -0.046583        -1.2676 
 140   0.0000      -0.040270        -1.0958 
 141   0.0000      -0.030181        -0.8213 
 142   0.0000      -0.023684        -0.6445 
 143   0.0000      -0.016488        -0.4487 
 144   0.0000      -0.009341        -0.2542 
 145   0.0000       0.014420         0.3924 
 146   0.0000       0.021134         0.5751 
 147   0.0000       0.032737         0.8908 
 148   0.0000       0.039221         1.0672 
 149   0.0000       0.042544         1.1577 
 150   0.0000       0.047981         1.3056 
 151   0.0000       0.048487         1.3194 
 152   0.0000       0.050889         1.3848 
 153   0.0000       0.054712         1.4888 
 154   0.0000       0.057498         1.5646 
 155   0.0000       0.059616         1.6222 
 156   0.0000       0.063152         1.7184 
 157   0.0000       0.066605         1.8124 
 158   0.0000       0.069295         1.8856 
[...]
 140( 0) :    -0.040181 a.u.    -1.093 eV
 141( 0) :    -0.035657 a.u.    -0.970 eV
 142( 0) :    -0.030025 a.u.    -0.817 eV
 143( 0) :    -0.020700 a.u.    -0.563 eV
 144( 0) :    -0.017888 a.u.    -0.487 eV
 145( 0) :     0.008816 a.u.     0.240 eV
 146( 0) :     0.017546 a.u.     0.477 eV
 147( 0) :     0.031441 a.u.     0.856 eV
 148( 0) :     0.038046 a.u.     1.035 eV
 149( 0) :     0.038771 a.u.     1.055 eV
 150( 0) :     0.044731 a.u.     1.217 eV
 151( 0) :     0.048354 a.u.     1.316 eV
 152( 0) :     0.050045 a.u.     1.362 eV
 153( 0) :     0.053346 a.u.     1.452 eV
 154( 0) :     0.054499 a.u.     1.483 eV
 155( 0) :     0.057121 a.u.     1.554 eV
 156( 0) :     0.059081 a.u.     1.608 eV
 157( 0) :     0.063046 a.u.     1.716 eV
 158( 0) :     0.068029 a.u.     1.851 eV
 159( 0) :     0.072961 a.u.     1.985 eV
 160( 0) :     0.082490 a.u.     2.245 eV
 161( 0) :     0.090217 a.u.     2.455 eV
 162( 0) :     0.093172 a.u.     2.535 eV
 163( 0) :     0.098508 a.u.     2.681 eV
 164( 0) :     0.100836 a.u.     2.744 eV
 165( 0) :     0.105171 a.u.     2.862 eV
 166( 0) :     0.110662 a.u.     3.011 eV
 167( 0) :     0.119971 a.u.     3.265 eV
 168( 0) :     0.121581 a.u.     3.308 eV
 169( 0) :     0.128631 a.u.     3.500 eV
 170( 0) :     0.131515 a.u.     3.579 eV
 171( 0) :     0.136411 a.u.     3.712 eV
 172( 0) :     0.139008 a.u.     3.783 eV
 173( 0) :     0.142033 a.u.     3.865 eV
 174( 0) :     0.148028 a.u.     4.028 eV
 175( 0) :     0.150468 a.u.     4.094 eV
 176( 0) :     0.155956 a.u.     4.244 eV
 177( 0) :     0.168148 a.u.     4.576 eV
 178( 0) :     0.169182 a.u.     4.604 eV
 179( 0) :     0.191492 a.u.     5.211 eV
 180( 0) :     0.194316 a.u.     5.288 eV
 181( 0) :     0.202956 a.u.     5.523 eV
 182( 0) :     0.209539 a.u.     5.702 eV
 183( 0) :     0.214514 a.u.     5.837 eV
 184( 0) :     0.216209 a.u.     5.883 eV
 185( 0) :     0.223294 a.u.     6.076 eV
 186( 0) :     0.236088 a.u.     6.424 eV
 187( 0) :     0.238910 a.u.     6.501 eV
 188( 0) :     0.246438 a.u.     6.706 eV
 189( 0) :     0.249541 a.u.     6.790 eV
 190( 0) :     0.251800 a.u.     6.852 eV
 191( 0) :     0.257577 a.u.     7.009 eV
 192( 0) :     0.259806 a.u.     7.070 eV
 193( 0) :     0.262170 a.u.     7.134 eV
 194( 0) :     0.263234 a.u.     7.163 eV
 195( 0) :     0.272633 a.u.     7.419 eV
 196( 0) :     0.274990 a.u.     7.483 eV
 197( 0) :     0.277309 a.u.     7.546 eV
 198( 0) :     0.282970 a.u.     7.700 eV
 199( 0) :     0.293093 a.u.     7.975 eV
 200( 0) :     0.304657 a.u.     8.290 eV
 201( 0) :     0.305793 a.u.     8.321 eV
 202( 0) :     0.312420 a.u.     8.501 eV
 203( 0) :     0.318736 a.u.     8.673 eV
 204( 0) :     0.322215 a.u.     8.768 eV
 205( 0) :     0.323504 a.u.     8.803 eV
 206( 0) :     0.328115 a.u.     8.928 eV
 207( 0) :     0.330686 a.u.     8.998 eV
 208( 0) :     0.333709 a.u.     9.081 eV
 209( 0) :     0.335855 a.u.     9.139 eV
 210( 0) :     0.340316 a.u.     9.260 eV
 211( 0) :     0.347791 a.u.     9.464 eV
 212( 0) :     0.349933 a.u.     9.522 eV
 213( 0) :     0.353736 a.u.     9.626 eV
 214( 0) :     0.361855 a.u.     9.847 eV
 215( 0) :     0.362799 a.u.     9.872 eV
 216( 0) :     0.364223 a.u.     9.911 eV
 217( 0) :     0.375285 a.u.    10.212 eV
 218( 0) :     0.381480 a.u.    10.381 eV
 219( 0) :     0.392100 a.u.    10.670 eV
 220( 0) :     0.394928 a.u.    10.747 eV
 221( 0) :     0.397573 a.u.    10.819 eV
 222( 0) :     0.407941 a.u.    11.101 eV
 223( 0) :     0.411434 a.u.    11.196 eV
 224( 0) :     0.420882 a.u.    11.453 eV
 225( 0) :     0.423410 a.u.    11.522 eV
 226( 0) :     0.428957 a.u.    11.673 eV
 227( 0) :     0.435696 a.u.    11.856 eV
 228( 0) :     0.442775 a.u.    12.049 eV
 229( 0) :     0.445550 a.u.    12.124 eV
 230( 0) :     0.448780 a.u.    12.212 eV
 231( 0) :     0.456218 a.u.    12.414 eV
 232( 0) :     0.458268 a.u.    12.470 eV
 233( 0) :     0.463995 a.u.    12.626 eV
 234( 0) :     0.465494 a.u.    12.667 eV
 235( 0) :     0.473127 a.u.    12.874 eV
 236( 0) :     0.477249 a.u.    12.987 eV
 237( 0) :     0.480543 a.u.    13.076 eV
 238( 0) :     0.484007 a.u.    13.170 eV
 239( 0) :     0.489943 a.u.    13.332 eV
 240( 0) :     0.495322 a.u.    13.478 eV
 241( 0) :     0.502455 a.u.    13.673 eV
 242( 0) :     0.509682 a.u.    13.869 eV
 243( 0) :     0.515382 a.u.    14.024 eV
 244( 0) :     0.518668 a.u.    14.114 eV
 245( 0) :     0.521644 a.u.    14.195 eV
 246( 0) :     0.526006 a.u.    14.313 eV
 247( 0) :     0.530310 a.u.    14.430 eV
 248( 0) :     0.533039 a.u.    14.505 eV
 249( 0) :     0.538347 a.u.    14.649 eV
 250( 0) :     0.540477 a.u.    14.707 eV
 251( 0) :     0.544349 a.u.    14.812 eV
 252( 0) :     0.549328 a.u.    14.948 eV
 253( 0) :     0.557595 a.u.    15.173 eV
 254( 0) :     0.566009 a.u.    15.402 eV
 255( 0) :     0.573906 a.u.    15.617 eV
 256( 0) :     0.584007 a.u.    15.892 eV
 257( 0) :     0.644689 a.u.    17.543 eV
 258( 0) :     0.653285 a.u.    17.777 eV
 259( 0) :     0.663752 a.u.    18.062 eV
 260( 0) :     0.688073 a.u.    18.723 eV
 261( 0) :     0.696946 a.u.    18.965 eV
 262( 0) :     0.702720 a.u.    19.122 eV
 263( 0) :     0.706913 a.u.    19.236 eV
 264( 0) :     0.718453 a.u.    19.550 eV
 265( 0) :     0.729068 a.u.    19.839 eV
 266( 0) :     0.739497 a.u.    20.123 eV
 267( 0) :     0.745053 a.u.    20.274 eV
 268( 0) :     0.761064 a.u.    20.710 eV
 269( 0) :     0.763856 a.u.    20.786 eV
 270( 0) :     0.767277 a.u.    20.879 eV
 271( 0) :     0.773785 a.u.    21.056 eV
 272( 0) :     0.802379 a.u.    21.834 eV
 273( 0) :     0.813132 a.u.    22.126 eV
 274( 0) :     0.824605 a.u.    22.439 eV
 275( 0) :     0.828285 a.u.    22.539 eV
 276( 0) :     0.840104 a.u.    22.860 eV
 277( 0) :     0.868573 a.u.    23.635 eV
 278( 0) :     0.872131 a.u.    23.732 eV
 279( 0) :     0.880423 a.u.    23.958 eV
 280( 0) :     0.893098 a.u.    24.302 eV
 281( 0) :     0.898321 a.u.    24.445 eV
 282( 0) :     0.908552 a.u.    24.723 eV
 283( 0) :     0.916552 a.u.    24.941 eV
 284( 0) :     0.927872 a.u.    25.249 eV
 285( 0) :     0.934854 a.u.    25.439 eV
 286( 0) :     0.965218 a.u.    26.265 eV
 287( 0) :     0.990072 a.u.    26.941 eV
 288( 0) :     1.012599 a.u.    27.554 eV
 289( 0) :     1.036498 a.u.    28.205 eV
 290( 0) :     1.096632 a.u.    29.841 eV
 291( 0) :     1.112618 a.u.    30.276 eV
 292( 0) :     1.138436 a.u.    30.978 eV
 293( 0) :     1.192270 a.u.    32.443 eV
 294( 0) :     1.208083 a.u.    32.874 eV
 295( 0) :     1.228043 a.u.    33.417 eV
 296( 0) :     1.237637 a.u.    33.678 eV
 297( 0) :     1.247234 a.u.    33.939 eV
 298( 0) :     1.270641 a.u.    34.576 eV
 299( 0) :     1.298239 a.u.    35.327 eV
 300( 0) :     1.304635 a.u.    35.501 eV
 301( 0) :     1.307632 a.u.    35.582 eV
 302( 0) :     1.310323 a.u.    35.656 eV
 303( 0) :     1.322174 a.u.    35.978 eV
 304( 0) :     1.331403 a.u.    36.229 eV
 305( 0) :     1.335741 a.u.    36.347 eV
 306( 0) :     1.339341 a.u.    36.445 eV
 307( 0) :     1.346567 a.u.    36.642 eV
 308( 0) :     1.356559 a.u.    36.914 eV
 309( 0) :     1.364244 a.u.    37.123 eV
 310( 0) :     1.373386 a.u.    37.372 eV
 311( 0) :     1.383330 a.u.    37.642 eV
 312( 0) :     1.393661 a.u.    37.923 eV
 313( 0) :     1.398134 a.u.    38.045 eV
 314( 0) :     1.403319 a.u.    38.186 eV
 315( 0) :     1.405478 a.u.    38.245 eV
 316( 0) :     1.412892 a.u.    38.447 eV
 317( 0) :     1.417364 a.u.    38.568 eV
 318( 0) :     1.417694 a.u.    38.577 eV
 319( 0) :     1.426115 a.u.    38.807 eV
 320( 0) :     1.426770 a.u.    38.824 eV
 321( 0) :     1.431632 a.u.    38.957 eV
 322( 0) :     1.433046 a.u.    38.995 eV
 323( 0) :     1.435732 a.u.    39.068 eV
 324( 0) :     1.437697 a.u.    39.122 eV
 325( 0) :     1.440242 a.u.    39.191 eV
 326( 0) :     1.441184 a.u.    39.217 eV
 327( 0) :     1.444307 a.u.    39.302 eV
 328( 0) :     1.448035 a.u.    39.403 eV
 329( 0) :     1.452710 a.u.    39.530 eV
 330( 0) :     1.456149 a.u.    39.624 eV
 331( 0) :     1.459682 a.u.    39.720 eV
 332( 0) :     1.461494 a.u.    39.769 eV
 333( 0) :     1.465175 a.u.    39.869 eV
 334( 0) :     1.467746 a.u.    39.939 eV
 335( 0) :     1.470371 a.u.    40.011 eV
 336( 0) :     1.473985 a.u.    40.109 eV
 337( 0) :     1.475920 a.u.    40.162 eV
 338( 0) :     1.478297 a.u.    40.227 eV
 339( 0) :     1.479113 a.u.    40.249 eV
 340( 0) :     1.481210 a.u.    40.306 eV
 341( 0) :     1.486770 a.u.    40.457 eV
 342( 0) :     1.488917 a.u.    40.515 eV
 343( 0) :     1.489473 a.u.    40.531 eV
 344( 0) :     1.490448 a.u.    40.557 eV
 345( 0) :     1.494113 a.u.    40.657 eV
 346( 0) :     1.495468 a.u.    40.694 eV
 347( 0) :     1.496677 a.u.    40.727 eV
 348( 0) :     1.497515 a.u.    40.749 eV
 349( 0) :     1.499756 a.u.    40.810 eV
 350( 0) :     1.501752 a.u.    40.865 eV
 351( 0) :     1.505630 a.u.    40.970 eV
 352( 0) :     1.507614 a.u.    41.024 eV
 353( 0) :     1.509404 a.u.    41.073 eV
 354( 0) :     1.509703 a.u.    41.081 eV
 355( 0) :     1.510952 a.u.    41.115 eV
 356( 0) :     1.512288 a.u.    41.151 eV
 357( 0) :     1.513139 a.u.    41.175 eV
 358( 0) :     1.515141 a.u.    41.229 eV
 359( 0) :     1.515546 a.u.    41.240 eV
 360( 0) :     1.517039 a.u.    41.281 eV
 361( 0) :     1.519928 a.u.    41.359 eV
 362( 0) :     1.522076 a.u.    41.418 eV
 363( 0) :     1.522865 a.u.    41.439 eV
 364( 0) :     1.524986 a.u.    41.497 eV
 365( 0) :     1.526139 a.u.    41.528 eV
 366( 0) :     1.527981 a.u.    41.578 eV
 367( 0) :     1.529619 a.u.    41.623 eV
 368( 0) :     1.530812 a.u.    41.656 eV
 369( 0) :     1.532046 a.u.    41.689 eV
 370( 0) :     1.533401 a.u.    41.726 eV
 371( 0) :     1.535752 a.u.    41.790 eV
 372( 0) :     1.538333 a.u.    41.860 eV
 373( 0) :     1.539627 a.u.    41.895 eV
 374( 0) :     1.542156 a.u.    41.964 eV
 375( 0) :     1.545090 a.u.    42.044 eV
 376( 0) :     1.546320 a.u.    42.078 eV
 377( 0) :     1.549779 a.u.    42.172 eV
 378( 0) :     1.553008 a.u.    42.260 eV
 379( 0) :     1.557940 a.u.    42.394 eV
 380( 0) :     1.559937 a.u.    42.448 eV
 381( 0) :     1.561900 a.u.    42.501 eV
 382( 0) :     1.563649 a.u.    42.549 eV
 383( 0) :     1.563888 a.u.    42.556 eV
 384( 0) :     1.569117 a.u.    42.698 eV
 385( 0) :     1.570997 a.u.    42.749 eV
 386( 0) :     1.573773 a.u.    42.825 eV
 387( 0) :     1.575244 a.u.    42.865 eV
 388( 0) :     1.576209 a.u.    42.891 eV
 389( 0) :     1.579527 a.u.    42.981 eV
 390( 0) :     1.581411 a.u.    43.032 eV
 391( 0) :     1.585700 a.u.    43.149 eV
 392( 0) :     1.587032 a.u.    43.185 eV
 393( 0) :     1.591156 a.u.    43.298 eV
 394( 0) :     1.592132 a.u.    43.324 eV
 395( 0) :     1.595192 a.u.    43.407 eV
 396( 0) :     1.598964 a.u.    43.510 eV
 397( 0) :     1.601889 a.u.    43.590 eV
 398( 0) :     1.604352 a.u.    43.657 eV
 399( 0) :     1.610749 a.u.    43.831 eV
 400( 0) :     1.612484 a.u.    43.878 eV
 401( 0) :     1.618570 a.u.    44.044 eV
 402( 0) :     1.621313 a.u.    44.118 eV
 403( 0) :     1.624186 a.u.    44.196 eV
 404( 0) :     1.627506 a.u.    44.287 eV
 405( 0) :     1.633159 a.u.    44.441 eV
 406( 0) :     1.636450 a.u.    44.530 eV
 407( 0) :     1.643210 a.u.    44.714 eV
 408( 0) :     1.648157 a.u.    44.849 eV
 409( 0) :     1.656847 a.u.    45.085 eV
 410( 0) :     1.661225 a.u.    45.204 eV
 411( 0) :     1.668162 a.u.    45.393 eV
 412( 0) :     1.670204 a.u.    45.449 eV
 413( 0) :     1.684651 a.u.    45.842 eV
 414( 0) :     1.691142 a.u.    46.018 eV
 415( 0) :     1.697895 a.u.    46.202 eV
 416( 0) :     1.709028 a.u.    46.505 eV
 417( 0) :     1.717842 a.u.    46.745 eV
 418( 0) :     1.725322 a.u.    46.948 eV
 419( 0) :     1.737516 a.u.    47.280 eV
 420( 0) :     1.745970 a.u.    47.510 eV
 421( 0) :     1.757066 a.u.    47.812 eV
 422( 0) :     1.765839 a.u.    48.051 eV
 423( 0) :     1.779281 a.u.    48.417 eV
 424( 0) :     1.781113 a.u.    48.467 eV
 425( 0) :     1.783682 a.u.    48.536 eV
 426( 0) :     1.797930 a.u.    48.924 eV
 427( 0) :     1.806627 a.u.    49.161 eV
 428( 0) :     1.814822 a.u.    49.384 eV
 429( 0) :     1.837980 a.u.    50.014 eV
 430( 0) :     1.850241 a.u.    50.348 eV
 431( 0) :     1.862081 a.u.    50.670 eV
 432( 0) :     1.875556 a.u.    51.036 eV
 433( 0) :     1.896572 a.u.    51.608 eV
 434( 0) :     1.910239 a.u.    51.980 eV
 435( 0) :     1.935266 a.u.    52.661 eV
 436( 0) :     1.954552 a.u.    53.186 eV
 437( 0) :     2.030111 a.u.    55.242 eV
 438( 0) :     2.106326 a.u.    57.316 eV
 439( 0) :     2.175071 a.u.    59.187 eV
 440( 0) :     2.236113 a.u.    60.848 eV
 441( 0) :     2.269894 a.u.    61.767 eV
 442( 0) :     2.286039 a.u.    62.206 eV
 443( 0) :     2.308691 a.u.    62.823 eV
 444( 0) :     2.335871 a.u.    63.562 eV
 445( 0) :     2.362618 a.u.    64.290 eV
 446( 0) :     2.378193 a.u.    64.714 eV
 447( 0) :     2.389637 a.u.    65.025 eV
 448( 0) :     2.407895 a.u.    65.522 eV
 449( 0) :     2.436435 a.u.    66.299 eV
 450( 0) :     2.465384 a.u.    67.086 eV
 451( 0) :     2.470629 a.u.    67.229 eV
 452( 0) :     2.491903 a.u.    67.808 eV
 453( 0) :     2.521799 a.u.    68.622 eV
 454( 0) :     2.546678 a.u.    69.299 eV
 455( 0) :     2.564846 a.u.    69.793 eV
 456( 0) :     2.652356 a.u.    72.174 eV
 457( 0) :     2.819996 a.u.    76.736 eV
 458( 0) :     2.840724 a.u.    77.300 eV
 459( 0) :     2.853797 a.u.    77.656 eV
 460( 0) :     2.860697 a.u.    77.844 eV
 461( 0) :     2.871981 a.u.    78.151 eV
 462( 0) :     2.895401 a.u.    78.788 eV
 463( 0) :     2.914249 a.u.    79.301 eV
 464( 0) :     2.925758 a.u.    79.614 eV
 465( 0) :    23.826370 a.u.   648.349 eV
 466( 0) :    23.893286 a.u.   650.169 eV
 467( 0) :    24.000466 a.u.   653.086 eV
 468( 0) :    24.330186 a.u.   662.058 eV
 469( 0) :    24.375828 a.u.   663.300 eV
 470( 0) :    24.489400 a.u.   666.390 eV
 471( 0) :    24.881997 a.u.   677.074 eV
 472( 0) :    24.994682 a.u.   680.140 eV
 473( 0) :    25.089236 a.u.   682.713 eV
 474( 0) :    25.192026 a.u.   685.510 eV
 475( 0) :    25.327348 a.u.   689.192 eV
 476( 0) :    25.428828 a.u.   691.954 eV
 477( 0) :    25.480307 a.u.   693.354 eV
 478( 0) :    25.598352 a.u.   696.567 eV
 479( 0) :    25.821316 a.u.   702.634 eV
 480( 0) :    25.952733 a.u.   706.210 eV
 481( 0) :    26.018106 a.u.   707.989 eV
 482( 0) :    26.179222 a.u.   712.373 eV
 483( 0) :    26.260303 a.u.   714.579 eV
 484( 0) :    26.464881 a.u.   720.146 eV
 485( 0) :    26.513215 a.u.   721.461 eV
 486( 0) :    26.672122 a.u.   725.785 eV
 487( 0) :    26.778647 a.u.   728.684 eV
 488( 0) :    26.877349 a.u.   731.370 eV
 489( 0) :    26.934599 a.u.   732.928 eV
 490( 0) :    27.123104 a.u.   738.057 eV
 491( 0) :    27.199661 a.u.   740.140 eV
 492( 0) :    27.473568 a.u.   747.594 eV
 493( 0) :    27.590269 a.u.   750.769 eV
 494( 0) :    27.847825 a.u.   757.778 eV
 495( 0) :    27.986518 a.u.   761.552 eV
 496( 0) :    28.279329 a.u.   769.520 eV
 497( 0) :    28.388395 a.u.   772.488 eV
 498( 0) :    28.672292 a.u.   780.213 eV
 499( 0) :    28.847405 a.u.   784.978 eV
 500( 0) :    29.974294 a.u.   815.642 eV
 501( 0) :    43.903824 a.u.  1194.684 eV
 502( 0) :    43.983882 a.u.  1196.862 eV
 503( 0) :    44.023741 a.u.  1197.947 eV
 504( 0) :    44.046021 a.u.  1198.553 eV
 505( 0) :    44.075710 a.u.  1199.361 eV
 506( 0) :    44.090326 a.u.  1199.759 eV
 507( 0) :    44.112272 a.u.  1200.356 eV
 508( 0) :    44.124759 a.u.  1200.696 eV
 509( 0) :    44.143080 a.u.  1201.194 eV
 510( 0) :    44.156210 a.u.  1201.552 eV
 511( 0) :    44.177648 a.u.  1202.135 eV
 512( 0) :    44.288934 a.u.  1205.163 eV
 513( 0) :   205.093645 a.u.  5580.882 eV
 514( 0) :   205.128146 a.u.  5581.821 eV
 515( 0) :   205.140423 a.u.  5582.155 eV
 516( 0) :   205.149305 a.u.  5582.396 eV
 517( 0) :   205.166593 a.u.  5582.867 eV
 518( 0) :   205.169930 a.u.  5582.958 eV
 519( 0) :   205.181623 a.u.  5583.276 eV
 520( 0) :   205.185783 a.u.  5583.389 eV
 521( 0) :   205.190770 a.u.  5583.525 eV
 522( 0) :   205.197884 a.u.  5583.718 eV
 523( 0) :   205.206415 a.u.  5583.950 eV
 524( 0) :   205.240057 a.u.  5584.866 eV
-------
TIMINGS
-------

Total SCF time: 0 days 0 hours 5 min 24 sec 

Total time                  ....     324.359 sec
Sum of individual times     ....     291.824 sec  ( 90.0%)

Fock matrix formation       ....     275.422 sec  ( 84.9%)
  Split-RI-J                ....      84.336 sec  ( 30.6% of F)
  XC integration            ....     178.644 sec  ( 64.9% of F)
    Basis function eval.    ....      25.663 sec  ( 14.4% of XC)
    Density eval.           ....      73.230 sec  ( 41.0% of XC)
    XC-Functional eval.     ....       4.730 sec  (  2.6% of XC)
    XC-Potential eval.      ....      57.130 sec  ( 32.0% of XC)
Diagonalization             ....       1.848 sec  (  0.6%)
Density matrix formation    ....       0.377 sec  (  0.1%)
Population analysis         ....       0.657 sec  (  0.2%)
Initial guess               ....       0.112 sec  (  0.0%)
Orbital Transformation      ....       0.442 sec  (  0.1%)
Orbital Orthonormalization  ....       0.092 sec  (  0.0%)
DIIS solution               ....       0.000 sec  (  0.0%)
Grid generation             ....      12.963 sec  (  4.0%)

Maximum memory used throughout the entire SCF-calculation: 486.9 MB

-------------------------   --------------------
FINAL SINGLE POINT ENERGY     -2674.153048151682
-------------------------   --------------------

                                *** OPTIMIZATION RUN DONE ***

                            ***************************************
                            *     ORCA property calculations      *
                            ***************************************

                                    ---------------------
                                    Active property flags
                                    ---------------------
   (+) Dipole Moment


------------------------------------------------------------------------------
                       ORCA ELECTRIC PROPERTIES CALCULATION
------------------------------------------------------------------------------

Dipole Moment Calculation                       ... on
Quadrupole Moment Calculation                   ... off
Polarizability Calculation                      ... off
GBWName                                         ... pbe.gbw
Electron density                                ... pbe.scfp
The origin for moment calculation is the CENTER OF MASS  = (14.183330, 16.096856 15.214684)

-------------
DIPOLE MOMENT
-------------
                                X             Y             Z
Electronic contribution:     -2.83940      25.89741     -14.37227
Nuclear contribution   :      2.58849     -26.07459      14.31090
                        -----------------------------------------
Total Dipole Moment    :     -0.25091      -0.17719      -0.06137
                        -----------------------------------------
Magnitude (a.u.)       :      0.31324
Magnitude (Debye)      :      0.79618



--------------------
Rotational spectrum 
--------------------
 
Rotational constants in cm-1:     0.001606     0.001206     0.001074 
Rotational constants in MHz :    48.133357    36.141325    32.209966 

 Dipole components along the rotational axes: 
x,y,z [a.u.] :    -0.107377    -0.045700     0.290686 
x,y,z [Debye]:    -0.272930    -0.116161     0.738864 

 

Timings for individual modules:

Sum of individual times         ...     8602.091 sec (= 143.368 min)
GTO integral calculation        ...      219.268 sec (=   3.654 min)   2.5 %
SCF iterations                  ...     6810.386 sec (= 113.506 min)  79.2 %
SCF Gradient evaluation         ...     1558.688 sec (=  25.978 min)  18.1 %
Geometry relaxation             ...       13.749 sec (=   0.229 min)   0.2 %
                             ****ORCA TERMINATED NORMALLY****
TOTAL RUN TIME: 0 days 2 hours 23 minutes 35 seconds 480 msec
