
                                 *****************
                                 * O   R   C   A *
                                 *****************

                                            #,                                       
                                            ###                                      
                                            ####                                     
                                            #####                                    
                                            ######                                   
                                           ########,                                 
                                     ,,################,,,,,                         
                               ,,#################################,,                 
                          ,,##########################################,,             
                       ,#########################################, ''#####,          
                    ,#############################################,,   '####,        
                  ,##################################################,,,,####,       
                ,###########''''           ''''###############################       
              ,#####''   ,,,,##########,,,,          '''####'''          '####       
            ,##' ,,,,###########################,,,                        '##       
           ' ,,###''''                  '''############,,,                           
         ,,##''                                '''############,,,,        ,,,,,,###''
      ,#''                                            '''#######################'''  
     '                                                          ''''####''''         
             ,#######,   #######,   ,#######,      ##                                
            ,#'     '#,  ##    ##  ,#'     '#,    #''#        ######   ,####,        
            ##       ##  ##   ,#'  ##            #'  '#       #        #'  '#        
            ##       ##  #######   ##           ,######,      #####,   #    #        
            '#,     ,#'  ##    ##  '#,     ,#' ,#      #,         ##   #,  ,#        
             '#######'   ##     ##  '#######'  #'      '#     #####' # '####'        



                  #######################################################
                  #                        -***-                        #
                  #          Department of theory and spectroscopy      #
                  #    Directorship and core code : Frank Neese         #
                  #        Max Planck Institute fuer Kohlenforschung    #
                  #                Kaiser Wilhelm Platz 1               #
                  #                 D-45470 Muelheim/Ruhr               #
                  #                      Germany                        #
                  #                                                     #
                  #                  All rights reserved                #
                  #                        -***-                        #
                  #######################################################


                         Program Version 5.0.3 -  RELEASE  -


 With contributions from (in alphabetic order):
   Daniel Aravena         : Magnetic Suceptibility
   Michael Atanasov       : Ab Initio Ligand Field Theory (pilot matlab implementation)
   Alexander A. Auer      : GIAO ZORA, VPT2 properties, NMR spectrum
   Ute Becker             : Parallelization
   Giovanni Bistoni       : ED, misc. LED, open-shell LED, HFLD
   Martin Brehm           : Molecular dynamics
   Dmytro Bykov           : SCF Hessian
   Vijay G. Chilkuri      : MRCI spin determinant printing, contributions to CSF-ICE
   Dipayan Datta          : RHF DLPNO-CCSD density
   Achintya Kumar Dutta   : EOM-CC, STEOM-CC
   Dmitry Ganyushin       : Spin-Orbit,Spin-Spin,Magnetic field MRCI
   Miquel Garcia          : C-PCM and meta-GGA Hessian, CC/C-PCM, Gaussian charge scheme
   Yang Guo               : DLPNO-NEVPT2, F12-NEVPT2, CIM, IAO-localization
   Andreas Hansen         : Spin unrestricted coupled pair/coupled cluster methods
   Benjamin Helmich-Paris : MC-RPA, TRAH-SCF, COSX integrals
   Lee Huntington         : MR-EOM, pCC
   Robert Izsak           : Overlap fitted RIJCOSX, COSX-SCS-MP3, EOM
   Marcus Kettner         : VPT2
   Christian Kollmar      : KDIIS, OOCD, Brueckner-CCSD(T), CCSD density, CASPT2, CASPT2-K
   Simone Kossmann        : Meta GGA functionals, TD-DFT gradient, OOMP2, MP2 Hessian
   Martin Krupicka        : Initial AUTO-CI
   Lucas Lang             : DCDCAS
   Marvin Lechner         : AUTO-CI (C++ implementation), FIC-MRCC
   Dagmar Lenk            : GEPOL surface, SMD
   Dimitrios Liakos       : Extrapolation schemes; Compound Job, initial MDCI parallelization
   Dimitrios Manganas     : Further ROCIS development; embedding schemes
   Dimitrios Pantazis     : SARC Basis sets
   Anastasios Papadopoulos: AUTO-CI, single reference methods and gradients
   Taras Petrenko         : DFT Hessian,TD-DFT gradient, ASA, ECA, R-Raman, ABS, FL, XAS/XES, NRVS
   Peter Pinski           : DLPNO-MP2, DLPNO-MP2 Gradient
   Christoph Reimann      : Effective Core Potentials
   Marius Retegan         : Local ZFS, SOC
   Christoph Riplinger    : Optimizer, TS searches, QM/MM, DLPNO-CCSD(T), (RO)-DLPNO pert. Triples
   Tobias Risthaus        : Range-separated hybrids, TD-DFT gradient, RPA, STAB
   Michael Roemelt        : Original ROCIS implementation
   Masaaki Saitow         : Open-shell DLPNO-CCSD energy and density
   Barbara Sandhoefer     : DKH picture change effects
   Avijit Sen             : IP-ROCIS
   Kantharuban Sivalingam : CASSCF convergence, NEVPT2, FIC-MRCI
   Bernardo de Souza      : ESD, SOC TD-DFT
   Georgi Stoychev        : AutoAux, RI-MP2 NMR, DLPNO-MP2 response
   Willem Van den Heuvel  : Paramagnetic NMR
   Boris Wezisla          : Elementary symmetry handling
   Frank Wennmohs         : Technical directorship


 We gratefully acknowledge several colleagues who have allowed us to
 interface, adapt or use parts of their codes:
   Stefan Grimme, W. Hujo, H. Kruse, P. Pracht,  : VdW corrections, initial TS optimization,
                  C. Bannwarth, S. Ehlert          DFT functionals, gCP, sTDA/sTD-DF
   Ed Valeev, F. Pavosevic, A. Kumar             : LibInt (2-el integral package), F12 methods
   Garnet Chan, S. Sharma, J. Yang, R. Olivares  : DMRG
   Ulf Ekstrom                                   : XCFun DFT Library
   Mihaly Kallay                                 : mrcc  (arbitrary order and MRCC methods)
   Jiri Pittner, Ondrej Demel                    : Mk-CCSD
   Frank Weinhold                                : gennbo (NPA and NBO analysis)
   Christopher J. Cramer and Donald G. Truhlar   : smd solvation model
   Lars Goerigk                                  : TD-DFT with DH, B97 family of functionals
   V. Asgeirsson, H. Jonsson                     : NEB implementation
   FAccTs GmbH                                   : IRC, NEB, NEB-TS, DLPNO-Multilevel, CI-OPT
                                                   MM, QMMM, 2- and 3-layer-ONIOM, Crystal-QMMM,
                                                   LR-CPCM, SF, NACMEs, symmetry and pop. for TD-DFT,
                                                   nearIR, NL-DFT gradient (VV10), updates on ESD,
                                                   ML-optimized integration grids
   S Lehtola, MJT Oliveira, MAL Marques          : LibXC Library
   Liviu Ungur et al                             : ANISO software


 Your calculation uses the libint2 library for the computation of 2-el integrals
 For citations please refer to: http://libint.valeyev.net

 Your ORCA version has been built with support for libXC version: 5.1.0
 For citations please refer to: https://tddft.org/programs/libxc/

 This ORCA versions uses:
   CBLAS   interface :  Fast vector & matrix operations
   LAPACKE interface :  Fast linear algebra routines
   SCALAPACK package :  Parallel linear algebra routines
   Shared memory     :  Shared parallel matrices
   BLAS/LAPACK       :  OpenBLAS 0.3.15  USE64BITINT DYNAMIC_ARCH NO_AFFINITY Haswell SINGLE_THREADED
        Core in use  :  Haswell
   Copyright (c) 2011-2014, The OpenBLAS Project




***************************************
The coordinates will be read from file: pbe.xyz
***************************************


================================================================================

cite the ECPs for Au [Def2-ECP] as follows:
Ce-Yb(ecp-28): M. Dolg, H. Stoll, H.Preuss, J. Chem. Phys., 1989, 90, 1730-1734.
Y-Cd(ecp-28), Hf-Hg(ecp-46): D. Andrae,U. Haeussermann, M. Dolg, H. Stoll, H. Preuss, Theor. Chim. Acta, 1990, 77, 123-141.
In-Sb(ecp-28), Tl-Bi(ecp-46): B. Metz, H. Stoll, M. Dolg, J. Chem. Phys., 2000, 113, 2563-2569.
Te-Xe(ecp-28), Po-Rn(ecp-46): K. A. Peterson, D. Figgen, E. Goll, H. Stoll, M. Dolg, J. Chem. Phys., 2003, 119, 11113-11123.
Rb(ecp-28), Cs(ecp-46): T. Leininger, A. Nicklass, W. Kuechle, H. Stoll, M. Dolg, A. Bergner, Chem. Phys. Lett., 1996, 255, 274-280.
Sr(ecp-28), Ba(ecp-46): M. Kaupp, P. V. Schleyer, H. Stoll and H. Preuss, J. Chem. Phys., 1991, 94, 1360-1366.
La(ecp-46): M. Dolg, H. Stoll, A. Savin, H. Preuss, Theor. Chim. Acta, 1989, 75, 173-194.
Lu(ecp-28): X. Cao, M. Dolg, J. Chem. Phys., 2001, 115, 7348-7355.

ECP parameters for Au [Def2-ECP] have been obtained from:
TURBOMOLE (7.0.2)

----- Orbital basis set information -----
Your calculation utilizes the basis: def2-TZVP
   F. Weigend and R. Ahlrichs, Phys. Chem. Chem. Phys. 7, 3297 (2005).

----- AuxJ basis set information -----
Your calculation utilizes the auxiliary basis: def2/J
   F. Weigend, Phys. Chem. Chem. Phys. 8, 1057 (2006).

================================================================================
                                        WARNINGS
                       Please study these warnings very carefully!
================================================================================

Using LibXC functional ID 497 : Re-regularized SCAN exchange by Furness et al
[ 1]  J. W. Furness, A. D. Kaplan, J. Ning, J. P. Perdew, and J. Sun, J. Phys. Chem. Lett. 11, 8208 (2020)
[ 2]  J. W. Furness, A. D. Kaplan, J. Ning, J. P. Perdew, and J. Sun, J. Phys. Chem. Lett. 11, 9248 (2020)
Using LibXC functional ID 498 : Re-regularized SCAN correlation by Furness et al
[ 1]  J. W. Furness, A. D. Kaplan, J. Ning, J. P. Perdew, and J. Sun, J. Phys. Chem. Lett. 11, 8208 (2020)
[ 2]  J. W. Furness, A. D. Kaplan, J. Ning, J. P. Perdew, and J. Sun, J. Phys. Chem. Lett. 11, 9248 (2020)
Using LibXC functional ID 497 : Re-regularized SCAN exchange by Furness et al
[ 1]  J. W. Furness, A. D. Kaplan, J. Ning, J. P. Perdew, and J. Sun, J. Phys. Chem. Lett. 11, 8208 (2020)
[ 2]  J. W. Furness, A. D. Kaplan, J. Ning, J. P. Perdew, and J. Sun, J. Phys. Chem. Lett. 11, 9248 (2020)
Using LibXC functional ID 498 : Re-regularized SCAN correlation by Furness et al
[ 1]  J. W. Furness, A. D. Kaplan, J. Ning, J. P. Perdew, and J. Sun, J. Phys. Chem. Lett. 11, 8208 (2020)
[ 2]  J. W. Furness, A. D. Kaplan, J. Ning, J. P. Perdew, and J. Sun, J. Phys. Chem. Lett. 11, 9248 (2020)

WARNING: your system is open-shell and RHF/RKS was chosen
  ===> : WILL SWITCH to UHF/UKS


INFO   : the flag for use of the SHARK integral package has been found!



***************************************
The coordinates will be read from file: pbe.xyz
***************************************


================================================================================

cite the ECPs for Au [Def2-ECP] as follows:
Ce-Yb(ecp-28): M. Dolg, H. Stoll, H.Preuss, J. Chem. Phys., 1989, 90, 1730-1734.
Y-Cd(ecp-28), Hf-Hg(ecp-46): D. Andrae,U. Haeussermann, M. Dolg, H. Stoll, H. Preuss, Theor. Chim. Acta, 1990, 77, 123-141.
In-Sb(ecp-28), Tl-Bi(ecp-46): B. Metz, H. Stoll, M. Dolg, J. Chem. Phys., 2000, 113, 2563-2569.
Te-Xe(ecp-28), Po-Rn(ecp-46): K. A. Peterson, D. Figgen, E. Goll, H. Stoll, M. Dolg, J. Chem. Phys., 2003, 119, 11113-11123.
Rb(ecp-28), Cs(ecp-46): T. Leininger, A. Nicklass, W. Kuechle, H. Stoll, M. Dolg, A. Bergner, Chem. Phys. Lett., 1996, 255, 274-280.
Sr(ecp-28), Ba(ecp-46): M. Kaupp, P. V. Schleyer, H. Stoll and H. Preuss, J. Chem. Phys., 1991, 94, 1360-1366.
La(ecp-46): M. Dolg, H. Stoll, A. Savin, H. Preuss, Theor. Chim. Acta, 1989, 75, 173-194.
Lu(ecp-28): X. Cao, M. Dolg, J. Chem. Phys., 2001, 115, 7348-7355.

ECP parameters for Au [Def2-ECP] have been obtained from:
TURBOMOLE (7.0.2)

----- Orbital basis set information -----
Your calculation utilizes the basis: def2-TZVP
   F. Weigend and R. Ahlrichs, Phys. Chem. Chem. Phys. 7, 3297 (2005).

----- AuxJ basis set information -----
Your calculation utilizes the auxiliary basis: def2/J
   F. Weigend, Phys. Chem. Chem. Phys. 8, 1057 (2006).

================================================================================
                                        WARNINGS
                       Please study these warnings very carefully!
================================================================================

Using LibXC functional ID 497 : Re-regularized SCAN exchange by Furness et al
[ 1]  J. W. Furness, A. D. Kaplan, J. Ning, J. P. Perdew, and J. Sun, J. Phys. Chem. Lett. 11, 8208 (2020)
[ 2]  J. W. Furness, A. D. Kaplan, J. Ning, J. P. Perdew, and J. Sun, J. Phys. Chem. Lett. 11, 9248 (2020)
Using LibXC functional ID 498 : Re-regularized SCAN correlation by Furness et al
[ 1]  J. W. Furness, A. D. Kaplan, J. Ning, J. P. Perdew, and J. Sun, J. Phys. Chem. Lett. 11, 8208 (2020)
[ 2]  J. W. Furness, A. D. Kaplan, J. Ning, J. P. Perdew, and J. Sun, J. Phys. Chem. Lett. 11, 9248 (2020)
Using LibXC functional ID 497 : Re-regularized SCAN exchange by Furness et al
[ 1]  J. W. Furness, A. D. Kaplan, J. Ning, J. P. Perdew, and J. Sun, J. Phys. Chem. Lett. 11, 8208 (2020)
[ 2]  J. W. Furness, A. D. Kaplan, J. Ning, J. P. Perdew, and J. Sun, J. Phys. Chem. Lett. 11, 9248 (2020)
Using LibXC functional ID 498 : Re-regularized SCAN correlation by Furness et al
[ 1]  J. W. Furness, A. D. Kaplan, J. Ning, J. P. Perdew, and J. Sun, J. Phys. Chem. Lett. 11, 8208 (2020)
[ 2]  J. W. Furness, A. D. Kaplan, J. Ning, J. P. Perdew, and J. Sun, J. Phys. Chem. Lett. 11, 9248 (2020)

INFO   : the flag for use of the SHARK integral package has been found!

================================================================================
                                       INPUT FILE
================================================================================
NAME = scan.inp
|  1> !R2SCAN def2-TZVP VERYSLOWCONV
|  2> !KDIIS
|  3> %scf
|  4>   AutoTRAHIter 200
|  5>   maxiter 400
|  6> end
|  7> 
|  8> %pal nprocs 6 end 
|  9> 
| 10> *xyzfile 0 5 pbe.xyz
| 11> 
| 12> $new_job
| 13> 
| 14> !R2SCAN def2-TZVP VERYSLOWCONV
| 15> !KDIIS
| 16> %scf
| 17>   AutoTRAHIter 200
| 18>   maxiter 400
| 19> end
| 20> 
| 21> 
| 22> %pal nprocs 6 end 
| 23> 
| 24> *xyzfile 0 3 pbe.xyz
| 25> 
| 26> 
| 27> 
| 28> 
| 29> 
| 30>                          ****END OF INPUT****
================================================================================


                 $$$$$$$$$$$$$$$$$$$$$$$$$$$$$$$$$$$$$$$$$$$$$$ 
                 $ THERE ARE  2 JOBS TO BE PROCESSED THIS RUN $
                 $$$$$$$$$$$$$$$$$$$$$$$$$$$$$$$$$$$$$$$$$$$$$$ 




                 $$$$$$$$$$$$$$$$  JOB NUMBER  1 $$$$$$$$$$$$$$


                       ****************************
                       * Single Point Calculation *
                       ****************************

---------------------------------
CARTESIAN COORDINATES (ANGSTROEM)
---------------------------------
  Au     6.044512    8.591653    6.234705
  Au     7.435489   10.671233    7.751588
  Au    10.008416   10.980906    7.116656
  Au     4.919076    9.892000    8.495530
  Au     6.903214    9.934216   10.527115
  Au     6.854553    7.171720   11.012690
  Au     4.563824    7.229714    9.392857
  Au     8.554973    6.179143    8.929457
  Au     6.137604    6.042183    7.396647
  Au     9.423592    8.537374    7.994075
  Fe     6.926397    8.184383    8.627569

----------------------------
CARTESIAN COORDINATES (A.U.)
----------------------------
  NO LB      ZA    FRAG     MASS         X           Y           Z
   0 Au   19.0000*   0   196.966   11.422473   16.235872   11.781885
   1 Au   19.0000*   0   196.966   14.051037   20.165707   14.648378
   2 Au   19.0000*   0   196.966   18.913165   20.750905   13.448530
   3 Au   19.0000*   0   196.966    9.295706   18.693171   16.054225
   4 Au   19.0000*   0   196.966   13.045184   18.772947   19.893364
   5 Au   19.0000*   0   196.966   12.953228   13.552587   20.810968
   6 Au   19.0000*   0   196.966    8.624377   13.662179   17.749928
   7 Au   19.0000*   0   196.966   16.166556   11.676888   16.874229
   8 Au   19.0000*   0   196.966   11.598390   11.418071   13.977638
   9 Au   19.0000*   0   196.966   17.808007   16.133299   15.106613
  10 Fe   26.0000    0    55.850   13.088993   15.466242   16.303743
* core charge reduced due to ECP

--------------------------------
INTERNAL COORDINATES (ANGSTROEM)
--------------------------------
 Au     0   0   0     0.000000000000     0.00000000     0.00000000
 Au     1   0   0     2.925816137142     0.00000000     0.00000000
 Au     2   1   0     2.668143436910   114.68121888     0.00000000
 Au     2   1   3     2.737332136667    60.10065631   189.86821970
 Au     4   2   1     2.840056654621    63.12382257   129.15176404
 Au     5   4   2     2.805268650755    95.57009544   244.14194769
 Au     6   5   4     2.806182860999    83.90903047   349.34908276
 Au     6   5   4     2.866443391846   101.82400078    82.30267802
 Au     1   2   3     2.803314890414   114.56527091    89.90085255
 Au     3   2   1     2.661340381295    66.61384628   300.26993342
 Fe     1   2   3     2.582515996984    57.95195662    99.79876965

---------------------------
INTERNAL COORDINATES (A.U.)
---------------------------
 Au     0   0   0     0.000000000000     0.00000000     0.00000000
 Au     1   0   0     5.528991217406     0.00000000     0.00000000
 Au     2   1   0     5.042060381780   114.68121888     0.00000000
 Au     2   1   3     5.172808075882    60.10065631   189.86821970
 Au     4   2   1     5.366929282053    63.12382257   129.15176404
 Au     5   4   2     5.301189482002    95.57009544   244.14194769
 Au     6   5   4     5.302917088992    83.90903047   349.34908276
 Au     6   5   4     5.416792988977   101.82400078    82.30267802
 Au     1   2   3     5.297497410027   114.56527091    89.90085255
 Au     3   2   1     5.029204469793    66.61384628   300.26993342
 Fe     1   2   3     4.880247970770    57.95195662    99.79876965

---------------------
BASIS SET INFORMATION
---------------------
There are 2 groups of distinct atoms

 Group   1 Type Au  : 8s7p6d1f contracted to 6s4p3d1f pattern {311111/4111/411/1}
 Group   2 Type Fe  : 17s11p7d1f contracted to 6s4p4d1f pattern {842111/6311/4111/1}

Atom   0Au   basis set group =>   1
Atom   1Au   basis set group =>   1
Atom   2Au   basis set group =>   1
Atom   3Au   basis set group =>   1
Atom   4Au   basis set group =>   1
Atom   5Au   basis set group =>   1
Atom   6Au   basis set group =>   1
Atom   7Au   basis set group =>   1
Atom   8Au   basis set group =>   1
Atom   9Au   basis set group =>   1
Atom  10Fe   basis set group =>   2
---------------------------------
AUXILIARY/J BASIS SET INFORMATION
---------------------------------
There are 2 groups of distinct atoms

 Group   1 Type Au  : 11s5p5d3f3g contracted to 8s5p5d2f3g pattern {41111111/11111/11111/21/111}
 Group   2 Type Fe  : 19s5p5d3f3g contracted to 8s5p5d2f3g pattern {121111111/11111/11111/21/111}

Atom   0Au   basis set group =>   1
Atom   1Au   basis set group =>   1
Atom   2Au   basis set group =>   1
Atom   3Au   basis set group =>   1
Atom   4Au   basis set group =>   1
Atom   5Au   basis set group =>   1
Atom   6Au   basis set group =>   1
Atom   7Au   basis set group =>   1
Atom   8Au   basis set group =>   1
Atom   9Au   basis set group =>   1
Atom  10Fe   basis set group =>   2
-------------------------
ECP PARAMETER INFORMATION
-------------------------

 Group 1, Type Au ECP Def2-ECP (replacing 60 core electrons, lmax=3)

Atom   0Au   ECP group =>   1
Atom   1Au   ECP group =>   1
Atom   2Au   ECP group =>   1
Atom   3Au   ECP group =>   1
Atom   4Au   ECP group =>   1
Atom   5Au   ECP group =>   1
Atom   6Au   ECP group =>   1
Atom   7Au   ECP group =>   1
Atom   8Au   ECP group =>   1
Atom   9Au   ECP group =>   1



           ************************************************************
           *        Program running with 6 parallel MPI-processes     *
           *              working on a common directory               *
           ************************************************************
------------------------------------------------------------------------------
                           ORCA GTO INTEGRAL CALCULATION
                           -- RI-GTO INTEGRALS CHOSEN --
------------------------------------------------------------------------------
------------------------------------------------------------------------------
                   ___                                                        
                  /   \      - P O W E R E D   B Y -                         
                 /     \                                                     
                 |  |  |   _    _      __       _____    __    __             
                 |  |  |  | |  | |    /  \     |  _  \  |  |  /  |          
                  \  \/   | |  | |   /    \    | | | |  |  | /  /          
                 / \  \   | |__| |  /  /\  \   | |_| |  |  |/  /          
                |  |  |   |  __  | /  /__\  \  |    /   |      \           
                |  |  |   | |  | | |   __   |  |    \   |  |\   \          
                \     /   | |  | | |  |  |  |  | |\  \  |  | \   \       
                 \___/    |_|  |_| |__|  |__|  |_| \__\ |__|  \__/        
                                                                              
                      - O R C A' S   B I G   F R I E N D -                    
                                      &                                       
                       - I N T E G R A L  F E E D E R -                       
                                                                              
 v1 FN, 2020, v2 2021                                                         
------------------------------------------------------------------------------


Reading SHARK input file scan.SHARKINP.tmp ... ok
----------------------
SHARK INTEGRAL PACKAGE
----------------------

Number of atoms                             ...     11
Number of basis functions                   ...    445
Number of shells                            ...    155
Maximum angular momentum                    ...      3
Integral batch strategy                     ... SHARK/LIBINT Hybrid
RI-J (if used) integral strategy            ... SPLIT-RIJ (Revised 2003 algorithm where possible)
Printlevel                                  ...      1
Contraction scheme used                     ... SEGMENTED contraction
Coulomb Range Separation                    ... NOT USED
Exchange Range Separation                   ... NOT USED
Finite Nucleus Model                        ... NOT USED
Auxiliary Coulomb fitting basis             ... AVAILABLE
   # of basis functions in Aux-J            ...    979
   # of shells in Aux-J                     ...    253
   Maximum angular momentum in Aux-J        ...      4
Auxiliary J/K fitting basis                 ... NOT available
Auxiliary Correlation fitting basis         ... NOT available
Auxiliary 'external' fitting basis          ... NOT available
Integral threshold                          ...     1.000000e-10
Primitive cut-off                           ...     1.000000e-11
Primitive pair pre-selection threshold      ...     1.000000e-11

Calculating pre-screening integrals         ... done (  0.1 sec) Dimension = 155
Organizing shell pair data                  ... done (  0.2 sec)
Shell pair information
Total number of shell pairs                 ...     12090
Shell pairs after pre-screening             ...      9982
Total number of primitive shell pairs       ...     33105
Primitive shell pairs kept                  ...     20067
          la=0 lb=0:   1554 shell pairs
          la=1 lb=0:   2263 shell pairs
          la=1 lb=1:    865 shell pairs
          la=2 lb=0:   1972 shell pairs
          la=2 lb=1:   1393 shell pairs
          la=2 lb=2:    572 shell pairs
          la=3 lb=0:    535 shell pairs
          la=3 lb=1:    418 shell pairs
          la=3 lb=2:    352 shell pairs
          la=3 lb=3:     58 shell pairs

Calculating one electron integrals          ... done (  0.0 sec)
Calculating ECP integrals                   ... done (  3.6 sec)
Calculating RI/J V-Matrix + Cholesky decomp.... done (  0.0 sec)
Calculating Nuclear repulsion               ... done (  0.0 sec) ENN=   3244.366306240360 Eh

SHARK setup successfully completed in   4.1 seconds

Maximum memory used throughout the entire GTOINT-calculation: 27.2 MB


           ************************************************************
           *        Program running with 6 parallel MPI-processes     *
           *              working on a common directory               *
           ************************************************************
-------------------------------------------------------------------------------
                                 ORCA SCF
-------------------------------------------------------------------------------

------------
SCF SETTINGS
------------
Hamiltonian:
 Density Functional     Method          .... DFT(GTOs)
  Functional kind                       .... Exchange
  Functional name                       .... Re-regularized SCAN exchange by Furness et al
  Functional family                     .... MGGA
  Functional refs                              
    [ 0] J. W. Furness, A. D. Kaplan, J. Ning, J. P. Perdew, and J. Sun, J. Phys. Chem. Lett. 11, 8208 (2020)
    [ 1] J. W. Furness, A. D. Kaplan, J. Ning, J. P. Perdew, and J. Sun, J. Phys. Chem. Lett. 11, 9248 (2020)
  Functional external parameters         .... 8
 Parameter  0 :         c1 parameter
 Parameter  1 :         c2 parameter
 Parameter  2 :          d parameter
 Parameter  3 :         k1 parameter
 Parameter  4 :       taur parameter
 Parameter  5 :     alphar parameter
 Parameter  6 :        eta parameter
 Parameter  7 :        dp2 parameter
  Functional kind                       .... Correlation
  Functional name                       .... Re-regularized SCAN correlation by Furness et al
  Functional family                     .... MGGA
  Functional refs                              
    [ 0] J. W. Furness, A. D. Kaplan, J. Ning, J. P. Perdew, and J. Sun, J. Phys. Chem. Lett. 11, 8208 (2020)
    [ 1] J. W. Furness, A. D. Kaplan, J. Ning, J. P. Perdew, and J. Sun, J. Phys. Chem. Lett. 11, 9248 (2020)
  Functional external parameters         .... 0
 Gradients option       PostSCFGGA      .... off
   Density functional embedding theory  .... OFF
   NL short-range parameter             .... 12.300000
 RI-approximation to the Coulomb term is turned on
   Number of AuxJ basis functions       .... 979


General Settings:
 Integral files         IntName         .... scan
 Hartree-Fock type      HFTyp           .... UHF
 Total Charge           Charge          ....    0
 Multiplicity           Mult            ....    5
 Number of Electrons    NEL             ....  216
 Basis Dimension        Dim             ....  445
 Nuclear Repulsion      ENuc            ....   3244.3663062404 Eh

Convergence Acceleration:
 DIIS                   CNVDIIS         .... off
 Trust-Rad. Augm. Hess. CNVTRAH         .... auto
   Auto Start mean grad. ratio tolernc. ....  1.125000
   Auto Start start iteration           ....   200
   Auto Start num. interpolation iter.  ....    10
   Max. Number of Micro iterations      ....    16
   Max. Number of Macro iterations      .... Maxiter - #DIIS iter
   Number of Davidson start vectors     ....     2
   Converg. threshold I  (grad. norm)   ....   5.000e-05
   Converg. threshold II (energy diff.) ....   1.000e-06
   Grad. Scal. Fac. for Micro threshold ....   0.100
   Minimum threshold for Micro iter.    ....   0.010
   NR start threshold (gradient norm)   ....   0.001
   Initial trust radius                 ....   0.400
   Minimum AH scaling param. (alpha)    ....   1.000
   Maximum AH scaling param. (alpha)    .... 1000.000
   Orbital update algorithm             .... Taylor
   White noise on init. David. guess    .... on
   Maximum white noise                  ....   0.010
   Quad. conv. algorithm                .... NR
 SOSCF                  CNVSOSCF        .... off
 Level Shifting         CNVShift        .... off
 Zerner damping         CNVZerner       .... off
 Static damping         CNVDamp         .... off
 Fernandez-Rico         CNVRico         .... off

SCF Procedure:
 Maximum # iterations   MaxIter         ....   400
 SCF integral mode      SCFMode         .... Direct
   Integral package                     .... SHARK and LIBINT hybrid scheme
 Reset frequency        DirectResetFreq ....    20
 Integral Threshold     Thresh          ....  1.000e-10 Eh
 Primitive CutOff       TCut            ....  1.000e-11 Eh

Convergence Tolerance:
 Convergence Check Mode ConvCheckMode   .... All-Criteria
 Convergence forced     ConvForced      .... 0
 Energy Change          TolE            ....  1.000e-06 Eh
 Max Density Change     TolMaxP         ....  1.000e-05
 RMS Density Change     TolRMSP         ....  1.000e-06


Diagonalization of the overlap matrix:
Smallest eigenvalue                        ... 5.086e-04
Time for diagonalization                   ...    0.044 sec
Threshold for overlap eigenvalues          ... 1.000e-08
Number of eigenvalues below threshold      ... 0
Time for construction of square roots      ...    0.024 sec
Total time needed                          ...    0.069 sec

Time for model grid setup =    0.253 sec

------------------------------
INITIAL GUESS: MODEL POTENTIAL
------------------------------
Loading Hartree-Fock densities                     ... done
  calling /media/Programs/ORCA501/orca scan_atom79.inp > scan_atom79.out in order to generate an atomic fitting density for atom 0 (Au with ECP) on-the-fly... 
    atom 0 (Au), assumed electronic state with S=2: 1s2 2s2 2p6 3s2 3p6 4s2 3d10 4p6 5s2 4d10 5p6 6s1 4f14 5d10           ... done
Calculating cut-offs                               ... done
Initializing the effective Hamiltonian             ... done
Setting up the integral package (SHARK)            ... done
Starting the Coulomb interaction                   ... done (   0.2 sec)
Reading the grid                                   ... done
Mapping shells                                     ... done
Starting the XC term evaluation                    ... done (   0.2 sec)
  promolecular density results
     # of electrons  =    816.011865272
     EX              =  -3712.295220086
     EC              =    -49.558443687
     EX+EC           =  -3761.853663773
Transforming the Hamiltonian                       ... done (   0.0 sec)
Diagonalizing the Hamiltonian                      ... done (   0.0 sec)
Back transforming the eigenvectors                 ... done (   0.0 sec)
Now organizing SCF variables                       ... done
                      ------------------
                      INITIAL GUESS DONE (   1.1 sec)
                      ------------------
-------------------
DFT GRID GENERATION
-------------------

General Integration Accuracy     IntAcc      ... 4.388
Radial Grid Type                 RadialGrid  ... OptM3 with GC (2021)
Angular Grid (max. ang.)         AngularGrid ... 4 (Lebedev-302)
Angular grid pruning method      GridPruning ... 4 (adaptive)
Weight generation scheme         WeightScheme... Becke
Basis function cutoff            BFCut       ... 1.0000e-10
Integration weight cutoff        WCut        ... 1.0000e-14
Angular grids for H and He will be reduced by one unit
Partially contracted basis set               ... off
Rotationally invariant grid construction     ... off

Total number of grid points                  ...   123339
Total number of batches                      ...     1934
Average number of points per batch           ...       63
Average number of grid points per atom       ...    11213
Time for grid setup =    0.898 sec

--------------
SCF ITERATIONS
--------------
ITER       Energy         Delta-E        Max-DP      RMS-DP      [F,P]   Gradient Norm
               ***  Starting incremental Fock matrix formation  ***
                             ****Resetting KDIIS****
                             ****Turning on KDIIS(Cayley)****
  0  -2619.4944241156   0.000000000000 0.57248976  0.00244081  0.3900846   0.251973976
  1  -2621.0761329577  -1.581708842133 0.91122556  0.00306167  0.3492427   0.173256805
  2  -2621.6506073993  -0.574474441601 0.15269584  0.00152742  0.2763518   0.126709980
  3  -2621.8774543191  -0.226846919750 0.19983287  0.00165406  0.1612574   0.073618209
  4  -2621.9776366979  -0.100182378897 0.07901165  0.00047407  0.0403970   0.015162671
  5  -2621.9997624496  -0.022125751665 0.36678114  0.00122076  0.0199735   0.014438655
  6  -2622.0277454301  -0.027982980450 0.04515134  0.00071348  0.0330963   0.010940939
  7  -2622.0512492780  -0.023503847886 0.03776420  0.00037038  0.0185929   0.007206024
  8  -2622.0561761485  -0.004926870513 0.03618611  0.00027353  0.0114178   0.009810521
  9  -2622.0664415053  -0.010265356847 0.01741748  0.00021767  0.0133294   0.003147043
 10  -2622.0716871009  -0.005245595583 0.01612538  0.00022015  0.0089855   0.003010910
 11  -2622.0762560923  -0.004568991415 0.01431241  0.00023590  0.0053577   0.002625583
 12  -2622.0801983159  -0.003942223606 0.00883572  0.00012454  0.0038120   0.001940552
 13  -2622.0814192398  -0.001220923914 0.00914032  0.00009887  0.0039108   0.002487567
 14  -2622.0826092239  -0.001189984024 0.00844213  0.00011764  0.0040031   0.001597821
 15  -2622.0839777065  -0.001368482672 0.00444943  0.00005554  0.0036446   0.001881922
 16  -2622.0842825581  -0.000304851525 0.00734437  0.00009916  0.0043572   0.001599933
 17  -2622.0853352184  -0.001052660357 0.00326739  0.00003909  0.0035916   0.001462870
 18  -2622.0854930956  -0.000157877197 0.00892186  0.00011333  0.0031492   0.001077003
 19  -2622.0866172156  -0.001124119956 0.00469555  0.00004285  0.0034747   0.001234389
               *** Restarting incremental Fock matrix formation ***
                             ****Resetting KDIIS****
 20  -2622.0864904867   0.000126728910 0.00075358  0.00000900  0.0032673   0.001075254
 21  -2622.0865788851  -0.000088398492 0.00134686  0.00001403  0.0032939   0.000855062
 22  -2622.0867354412  -0.000156556091 0.00254301  0.00002723  0.0031291   0.000801864
 23  -2622.0870247899  -0.000289348659 0.03795710  0.00040320  0.0032328   0.000698935
 24  -2622.0905765046  -0.003551714739 0.01987365  0.00027226  0.0024578   0.001426323
 25  -2622.0920714751  -0.001494970470 0.00429465  0.00008135  0.0023589   0.001451530
 26  -2622.0919856433   0.000085831782 0.00752379  0.00011569  0.0018889   0.000767766
 27  -2622.0925301389  -0.000544495550 0.00305843  0.00005179  0.0015127   0.000663201
 28  -2622.0924187938   0.000111345027 0.00170260  0.00003258  0.0016018   0.000893812
 29  -2622.0925619058  -0.000143111951 0.00327412  0.00004088  0.0014242   0.000432469
 30  -2622.0927278286  -0.000165922761 0.00281908  0.00001714  0.0012640   0.000583195
 31  -2622.0927344349  -0.000006606385 0.00104261  0.00001281  0.0013840   0.000612732
 32  -2622.0927631459  -0.000028710995 0.00137290  0.00002158  0.0012893   0.000333877
 33  -2622.0928568930  -0.000093747112 0.00188633  0.00002529  0.0011881   0.000298444
 34  -2622.0929550666  -0.000098173532 0.00082345  0.00001196  0.0010931   0.000344605
 35  -2622.0929270699   0.000027996667 0.00211192  0.00002803  0.0011703   0.000275877
 36  -2622.0930503129  -0.000123243030 0.00158737  0.00001984  0.0011308   0.000264029
 37  -2622.0931337541  -0.000083441191 0.00144967  0.00001860  0.0011678   0.000261620
 38  -2622.0930553131   0.000078441013 0.00100588  0.00001259  0.0011691   0.000249760
 39  -2622.0931113522  -0.000056039093 0.00125777  0.00001569  0.0011866   0.000244799
               *** Restarting incremental Fock matrix formation ***
                             ****Resetting KDIIS****
 40  -2622.0930428671   0.000068485130 0.00014744  0.00000214  0.0011080   0.000269460
 41  -2622.0930522295  -0.000009362380 0.00034802  0.00000456  0.0011218   0.000254836
 42  -2622.0930734504  -0.000021220967 0.00038762  0.00000542  0.0011406   0.000247895
 43  -2622.0930994931  -0.000026042701 0.00142242  0.00001862  0.0011685   0.000244848
 44  -2622.0930114268   0.000088066359 0.00275527  0.00003347  0.0010655   0.000270998
 45  -2622.0928709952   0.000140431609 0.00170817  0.00002151  0.0011156   0.000236138
 46  -2622.0927933403   0.000077654893 0.00107115  0.00001440  0.0011279   0.000246861
 47  -2622.0927614009   0.000031939416 0.00332418  0.00004083  0.0011244   0.000265405
 48  -2622.0926345057   0.000126895190 0.00564177  0.00007313  0.0011665   0.000273896
 49  -2622.0925086498   0.000125855880 0.00330035  0.00003994  0.0010964   0.000282252
 50  -2622.0924822618   0.000026388004 0.00094175  0.00001423  0.0011058   0.000244256
 51  -2622.0925128740  -0.000030612197 0.00228444  0.00002934  0.0010206   0.000328795
 52  -2622.0925254257  -0.000012551729 0.00361074  0.00005328  0.0010142   0.000221273
 53  -2622.0925620145  -0.000036588797 0.00452251  0.00006792  0.0009374   0.000238860
 54  -2622.0926866187  -0.000124604173 0.00115399  0.00001269  0.0007815   0.000254480
 55  -2622.0926978341  -0.000011215462 0.00069701  0.00001272  0.0007752   0.000237002
 56  -2622.0927141341  -0.000016299920 0.00317941  0.00004925  0.0006782   0.000300209
 57  -2622.0928250479  -0.000110913816 0.00127686  0.00001964  0.0006268   0.000183240
 58  -2622.0928651127  -0.000040064811 0.00051813  0.00000616  0.0005423   0.000193195
 59  -2622.0928687496  -0.000003636930 0.00052862  0.00000518  0.0005304   0.000199409
               *** Restarting incremental Fock matrix formation ***
                             ****Resetting KDIIS****
 60  -2622.0928734387  -0.000004689105 0.00006079  0.00000126  0.0005390   0.000145925
 61  -2622.0928769087  -0.000003469939 0.00013902  0.00000265  0.0005315   0.000137229
 62  -2622.0928828373  -0.000005928609 0.00027976  0.00000536  0.0005171   0.000134917
 63  -2622.0928959574  -0.000013120089 0.00203724  0.00003955  0.0005128   0.000132450
 64  -2622.0929843592  -0.000088401833 0.00016645  0.00000307  0.0006401   0.000138754
 65  -2622.0929916384  -0.000007279192 0.00069503  0.00001259  0.0006493   0.000133037
 66  -2622.0929630393   0.000028599059 0.00085671  0.00001648  0.0006006   0.000140796
 67  -2622.0929989205  -0.000035881221 0.00086457  0.00001497  0.0006916   0.000160160
 68  -2622.0929699089   0.000029011678 0.00062324  0.00000995  0.0006116   0.000136307
 69  -2622.0929479288   0.000021980075 0.00019080  0.00000311  0.0005774   0.000130192
 70  -2622.0929524556  -0.000004526855 0.00149105  0.00002324  0.0005933   0.000140642
 71  -2622.0929099949   0.000042460755 0.00045551  0.00000946  0.0005010   0.000153074
 72  -2622.0929281688  -0.000018173897 0.00561421  0.00007557  0.0005395   0.000164169
 73  -2622.0928174004   0.000110768406 0.00191313  0.00002233  0.0005439   0.000133685
 74  -2622.0928151257   0.000002274683 0.00284959  0.00003752  0.0005179   0.000142049
 75  -2622.0928615040  -0.000046378310 0.00489289  0.00005859  0.0005141   0.000203442
 76  -2622.0928273021   0.000034201881 0.00189021  0.00002492  0.0005175   0.000123098
 77  -2622.0928511798  -0.000023877651 0.00384961  0.00004610  0.0004057   0.000232473
 78  -2622.0929004649  -0.000049285158 0.00134324  0.00001746  0.0003920   0.000104452
 79  -2622.0929225720  -0.000022107110 0.00128223  0.00001712  0.0003068   0.000114718
               *** Restarting incremental Fock matrix formation ***
                             ****Resetting KDIIS****
 80  -2622.0929389768  -0.000016404729 0.00009495  0.00000106  0.0002793   0.000142726
 81  -2622.0929426190  -0.000003642257 0.00010712  0.00000124  0.0002830   0.000095957
 82  -2622.0929436493  -0.000001030217 0.00014952  0.00000206  0.0002686   0.000082224
 83  -2622.0929471813  -0.000003532089 0.00058527  0.00000796  0.0002657   0.000068581
 84  -2622.0929572560  -0.000010074614 0.00078888  0.00001082  0.0002433   0.000064515
 85  -2622.0929706615  -0.000013405537 0.00029027  0.00000392  0.0002238   0.000059391
                           ***RMSP convergence achieved***
 86  -2622.0929661172   0.000004544311 0.00006271  0.00000083  0.0002332   0.000058851
                          ***Energy convergence achieved***
 87  -2622.0929652980   0.000000819146 0.00057988  0.00000804  0.0002367   0.000059031
 88  -2622.0929755206  -0.000010222591 0.00007978  0.00000109  0.0002201   0.000063087
 89  -2622.0929736566   0.000001863988 0.00009222  0.00000101  0.0002211   0.000060680
 90  -2622.0929725464   0.000001110257 0.00073233  0.00001033  0.0002230   0.000061435
 91  -2622.0929602413   0.000012305130 0.00026610  0.00000393  0.0002421   0.000061410
 92  -2622.0929636581  -0.000003416867 0.00074287  0.00000946  0.0002229   0.000066411
 93  -2622.0929542757   0.000009382442 0.00059873  0.00000842  0.0002501   0.000061232
 94  -2622.0929648468  -0.000010571110 0.00013676  0.00000226  0.0002389   0.000068238
 95  -2622.0929601556   0.000004691208 0.00021502  0.00000245  0.0002264   0.000067592
                          ***Energy convergence achieved***
 96  -2622.0929596189   0.000000536639 0.00019524  0.00000248  0.0002269   0.000070657
 97  -2622.0929623634  -0.000002744429 0.00013775  0.00000225  0.0002293   0.000063004
 98  -2622.0929655615  -0.000003198131 0.00020297  0.00000276  0.0002376   0.000062313
 99  -2622.0929676440  -0.000002082516 0.00018559  0.00000173  0.0002202   0.000060029
               *** Restarting incremental Fock matrix formation ***
                             ****Resetting KDIIS****
                          ***Energy convergence achieved***
                           ***RMSP convergence achieved***
100  -2622.0929684716  -0.000000827557 0.00003079  0.00000047  0.0002185   0.000059950
101  -2622.0929694719  -0.000001000307 0.00007010  0.00000094  0.0002202   0.000057180
                          ***Energy convergence achieved***
102  -2622.0929704561  -0.000000984220 0.00012485  0.00000170  0.0002171   0.000056772
103  -2622.0929723329  -0.000001876802 0.00128749  0.00001717  0.0002133   0.000056921
104  -2622.0929537039   0.000018628994 0.00024755  0.00000321  0.0002384   0.000058117
105  -2622.0929506725   0.000003031452 0.00101026  0.00000494  0.0002381   0.000055403
106  -2622.0929478474   0.000002825039 0.00034665  0.00000210  0.0002375   0.000055969
107  -2622.0929515115  -0.000003664040 0.00030422  0.00000554  0.0002688   0.000099111
108  -2622.0929485275   0.000002983980 0.00246144  0.00003006  0.0002044   0.000085538
109  -2622.0929389777   0.000009549777 0.00038352  0.00000851  0.0002111   0.000052946
110  -2622.0929435279  -0.000004550192 0.00031735  0.00000443  0.0001903   0.000066829
                          ***Energy convergence achieved***
111  -2622.0929440488  -0.000000520878 0.00045669  0.00000588  0.0001867   0.000054650
112  -2622.0929461261  -0.000002077344 0.00077521  0.00001664  0.0001895   0.000057943
113  -2622.0929507191  -0.000004593018 0.00063027  0.00001111  0.0001815   0.000076344
114  -2622.0929617213  -0.000011002171 0.00050381  0.00001057  0.0001430   0.000080068
115  -2622.0929533457   0.000008375622 0.00089549  0.00001665  0.0001315   0.000070208
116  -2622.0929616041  -0.000008258428 0.00032179  0.00000412  0.0001177   0.000059836
                          ***Energy convergence achieved***
117  -2622.0929608828   0.000000721308 0.00021538  0.00000400  0.0001127   0.000048633
                           ***RMSP convergence achieved***
118  -2622.0929628068  -0.000001924039 0.00011621  0.00000094  0.0001251   0.000044138
                          ***Energy convergence achieved***
119  -2622.0929637572  -0.000000950376 0.00031799  0.00000555  0.0001135   0.000039462
               *** Restarting incremental Fock matrix formation ***
                             ****Resetting KDIIS****
                           ***RMSP convergence achieved***
120  -2622.0929652548  -0.000001497610 0.00001558  0.00000032  0.0001245   0.000035693
                          ***Energy convergence achieved***
121  -2622.0929658571  -0.000000602261 0.00003845  0.00000065  0.0001233   0.000033311

            ***Energy convergence in two consecutive cycles with***
                    ***'reasonable' density convergence***
                       *** signaling convergence ***

                    *** KDIIS BlockDiag ( 0.049 sec) ***

               *****************************************************
               *                     SUCCESS                       *
               *           SCF CONVERGED AFTER 122 CYCLES          *
               *****************************************************


----------------
TOTAL SCF ENERGY
----------------

Total Energy       :        -2622.09296616 Eh          -71350.77701 eV

Components:
Nuclear Repulsion  :         3244.36630624 Eh           88283.69545 eV
Electronic Energy  :        -5866.45927240 Eh         -159634.47246 eV
One Electron Energy:       -10616.02695312 Eh         -288876.77961 eV
Two Electron Energy:         4749.56768073 Eh          129242.30714 eV

Virial components:
Potential Energy   :        -4342.70317765 Eh         -118170.96116 eV
Kinetic Energy     :         1720.61021149 Eh           46820.18415 eV
Virial Ratio       :            2.52393200


DFT components:
N(Alpha)           :      109.999956809128 electrons
N(Beta)            :      105.999955696104 electrons
N(Total)           :      215.999912505231 electrons
E(X)               :     -175.883703560622 Eh       
E(C)               :       -8.972253962802 Eh       
E(XC)              :     -184.855957523424 Eh       
DFET-embed. en.    :        0.000000000000 Eh       

---------------
SCF CONVERGENCE
---------------

  Last Energy change         ...   -2.9798e-07  Tolerance :   1.0000e-06
  Last MAX-Density change    ...    7.5621e-05  Tolerance :   1.0000e-05
  Last RMS-Density change    ...    1.3908e-06  Tolerance :   1.0000e-06

             **** THE GBW FILE WAS UPDATED (scan.gbw) ****
             **** DENSITY scan.scfp WAS UPDATED ****
             **** ENERGY FILE WAS UPDATED (scan.en.tmp) ****
----------------------
UHF SPIN CONTAMINATION
----------------------

Warning: in a DFT calculation there is little theoretical justification to 
         calculate <S**2> as in Hartree-Fock theory. We will do it anyways
         but you should keep in mind that the values have only limited relevance

Expectation value of <S**2>     :     6.749076
Ideal value S*(S+1) for S=2.0   :     6.000000
Deviation                       :     0.749076

             **** THE GBW FILE WAS UPDATED (scan.gbw) ****
             **** DENSITY scan.scfp WAS UPDATED ****
----------------
ORBITAL ENERGIES
----------------
                 SPIN UP ORBITALS
  NO   OCC          E(Eh)            E(eV) 
   0   1.0000    -255.647558     -6956.5237 
   1   1.0000     -29.953911      -815.0874 
   2   1.0000     -25.793300      -701.8714 
   3   1.0000     -25.785272      -701.6529 
   4   1.0000     -25.772290      -701.2997 
   5   1.0000      -4.122318      -112.1740 
   6   1.0000      -4.119433      -112.0955 
   7   1.0000      -4.115399      -111.9857 
   8   1.0000      -4.114650      -111.9653 
   9   1.0000      -4.110476      -111.8517 
  10   1.0000      -4.110111      -111.8418 
  11   1.0000      -4.109739      -111.8317 
  12   1.0000      -4.109636      -111.8289 
  13   1.0000      -4.108588      -111.8004 
  14   1.0000      -4.097327      -111.4939 
  15   1.0000      -3.533731       -96.1577 
  16   1.0000      -2.319704       -63.1224 
  17   1.0000      -2.313522       -62.9541 
  18   1.0000      -2.308900       -62.8284 
  19   1.0000      -2.308546       -62.8187 
  20   1.0000      -2.307511       -62.7906 
  21   1.0000      -2.305431       -62.7340 
  22   1.0000      -2.304736       -62.7150 
  23   1.0000      -2.304658       -62.7129 
  24   1.0000      -2.303207       -62.6734 
  25   1.0000      -2.302383       -62.6510 
  26   1.0000      -2.301744       -62.6336 
  27   1.0000      -2.301356       -62.6231 
  28   1.0000      -2.300478       -62.5992 
  29   1.0000      -2.300031       -62.5870 
  30   1.0000      -2.298016       -62.5322 
  31   1.0000      -2.297614       -62.5213 
  32   1.0000      -2.297585       -62.5205 
  33   1.0000      -2.297071       -62.5065 
  34   1.0000      -2.295174       -62.4549 
  35   1.0000      -2.294933       -62.4483 
  36   1.0000      -2.294535       -62.4375 
  37   1.0000      -2.294329       -62.4319 
  38   1.0000      -2.293007       -62.3959 
  39   1.0000      -2.292927       -62.3937 
  40   1.0000      -2.292698       -62.3875 
  41   1.0000      -2.291777       -62.3624 
  42   1.0000      -2.291593       -62.3574 
  43   1.0000      -2.291447       -62.3534 
  44   1.0000      -2.291363       -62.3512 
  45   1.0000      -2.288544       -62.2745 
  46   1.0000      -2.283825       -62.1460 
  47   1.0000      -2.275518       -61.9200 
  48   1.0000      -2.274217       -61.8846 
  49   1.0000      -0.427057       -11.6208 
  50   1.0000      -0.389957       -10.6113 
  51   1.0000      -0.387159       -10.5351 
  52   1.0000      -0.384310       -10.4576 
  53   1.0000      -0.378646       -10.3035 
  54   1.0000      -0.376270       -10.2388 
  55   1.0000      -0.372570       -10.1382 
  56   1.0000      -0.367295        -9.9946 
  57   1.0000      -0.355489        -9.6734 
  58   1.0000      -0.352119        -9.5816 
  59   1.0000      -0.344458        -9.3732 
  60   1.0000      -0.342574        -9.3219 
  61   1.0000      -0.339658        -9.2426 
  62   1.0000      -0.333834        -9.0841 
  63   1.0000      -0.332284        -9.0419 
  64   1.0000      -0.330557        -8.9949 
  65   1.0000      -0.330192        -8.9850 
  66   1.0000      -0.326093        -8.8734 
  67   1.0000      -0.324098        -8.8192 
  68   1.0000      -0.323570        -8.8048 
  69   1.0000      -0.316224        -8.6049 
  70   1.0000      -0.315744        -8.5918 
  71   1.0000      -0.314175        -8.5491 
  72   1.0000      -0.313256        -8.5241 
  73   1.0000      -0.312077        -8.4920 
  74   1.0000      -0.305623        -8.3164 
  75   1.0000      -0.302371        -8.2279 
  76   1.0000      -0.299416        -8.1475 
  77   1.0000      -0.298849        -8.1321 
  78   1.0000      -0.292670        -7.9639 
  79   1.0000      -0.290842        -7.9142 
  80   1.0000      -0.288883        -7.8609 
  81   1.0000      -0.286518        -7.7965 
  82   1.0000      -0.285820        -7.7775 
  83   1.0000      -0.283548        -7.7157 
  84   1.0000      -0.283453        -7.7131 
  85   1.0000      -0.281242        -7.6530 
  86   1.0000      -0.279665        -7.6101 
  87   1.0000      -0.275797        -7.5048 
  88   1.0000      -0.274734        -7.4759 
  89   1.0000      -0.273911        -7.4535 
  90   1.0000      -0.272174        -7.4062 
  91   1.0000      -0.269723        -7.3395 
  92   1.0000      -0.266982        -7.2649 
  93   1.0000      -0.264385        -7.1943 
  94   1.0000      -0.263712        -7.1760 
  95   1.0000      -0.259601        -7.0641 
  96   1.0000      -0.258869        -7.0442 
  97   1.0000      -0.257777        -7.0145 
  98   1.0000      -0.257678        -7.0118 
  99   1.0000      -0.255553        -6.9539 
 100   1.0000      -0.254820        -6.9340 
 101   1.0000      -0.251636        -6.8474 
 102   1.0000      -0.250845        -6.8258 
 103   1.0000      -0.249218        -6.7816 
 104   1.0000      -0.247851        -6.7444 
 105   1.0000      -0.243007        -6.6126 
 106   1.0000      -0.242273        -6.5926 
 107   1.0000      -0.234057        -6.3690 
 108   1.0000      -0.206229        -5.6118 
 109   1.0000      -0.176690        -4.8080 
 110   0.0000      -0.162311        -4.4167 
 111   0.0000      -0.155541        -4.2325 
 112   0.0000      -0.135115        -3.6767 
 113   0.0000      -0.104381        -2.8403 
 114   0.0000      -0.096234        -2.6187 
 115   0.0000      -0.079692        -2.1685 
 116   0.0000      -0.057090        -1.5535 
 117   0.0000      -0.045342        -1.2338 
 118   0.0000      -0.040079        -1.0906 
 119   0.0000      -0.036498        -0.9932 
 120   0.0000      -0.036174        -0.9843 
 121   0.0000      -0.025185        -0.6853 
 122   0.0000      -0.015205        -0.4137 
 123   0.0000       0.011595         0.3155 
 124   0.0000       0.014364         0.3909 
 125   0.0000       0.031715         0.8630 
 126   0.0000       0.033284         0.9057 
 127   0.0000       0.038268         1.0413 
 128   0.0000       0.048116         1.3093 
 129   0.0000       0.059101         1.6082 
 130   0.0000       0.061223         1.6660 
 131   0.0000       0.067237         1.8296 
 132   0.0000       0.074713         2.0330 
 133   0.0000       0.074804         2.0355 
 134   0.0000       0.077874         2.1191 
 135   0.0000       0.080674         2.1952 
 136   0.0000       0.084528         2.3001 
 137   0.0000       0.091840         2.4991 
 138   0.0000       0.101830         2.7709 
 139   0.0000       0.106494         2.8979 
 140   0.0000       0.111152         3.0246 
 141   0.0000       0.129470         3.5231 
 142   0.0000       0.131993         3.5917 
 143   0.0000       0.144798         3.9402 
 144   0.0000       0.148221         4.0333 
 145   0.0000       0.153573         4.1789 
 146   0.0000       0.155907         4.2424 
 147   0.0000       0.165873         4.5136 
 148   0.0000       0.176960         4.8153 
 149   0.0000       0.183855         5.0030 
 150   0.0000       0.194784         5.3003 
 151   0.0000       0.197555         5.3757 
 152   0.0000       0.201099         5.4722 
 153   0.0000       0.207976         5.6593 
 154   0.0000       0.224999         6.1225 
 155   0.0000       0.235100         6.3974 
 156   0.0000       0.240738         6.5508 
 157   0.0000       0.246585         6.7099 
 158   0.0000       0.250128         6.8063 
 159   0.0000       0.261169         7.1068 
 160   0.0000       0.262207         7.1350 
 161   0.0000       0.268859         7.3160 
 162   0.0000       0.276293         7.5183 
 163   0.0000       0.281567         7.6618 
 164   0.0000       0.287953         7.8356 
 165   0.0000       0.299192         8.1414 
 166   0.0000       0.301136         8.1943 
 167   0.0000       0.304920         8.2973 
 168   0.0000       0.311719         8.4823 
 169   0.0000       0.315724         8.5913 
 170   0.0000       0.317717         8.6455 
 171   0.0000       0.321445         8.7470 
 172   0.0000       0.323509         8.8031 
 173   0.0000       0.328983         8.9521 
 174   0.0000       0.332286         9.0420 
 175   0.0000       0.343323         9.3423 
 176   0.0000       0.344845         9.3837 
 177   0.0000       0.349178         9.5016 
 178   0.0000       0.361880         9.8473 
 179   0.0000       0.374896        10.2014 
 180   0.0000       0.378344        10.2953 
 181   0.0000       0.379079        10.3153 
 182   0.0000       0.386780        10.5248 
 183   0.0000       0.389858        10.6086 
 184   0.0000       0.392359        10.6766 
 185   0.0000       0.398389        10.8407 
 186   0.0000       0.408777        11.1234 
 187   0.0000       0.415899        11.3172 
 188   0.0000       0.419315        11.4101 
 189   0.0000       0.421161        11.4604 
 190   0.0000       0.435876        11.8608 
 191   0.0000       0.441748        12.0206 
 192   0.0000       0.446587        12.1523 
 193   0.0000       0.448540        12.2054 
 194   0.0000       0.454153        12.3581 
 195   0.0000       0.457728        12.4554 
 196   0.0000       0.467051        12.7091 
 197   0.0000       0.473746        12.8913 
 198   0.0000       0.483595        13.1593 
 199   0.0000       0.486844        13.2477 
 200   0.0000       0.488865        13.3027 
 201   0.0000       0.499844        13.6014 
 202   0.0000       0.509130        13.8541 
 203   0.0000       0.519703        14.1418 
 204   0.0000       0.523320        14.2403 
 205   0.0000       0.525669        14.3042 
 206   0.0000       0.530139        14.4258 
 207   0.0000       0.544951        14.8289 
 208   0.0000       0.545835        14.8529 
 209   0.0000       0.550287        14.9741 
 210   0.0000       0.555016        15.1027 
 211   0.0000       0.555215        15.1082 
 212   0.0000       0.572256        15.5719 
 213   0.0000       0.587974        15.9996 
 214   0.0000       0.608729        16.5644 
 215   0.0000       0.639423        17.3996 
 216   0.0000       0.665068        18.0974 
 217   0.0000       0.672966        18.3123 
 218   0.0000       0.695177        18.9167 
 219   0.0000       0.704273        19.1642 
 220   0.0000       0.713177        19.4065 
 221   0.0000       0.720980        19.6189 
 222   0.0000       0.729484        19.8503 
 223   0.0000       0.733470        19.9587 
 224   0.0000       0.754234        20.5237 
 225   0.0000       0.759809        20.6755 
 226   0.0000       0.780986        21.2517 
 227   0.0000       0.794087        21.6082 
 228   0.0000       0.804630        21.8951 
 229   0.0000       0.805412        21.9164 
 230   0.0000       0.846359        23.0306 
 231   0.0000       0.861998        23.4562 
 232   0.0000       0.866394        23.5758 
 233   0.0000       0.873655        23.7734 
 234   0.0000       0.877369        23.8744 
 235   0.0000       0.890848        24.2412 
 236   0.0000       0.907666        24.6988 
 237   0.0000       0.920622        25.0514 
 238   0.0000       0.931990        25.3607 
 239   0.0000       0.963113        26.2076 
 240   0.0000       0.994247        27.0548 
 241   0.0000       1.020031        27.7565 
 242   0.0000       1.031735        28.0749 
 243   0.0000       1.045904        28.4605 
 244   0.0000       1.061556        28.8864 
 245   0.0000       1.074258        29.2320 
 246   0.0000       1.149426        31.2775 
 247   0.0000       1.208090        32.8738 
 248   0.0000       1.236234        33.6396 
 249   0.0000       1.275791        34.7160 
 250   0.0000       1.301327        35.4109 
 251   0.0000       1.310482        35.6600 
 252   0.0000       1.319584        35.9077 
 253   0.0000       1.335348        36.3367 
 254   0.0000       1.357849        36.9489 
 255   0.0000       1.372425        37.3456 
 256   0.0000       1.374719        37.4080 
 257   0.0000       1.384041        37.6617 
 258   0.0000       1.398129        38.0450 
 259   0.0000       1.410861        38.3915 
 260   0.0000       1.419104        38.6158 
 261   0.0000       1.428918        38.8828 
 262   0.0000       1.434940        39.0467 
 263   0.0000       1.439185        39.1622 
 264   0.0000       1.445066        39.3222 
 265   0.0000       1.453901        39.5627 
 266   0.0000       1.462526        39.7973 
 267   0.0000       1.463974        39.8368 
 268   0.0000       1.466395        39.9026 
 269   0.0000       1.472317        40.0638 
 270   0.0000       1.472506        40.0689 
 271   0.0000       1.481307        40.3084 
 272   0.0000       1.484101        40.3844 
 273   0.0000       1.485233        40.4152 
 274   0.0000       1.499490        40.8032 
 275   0.0000       1.503471        40.9115 
 276   0.0000       1.506266        40.9876 
 277   0.0000       1.517774        41.3007 
 278   0.0000       1.520541        41.3760 
 279   0.0000       1.521741        41.4087 
 280   0.0000       1.525760        41.5181 
 281   0.0000       1.529292        41.6141 
 282   0.0000       1.532714        41.7073 
 283   0.0000       1.534325        41.7511 
 284   0.0000       1.540068        41.9074 
 285   0.0000       1.542710        41.9793 
 286   0.0000       1.543312        41.9956 
 287   0.0000       1.544785        42.0357 
 288   0.0000       1.546940        42.0944 
 289   0.0000       1.547167        42.1005 
 290   0.0000       1.548047        42.1245 
 291   0.0000       1.551483        42.2180 
 292   0.0000       1.553281        42.2669 
 293   0.0000       1.553797        42.2810 
 294   0.0000       1.557120        42.3714 
 295   0.0000       1.560835        42.4725 
 296   0.0000       1.562661        42.5222 
 297   0.0000       1.565085        42.5881 
 298   0.0000       1.565982        42.6125 
 299   0.0000       1.568709        42.6867 
 300   0.0000       1.570408        42.7330 
 301   0.0000       1.570857        42.7452 
 302   0.0000       1.572648        42.7939 
 303   0.0000       1.574722        42.8504 
 304   0.0000       1.576516        42.8992 
 305   0.0000       1.578057        42.9411 
 306   0.0000       1.579689        42.9855 
 307   0.0000       1.581275        43.0287 
 308   0.0000       1.590009        43.2663 
 309   0.0000       1.590476        43.2791 
 310   0.0000       1.590853        43.2893 
 311   0.0000       1.592086        43.3229 
 312   0.0000       1.593637        43.3651 
 313   0.0000       1.596831        43.4520 
 314   0.0000       1.597953        43.4825 
 315   0.0000       1.598319        43.4925 
 316   0.0000       1.604825        43.6695 
 317   0.0000       1.609699        43.8021 
 318   0.0000       1.611793        43.8591 
 319   0.0000       1.614009        43.9194 
 320   0.0000       1.614424        43.9307 
 321   0.0000       1.619119        44.0585 
 322   0.0000       1.619797        44.0769 
 323   0.0000       1.623607        44.1806 
 324   0.0000       1.625817        44.2407 
 325   0.0000       1.630411        44.3657 
 326   0.0000       1.634076        44.4655 
 327   0.0000       1.636557        44.5330 
 328   0.0000       1.638315        44.5808 
 329   0.0000       1.638660        44.5902 
 330   0.0000       1.639476        44.6124 
 331   0.0000       1.646081        44.7921 
 332   0.0000       1.646491        44.8033 
 333   0.0000       1.649581        44.8874 
 334   0.0000       1.651958        44.9521 
 335   0.0000       1.654813        45.0298 
 336   0.0000       1.655087        45.0372 
 337   0.0000       1.658998        45.1436 
 338   0.0000       1.661735        45.2181 
 339   0.0000       1.662796        45.2470 
 340   0.0000       1.670777        45.4642 
 341   0.0000       1.672925        45.5226 
 342   0.0000       1.676865        45.6298 
 343   0.0000       1.679747        45.7082 
 344   0.0000       1.682519        45.7837 
 345   0.0000       1.688931        45.9582 
 346   0.0000       1.690074        45.9892 
 347   0.0000       1.706941        46.4482 
 348   0.0000       1.710488        46.5447 
 349   0.0000       1.719378        46.7866 
 350   0.0000       1.720212        46.8093 
 351   0.0000       1.762101        47.9492 
 352   0.0000       1.774476        48.2860 
 353   0.0000       1.790083        48.7106 
 354   0.0000       1.799062        48.9550 
 355   0.0000       1.806465        49.1564 
 356   0.0000       1.827285        49.7230 
 357   0.0000       1.844157        50.1821 
 358   0.0000       1.856545        50.5192 
 359   0.0000       1.865839        50.7721 
 360   0.0000       1.890064        51.4313 
 361   0.0000       1.905879        51.8616 
 362   0.0000       1.914747        52.1029 
 363   0.0000       1.926991        52.4361 
 364   0.0000       1.934106        52.6297 
 365   0.0000       1.939319        52.7715 
 366   0.0000       1.953973        53.1703 
 367   0.0000       1.984908        54.0121 
 368   0.0000       2.034074        55.3500 
 369   0.0000       2.206790        60.0498 
 370   0.0000       2.272772        61.8453 
 371   0.0000       2.303877        62.6917 
 372   0.0000       2.342702        63.7482 
 373   0.0000       2.352838        64.0240 
 374   0.0000       2.370040        64.4921 
 375   0.0000       2.426715        66.0343 
 376   0.0000       2.491533        67.7981 
 377   0.0000       2.512757        68.3756 
 378   0.0000       2.536306        69.0164 
 379   0.0000       2.574029        70.0429 
 380   0.0000       2.586451        70.3809 
 381   0.0000       2.651776        72.1585 
 382   0.0000       3.374878        91.8351 
 383   0.0000       3.513251        95.6004 
 384   0.0000       3.642787        99.1253 
 385   0.0000       3.768959       102.5586 
 386   0.0000       3.806167       103.5711 
 387   0.0000       3.892729       105.9265 
 388   0.0000       3.970172       108.0339 
 389   0.0000       3.979655       108.2919 
 390   0.0000       3.985325       108.4462 
 391   0.0000       3.988225       108.5251 
 392   0.0000       4.003123       108.9305 
 393   0.0000       4.009453       109.1028 
 394   0.0000       4.024939       109.5242 
 395   0.0000      23.681078       644.3949 
 396   0.0000      23.942871       651.5186 
 397   0.0000      24.089407       655.5061 
 398   0.0000      24.126217       656.5078 
 399   0.0000      24.449078       665.2932 
 400   0.0000      24.464822       665.7217 
 401   0.0000      25.073901       682.2955 
 402   0.0000      25.302807       688.5244 
 403   0.0000      25.413050       691.5243 
 404   0.0000      25.753073       700.7767 
 405   0.0000      25.957679       706.3444 
 406   0.0000      26.000603       707.5124 
 407   0.0000      26.062148       709.1871 
 408   0.0000      26.327122       716.3974 
 409   0.0000      26.386953       718.0255 
 410   0.0000      26.467445       720.2158 
 411   0.0000      26.569472       722.9921 
 412   0.0000      26.786428       728.8958 
 413   0.0000      27.018031       735.1980 
 414   0.0000      27.046118       735.9623 
 415   0.0000      27.219775       740.6877 
 416   0.0000      27.337757       743.8982 
 417   0.0000      27.481977       747.8226 
 418   0.0000      27.489100       748.0164 
 419   0.0000      27.655320       752.5395 
 420   0.0000      27.903060       759.2809 
 421   0.0000      28.401659       772.8484 
 422   0.0000      28.516514       775.9738 
 423   0.0000      29.612960       805.8096 
 424   0.0000      30.320463       825.0617 
 425   0.0000      44.333447      1206.3744 
 426   0.0000      44.426918      1208.9179 
 427   0.0000      44.456443      1209.7213 
 428   0.0000      44.471621      1210.1343 
 429   0.0000      44.516105      1211.3448 
 430   0.0000      44.608233      1213.8517 
 431   0.0000      44.609502      1213.8863 
 432   0.0000      44.631762      1214.4920 
 433   0.0000      44.665905      1215.4211 
 434   0.0000      44.715909      1216.7818 
 435   0.0000     205.233413      5584.6851 
 436   0.0000     205.274211      5585.7953 
 437   0.0000     205.285957      5586.1149 
 438   0.0000     205.288058      5586.1721 
 439   0.0000     205.309934      5586.7673 
 440   0.0000     205.343274      5587.6745 
 441   0.0000     205.347256      5587.7829 
 442   0.0000     205.351814      5587.9069 
 443   0.0000     205.365151      5588.2698 
 444   0.0000     205.391772      5588.9943 

                 SPIN DOWN ORBITALS
  NO   OCC          E(Eh)            E(eV) 
   0   1.0000    -255.646506     -6956.4951 
   1   1.0000     -29.872265      -812.8657 
   2   1.0000     -25.725022      -700.0134 
   3   1.0000     -25.722327      -699.9401 
   4   1.0000     -25.716725      -699.7877 
   5   1.0000      -4.121529      -112.1525 
   6   1.0000      -4.117721      -112.0489 
   7   1.0000      -4.113565      -111.9358 
   8   1.0000      -4.113286      -111.9282 
   9   1.0000      -4.109092      -111.8141 
  10   1.0000      -4.108761      -111.8051 
  11   1.0000      -4.108234      -111.7907 
  12   1.0000      -4.108150      -111.7885 
  13   1.0000      -4.106335      -111.7391 
  14   1.0000      -4.097072      -111.4870 
  15   1.0000      -3.357991       -91.3756 
  16   1.0000      -2.312242       -62.9193 
  17   1.0000      -2.307203       -62.7822 
  18   1.0000      -2.306586       -62.7654 
  19   1.0000      -2.305627       -62.7393 
  20   1.0000      -2.303023       -62.6685 
  21   1.0000      -2.302724       -62.6603 
  22   1.0000      -2.301911       -62.6382 
  23   1.0000      -2.301333       -62.6224 
  24   1.0000      -2.299589       -62.5750 
  25   1.0000      -2.299298       -62.5671 
  26   1.0000      -2.299044       -62.5602 
  27   1.0000      -2.297735       -62.5246 
  28   1.0000      -2.297460       -62.5171 
  29   1.0000      -2.297091       -62.5070 
  30   1.0000      -2.295813       -62.4723 
  31   1.0000      -2.294619       -62.4397 
  32   1.0000      -2.293791       -62.4172 
  33   1.0000      -2.293697       -62.4147 
  34   1.0000      -2.292832       -62.3911 
  35   1.0000      -2.292399       -62.3793 
  36   1.0000      -2.291905       -62.3659 
  37   1.0000      -2.291728       -62.3611 
  38   1.0000      -2.291461       -62.3538 
  39   1.0000      -2.290132       -62.3176 
  40   1.0000      -2.289892       -62.3111 
  41   1.0000      -2.289782       -62.3081 
  42   1.0000      -2.289380       -62.2972 
  43   1.0000      -2.288144       -62.2636 
  44   1.0000      -2.283543       -62.1384 
  45   1.0000      -2.275443       -61.9179 
  46   1.0000      -2.126083       -57.8536 
  47   1.0000      -2.125588       -57.8402 
  48   1.0000      -2.121104       -57.7182 
  49   1.0000      -0.421647       -11.4736 
  50   1.0000      -0.383129       -10.4255 
  51   1.0000      -0.378531       -10.3004 
  52   1.0000      -0.365083        -9.9344 
  53   1.0000      -0.359906        -9.7936 
  54   1.0000      -0.355733        -9.6800 
  55   1.0000      -0.353819        -9.6279 
  56   1.0000      -0.350047        -9.5253 
  57   1.0000      -0.343566        -9.3489 
  58   1.0000      -0.341563        -9.2944 
  59   1.0000      -0.337585        -9.1862 
  60   1.0000      -0.334089        -9.0910 
  61   1.0000      -0.333496        -9.0749 
  62   1.0000      -0.331441        -9.0190 
  63   1.0000      -0.331050        -9.0083 
  64   1.0000      -0.328142        -8.9292 
  65   1.0000      -0.326457        -8.8834 
  66   1.0000      -0.324670        -8.8347 
  67   1.0000      -0.319822        -8.7028 
  68   1.0000      -0.316698        -8.6178 
  69   1.0000      -0.312696        -8.5089 
  70   1.0000      -0.312288        -8.4978 
  71   1.0000      -0.308039        -8.3822 
  72   1.0000      -0.304665        -8.2903 
  73   1.0000      -0.301408        -8.2017 
  74   1.0000      -0.301005        -8.1908 
  75   1.0000      -0.296861        -8.0780 
  76   1.0000      -0.291728        -7.9383 
  77   1.0000      -0.290879        -7.9152 
  78   1.0000      -0.289227        -7.8703 
  79   1.0000      -0.286936        -7.8079 
  80   1.0000      -0.286873        -7.8062 
  81   1.0000      -0.283402        -7.7118 
  82   1.0000      -0.280309        -7.6276 
  83   1.0000      -0.280179        -7.6241 
  84   1.0000      -0.278531        -7.5792 
  85   1.0000      -0.278234        -7.5711 
  86   1.0000      -0.273203        -7.4342 
  87   1.0000      -0.270904        -7.3717 
  88   1.0000      -0.268704        -7.3118 
  89   1.0000      -0.267967        -7.2918 
  90   1.0000      -0.263914        -7.1815 
  91   1.0000      -0.262572        -7.1449 
  92   1.0000      -0.259258        -7.0548 
  93   1.0000      -0.256996        -6.9932 
  94   1.0000      -0.256720        -6.9857 
  95   1.0000      -0.256484        -6.9793 
  96   1.0000      -0.254928        -6.9370 
  97   1.0000      -0.254713        -6.9311 
  98   1.0000      -0.247165        -6.7257 
  99   1.0000      -0.246198        -6.6994 
 100   1.0000      -0.243354        -6.6220 
 101   1.0000      -0.240321        -6.5395 
 102   1.0000      -0.231501        -6.2995 
 103   1.0000      -0.211187        -5.7467 
 104   1.0000      -0.188756        -5.1363 
 105   1.0000      -0.182587        -4.9685 
 106   0.0000      -0.190509        -5.1840 
 107   0.0000      -0.163424        -4.4470 
 108   0.0000      -0.151627        -4.1260 
 109   0.0000      -0.142723        -3.8837 
 110   0.0000      -0.136200        -3.7062 
 111   0.0000      -0.133351        -3.6287 
 112   0.0000      -0.117875        -3.2075 
 113   0.0000      -0.097370        -2.6496 
 114   0.0000      -0.090195        -2.4543 
 115   0.0000      -0.073207        -1.9921 
 116   0.0000      -0.049649        -1.3510 
 117   0.0000      -0.041682        -1.1342 
 118   0.0000      -0.037928        -1.0321 
 119   0.0000      -0.034724        -0.9449 
 120   0.0000      -0.032239        -0.8773 
 121   0.0000      -0.020146        -0.5482 
 122   0.0000      -0.015373        -0.4183 
 123   0.0000       0.012278         0.3341 
 124   0.0000       0.017595         0.4788 
 125   0.0000       0.034258         0.9322 
 126   0.0000       0.039011         1.0615 
 127   0.0000       0.040117         1.0916 
 128   0.0000       0.052323         1.4238 
 129   0.0000       0.061769         1.6808 
 130   0.0000       0.064218         1.7475 
 131   0.0000       0.068820         1.8727 
 132   0.0000       0.074493         2.0271 
 133   0.0000       0.075447         2.0530 
 134   0.0000       0.079407         2.1608 
 135   0.0000       0.081126         2.2075 
 136   0.0000       0.085684         2.3316 
 137   0.0000       0.092497         2.5170 
 138   0.0000       0.102916         2.8005 
 139   0.0000       0.107991         2.9386 
 140   0.0000       0.111976         3.0470 
 141   0.0000       0.132029         3.5927 
 142   0.0000       0.134827         3.6688 
 143   0.0000       0.146425         3.9844 
 144   0.0000       0.149829         4.0770 
 145   0.0000       0.156636         4.2623 
 146   0.0000       0.158792         4.3210 
 147   0.0000       0.170123         4.6293 
 148   0.0000       0.181860         4.9487 
 149   0.0000       0.189448         5.1551 
 150   0.0000       0.197751         5.3811 
 151   0.0000       0.201272         5.4769 
 152   0.0000       0.206418         5.6169 
 153   0.0000       0.209616         5.7040 
 154   0.0000       0.230567         6.2741 
 155   0.0000       0.237891         6.4733 
 156   0.0000       0.241441         6.5699 
 157   0.0000       0.249435         6.7875 
 158   0.0000       0.256615         6.9828 
 159   0.0000       0.262478         7.1424 
 160   0.0000       0.266368         7.2483 
 161   0.0000       0.274528         7.4703 
 162   0.0000       0.276997         7.5375 
 163   0.0000       0.281543         7.6612 
 164   0.0000       0.288718         7.8564 
 165   0.0000       0.300094         8.1660 
 166   0.0000       0.302572         8.2334 
 167   0.0000       0.304459         8.2847 
 168   0.0000       0.313178         8.5220 
 169   0.0000       0.316688         8.6175 
 170   0.0000       0.317853         8.6492 
 171   0.0000       0.322196         8.7674 
 172   0.0000       0.324388         8.8270 
 173   0.0000       0.330266         8.9870 
 174   0.0000       0.333787         9.0828 
 175   0.0000       0.344687         9.3794 
 176   0.0000       0.344790         9.3822 
 177   0.0000       0.352980         9.6051 
 178   0.0000       0.363149         9.8818 
 179   0.0000       0.375624        10.2212 
 180   0.0000       0.377829        10.2812 
 181   0.0000       0.380542        10.3551 
 182   0.0000       0.387134        10.5345 
 183   0.0000       0.390420        10.6239 
 184   0.0000       0.393269        10.7014 
 185   0.0000       0.400815        10.9067 
 186   0.0000       0.411889        11.2081 
 187   0.0000       0.416575        11.3356 
 188   0.0000       0.421410        11.4671 
 189   0.0000       0.422666        11.5013 
 190   0.0000       0.437108        11.8943 
 191   0.0000       0.442782        12.0487 
 192   0.0000       0.448755        12.2113 
 193   0.0000       0.449888        12.2421 
 194   0.0000       0.456398        12.4192 
 195   0.0000       0.459326        12.4989 
 196   0.0000       0.468542        12.7497 
 197   0.0000       0.475193        12.9307 
 198   0.0000       0.485245        13.2042 
 199   0.0000       0.488351        13.2887 
 200   0.0000       0.490331        13.3426 
 201   0.0000       0.502444        13.6722 
 202   0.0000       0.511837        13.9278 
 203   0.0000       0.520999        14.1771 
 204   0.0000       0.525192        14.2912 
 205   0.0000       0.526049        14.3145 
 206   0.0000       0.533608        14.5202 
 207   0.0000       0.547189        14.8898 
 208   0.0000       0.547837        14.9074 
 209   0.0000       0.553882        15.0719 
 210   0.0000       0.556354        15.1392 
 211   0.0000       0.556973        15.1560 
 212   0.0000       0.574938        15.6449 
 213   0.0000       0.588210        16.0060 
 214   0.0000       0.610500        16.6125 
 215   0.0000       0.645283        17.5590 
 216   0.0000       0.674330        18.3495 
 217   0.0000       0.676240        18.4014 
 218   0.0000       0.700065        19.0497 
 219   0.0000       0.713049        19.4030 
 220   0.0000       0.722237        19.6531 
 221   0.0000       0.728467        19.8226 
 222   0.0000       0.742287        20.1987 
 223   0.0000       0.744559        20.2605 
 224   0.0000       0.761464        20.7205 
 225   0.0000       0.765565        20.8321 
 226   0.0000       0.786346        21.3976 
 227   0.0000       0.794706        21.6250 
 228   0.0000       0.807668        21.9778 
 229   0.0000       0.813316        22.1315 
 230   0.0000       0.849202        23.1080 
 231   0.0000       0.865865        23.5614 
 232   0.0000       0.869195        23.6520 
 233   0.0000       0.876225        23.8433 
 234   0.0000       0.878104        23.8944 
 235   0.0000       0.900039        24.4913 
 236   0.0000       0.914998        24.8984 
 237   0.0000       0.928012        25.2525 
 238   0.0000       0.945797        25.7365 
 239   0.0000       0.974255        26.5108 
 240   0.0000       1.007655        27.4197 
 241   0.0000       1.031557        28.0701 
 242   0.0000       1.041412        28.3383 
 243   0.0000       1.063953        28.9516 
 244   0.0000       1.066992        29.0343 
 245   0.0000       1.083421        29.4814 
 246   0.0000       1.151328        31.3292 
 247   0.0000       1.210402        32.9367 
 248   0.0000       1.241127        33.7728 
 249   0.0000       1.277116        34.7521 
 250   0.0000       1.303909        35.4812 
 251   0.0000       1.311233        35.6805 
 252   0.0000       1.322937        35.9989 
 253   0.0000       1.337208        36.3873 
 254   0.0000       1.358600        36.9694 
 255   0.0000       1.373429        37.3729 
 256   0.0000       1.375697        37.4346 
 257   0.0000       1.386054        37.7164 
 258   0.0000       1.400131        38.0995 
 259   0.0000       1.412453        38.4348 
 260   0.0000       1.420882        38.6642 
 261   0.0000       1.429256        38.8920 
 262   0.0000       1.436189        39.0807 
 263   0.0000       1.445616        39.3372 
 264   0.0000       1.449895        39.4536 
 265   0.0000       1.454643        39.5828 
 266   0.0000       1.463771        39.8312 
 267   0.0000       1.465901        39.8892 
 268   0.0000       1.470032        40.0016 
[...]
      f+1     :    -0.000003
      f-1     :     0.000001
      f+2     :    -0.000032
      f-2     :     0.000024
      f+3     :     0.000073
      f-3     :    -0.000013
  8 Aus       :    -0.201812  s :    -0.201812
      pz      :    -0.009829  p :    -0.004507
      px      :    -0.000713
      py      :     0.006035
      dz2     :     0.002328  d :     0.009483
      dxz     :    -0.000876
      dyz     :     0.003941
      dx2y2   :    -0.002185
      dxy     :     0.006274
      f0      :    -0.000012  f :    -0.000008
      f+1     :    -0.000011
      f-1     :     0.000005
      f+2     :     0.000010
      f-2     :    -0.000003
      f+3     :    -0.000000
      f-3     :     0.000002
  9 Aus       :    -0.077118  s :    -0.077118
      pz      :     0.002035  p :     0.005755
      px      :     0.006084
      py      :    -0.002364
      dz2     :     0.005757  d :     0.047699
      dxz     :     0.015666
      dyz     :    -0.001367
      dx2y2   :     0.017530
      dxy     :     0.010113
      f0      :     0.000007  f :     0.000057
      f+1     :     0.000028
      f-1     :    -0.000012
      f+2     :     0.000028
      f-2     :    -0.000008
      f+3     :     0.000002
      f-3     :     0.000012
 10 Fes       :     0.002988  s :     0.002988
      pz      :     0.011181  p :     0.028609
      px      :     0.010418
      py      :     0.007010
      dz2     :     0.501665  d :     3.012387
      dxz     :     0.851719
      dyz     :     0.507863
      dx2y2   :     0.370770
      dxy     :     0.780369
      f0      :     0.000002  f :     0.000020
      f+1     :    -0.000000
      f-1     :     0.000005
      f+2     :     0.000003
      f-2     :     0.000004
      f+3     :    -0.000001
      f-3     :     0.000008


                     *******************************
                     * LOEWDIN POPULATION ANALYSIS *
                     *******************************

-------------------------------------------
LOEWDIN ATOMIC CHARGES AND SPIN POPULATIONS
-------------------------------------------
   0 Au:    0.109605   -0.150592
   1 Au:   -0.078230   -0.073574
   2 Au:    0.084791    0.019119
   3 Au:    0.069542   -0.117956
   4 Au:    0.109979   -0.150617
   5 Au:    0.063308   -0.166165
   6 Au:    0.048545   -0.085008
   7 Au:    0.091905   -0.134661
   8 Au:    0.063634   -0.166486
   9 Au:    0.009411    0.002379
  10 Fe:   -0.572490    3.023561

----------------------------------------------------
LOEWDIN REDUCED ORBITAL CHARGES AND SPIN POPULATIONS
----------------------------------------------------
CHARGE
  0 Aus       :     2.647866  s :     2.647866
      pz      :     2.094606  p :     6.359944
      px      :     2.079291
      py      :     2.186047
      dz2     :     1.948574  d :     9.878404
      dxz     :     1.968913
      dyz     :     1.996185
      dx2y2   :     1.981499
      dxy     :     1.983233
      f0      :     0.000724  f :     0.004181
      f+1     :     0.000669
      f-1     :     0.000788
      f+2     :     0.000650
      f-2     :     0.000640
      f+3     :     0.000331
      f-3     :     0.000379
  1 Aus       :     2.541435  s :     2.541435
      pz      :     2.175639  p :     6.638069
      px      :     2.348326
      py      :     2.114105
      dz2     :     1.987812  d :     9.891869
      dxz     :     1.985507
      dyz     :     1.985141
      dx2y2   :     1.944549
      dxy     :     1.988861
      f0      :     0.000889  f :     0.006857
      f+1     :     0.000917
      f-1     :     0.000592
      f+2     :     0.000984
      f-2     :     0.000719
      f+3     :     0.001567
      f-3     :     0.001189
  2 Aus       :     2.892889  s :     2.892889
      pz      :     2.027659  p :     6.154387
      px      :     2.062571
      py      :     2.064157
      dz2     :     1.989944  d :     9.864141
      dxz     :     1.986579
      dyz     :     1.982592
      dx2y2   :     1.928086
      dxy     :     1.976941
      f0      :     0.000402  f :     0.003792
      f+1     :     0.000390
      f-1     :     0.000360
      f+2     :     0.000713
      f-2     :     0.000278
      f+3     :     0.000867
      f-3     :     0.000782
  3 Aus       :     2.557552  s :     2.557552
      pz      :     2.184228  p :     6.472941
      px      :     2.131647
      py      :     2.157066
      dz2     :     1.972464  d :     9.894361
      dxz     :     1.991803
      dyz     :     1.988787
      dx2y2   :     1.998918
      dxy     :     1.942389
      f0      :     0.000634  f :     0.005604
      f+1     :     0.000950
      f-1     :     0.000662
      f+2     :     0.000912
      f-2     :     0.000727
      f+3     :     0.000853
      f-3     :     0.000867
  4 Aus       :     2.648843  s :     2.648843
      pz      :     2.131682  p :     6.358952
      px      :     2.087620
      py      :     2.139649
      dz2     :     1.989317  d :     9.878043
      dxz     :     1.981615
      dyz     :     1.941391
      dx2y2   :     1.982258
      dxy     :     1.983462
      f0      :     0.000658  f :     0.004183
      f+1     :     0.000609
      f-1     :     0.000866
      f+2     :     0.000817
      f-2     :     0.000342
      f+3     :     0.000323
      f-3     :     0.000567
  5 Aus       :     2.644958  s :     2.644958
      pz      :     2.098049  p :     6.401109
      px      :     2.153830
      py      :     2.149229
      dz2     :     1.959561  d :     9.886074
      dxz     :     1.995229
      dyz     :     1.967879
      dx2y2   :     1.982424
      dxy     :     1.980980
      f0      :     0.000681  f :     0.004552
      f+1     :     0.000759
      f-1     :     0.000740
      f+2     :     0.000901
      f-2     :     0.000459
      f+3     :     0.000428
      f-3     :     0.000585
  6 Aus       :     2.684876  s :     2.684876
      pz      :     2.144723  p :     6.386021
      px      :     2.104350
      py      :     2.136948
      dz2     :     1.979170  d :     9.876249
      dxz     :     1.983790
      dyz     :     1.981692
      dx2y2   :     1.956597
      dxy     :     1.975001
      f0      :     0.000528  f :     0.004309
      f+1     :     0.000628
      f-1     :     0.000355
      f+2     :     0.000887
      f-2     :     0.000667
      f+3     :     0.000611
      f-3     :     0.000634
  7 Aus       :     2.669485  s :     2.669485
      pz      :     2.132950  p :     6.375531
      px      :     2.142039
      py      :     2.100542
      dz2     :     1.970524  d :     9.858291
      dxz     :     1.987952
      dyz     :     1.972718
      dx2y2   :     1.984854
      dxy     :     1.942243
      f0      :     0.000532  f :     0.004787
      f+1     :     0.000548
      f-1     :     0.000557
      f+2     :     0.000859
      f-2     :     0.000703
      f+3     :     0.000769
      f-3     :     0.000819
  8 Aus       :     2.643210  s :     2.643210
      pz      :     2.138274  p :     6.401858
      px      :     2.154616
      py      :     2.108968
      dz2     :     1.987327  d :     9.886732
      dxz     :     1.993849
      dyz     :     1.960991
      dx2y2   :     1.973095
      dxy     :     1.971471
      f0      :     0.000532  f :     0.004565
      f+1     :     0.000492
      f-1     :     0.000586
      f+2     :     0.000978
      f-2     :     0.000759
      f+3     :     0.000575
      f-3     :     0.000643
  9 Aus       :     2.623577  s :     2.623577
      pz      :     2.084858  p :     6.509192
      px      :     2.105836
      py      :     2.318498
      dz2     :     1.985265  d :     9.851668
      dxz     :     1.972128
      dyz     :     1.985260
      dx2y2   :     1.934963
      dxy     :     1.974052
      f0      :     0.000703  f :     0.006151
      f+1     :     0.000368
      f-1     :     0.000757
      f+2     :     0.000982
      f-2     :     0.000663
      f+3     :     0.001399
      f-3     :     0.001280
 10 Fes       :     6.313063  s :     6.313063
      pz      :     4.235611  p :    12.706262
      px      :     4.234711
      py      :     4.235941
      dz2     :     1.598997  d :     7.552423
      dxz     :     1.247239
      dyz     :     1.584117
      dx2y2   :     1.712194
      dxy     :     1.409876
      f0      :     0.000112  f :     0.000741
      f+1     :     0.000098
      f-1     :     0.000121
      f+2     :     0.000109
      f-2     :     0.000073
      f+3     :     0.000114
      f-3     :     0.000114

SPIN
  0 Aus       :    -0.106728  s :    -0.106728
      pz      :    -0.013219  p :    -0.053558
      px      :    -0.002851
      py      :    -0.037488
      dz2     :     0.019776  d :     0.009627
      dxz     :     0.006525
      dyz     :    -0.005362
      dx2y2   :    -0.010987
      dxy     :    -0.000325
      f0      :     0.000090  f :     0.000067
      f+1     :     0.000046
      f-1     :    -0.000009
      f+2     :    -0.000032
      f-2     :     0.000001
      f+3     :    -0.000013
      f-3     :    -0.000015
  1 Aus       :    -0.036974  s :    -0.036974
      pz      :    -0.033693  p :    -0.044437
      px      :    -0.002252
      py      :    -0.008491
      dz2     :    -0.007691  d :     0.007883
      dxz     :    -0.004918
      dyz     :     0.000970
      dx2y2   :     0.020151
      dxy     :    -0.000629
      f0      :    -0.000043  f :    -0.000046
      f+1     :    -0.000020
      f-1     :    -0.000001
      f+2     :     0.000021
      f-2     :    -0.000037
      f+3     :     0.000009
      f-3     :     0.000026
  2 Aus       :     0.043555  s :     0.043555
      pz      :    -0.001643  p :    -0.007533
      px      :     0.000998
      py      :    -0.006888
      dz2     :     0.000394  d :    -0.016774
      dxz     :    -0.001847
      dyz     :    -0.001682
      dx2y2   :    -0.015550
      dxy     :     0.001911
      f0      :    -0.000002  f :    -0.000129
      f+1     :    -0.000003
      f-1     :     0.000003
      f+2     :    -0.000044
      f-2     :    -0.000001
      f+3     :    -0.000063
      f-3     :    -0.000018
  3 Aus       :    -0.057507  s :    -0.057507
      pz      :    -0.021644  p :    -0.047530
      px      :    -0.017534
      py      :    -0.008352
      dz2     :    -0.006998  d :    -0.012930
      dxz     :    -0.012973
      dyz     :    -0.002954
      dx2y2   :    -0.003139
      dxy     :     0.013134
      f0      :    -0.000012  f :     0.000011
      f+1     :    -0.000047
      f-1     :    -0.000017
      f+2     :    -0.000054
      f-2     :    -0.000010
      f+3     :     0.000027
      f-3     :     0.000124
  4 Aus       :    -0.106905  s :    -0.106905
      pz      :    -0.017777  p :    -0.053526
      px      :    -0.009848
      py      :    -0.025901
      dz2     :     0.001580  d :     0.009745
      dxz     :     0.000762
      dyz     :     0.012545
      dx2y2   :    -0.012701
      dxy     :     0.007559
      f0      :    -0.000029  f :     0.000069
      f+1     :    -0.000008
      f-1     :     0.000037
      f+2     :     0.000006
      f-2     :     0.000064
      f+3     :     0.000015
      f-3     :    -0.000016
  5 Aus       :    -0.107150  s :    -0.107150
      pz      :    -0.010955  p :    -0.056685
      px      :    -0.003564
      py      :    -0.042166
      dz2     :     0.011655  d :    -0.002350
      dxz     :     0.005765
      dyz     :     0.006131
      dx2y2   :    -0.023427
      dxy     :    -0.002474
      f0      :     0.000035  f :     0.000020
      f+1     :     0.000012
      f-1     :     0.000046
      f+2     :    -0.000037
      f-2     :     0.000016
      f+3     :    -0.000004
      f-3     :    -0.000048
  6 Aus       :    -0.025505  s :    -0.025505
      pz      :    -0.011470  p :    -0.038861
      px      :    -0.009927
      py      :    -0.017464
      dz2     :    -0.004844  d :    -0.020645
      dxz     :    -0.007266
      dyz     :    -0.016643
      dx2y2   :     0.003844
      dxy     :     0.004264
      f0      :    -0.000009  f :     0.000002
      f+1     :    -0.000005
      f-1     :    -0.000004
      f+2     :    -0.000012
      f-2     :    -0.000020
      f+3     :     0.000004
      f-3     :     0.000048
  7 Aus       :    -0.030647  s :    -0.030647
      pz      :    -0.030984  p :    -0.076470
      px      :    -0.022875
      py      :    -0.022610
      dz2     :    -0.004724  d :    -0.027636
      dxz     :    -0.019032
      dyz     :    -0.005012
      dx2y2   :    -0.009023
      dxy     :     0.010155
      f0      :    -0.000005  f :     0.000092
      f+1     :    -0.000010
      f-1     :     0.000014
      f+2     :    -0.000074
      f-2     :     0.000035
      f+3     :     0.000132
      f-3     :    -0.000000
  8 Aus       :    -0.107572  s :    -0.107572
      pz      :    -0.029085  p :    -0.056278
      px      :    -0.001819
      py      :    -0.025373
      dz2     :     0.000614  d :    -0.002653
      dxz     :    -0.002633
      dyz     :     0.000501
      dx2y2   :    -0.007074
      dxy     :     0.005938
      f0      :     0.000000  f :     0.000016
      f+1     :    -0.000020
      f-1     :     0.000018
      f+2     :    -0.000011
      f-2     :     0.000011
      f+3     :     0.000019
      f-3     :    -0.000000
  9 Aus       :    -0.042473  s :    -0.042473
      pz      :     0.002356  p :     0.004496
      px      :     0.006682
      py      :    -0.004542
      dz2     :     0.003535  d :     0.040159
      dxz     :     0.015348
      dyz     :    -0.004699
      dx2y2   :     0.016222
      dxy     :     0.009754
      f0      :     0.000025  f :     0.000197
      f+1     :     0.000065
      f-1     :    -0.000017
      f+2     :     0.000061
      f-2     :    -0.000004
      f+3     :     0.000029
      f-3     :     0.000037
 10 Fes       :     0.012392  s :     0.012392
      pz      :     0.007167  p :     0.018048
      px      :     0.006092
      py      :     0.004789
      dz2     :     0.487066  d :     2.993115
      dxz     :     0.847201
      dyz     :     0.502527
      dx2y2   :     0.375154
      dxy     :     0.781167
      f0      :     0.000000  f :     0.000006
      f+1     :    -0.000002
      f-1     :     0.000002
      f+2     :     0.000000
      f-2     :     0.000002
      f+3     :    -0.000003
      f-3     :     0.000007


                      *****************************
                      * MAYER POPULATION ANALYSIS *
                      *****************************

  NA   - Mulliken gross atomic population
  ZA   - Total nuclear charge
  QA   - Mulliken gross atomic charge
  VA   - Mayer's total valence
  BVA  - Mayer's bonded valence
  FA   - Mayer's free valence

  ATOM       NA         ZA         QA         VA         BVA        FA
  0 Au    18.8146    19.0000     0.1854     1.4407     1.3912     0.0494
  1 Au    19.0628    19.0000    -0.0628     2.0408     2.0316     0.0092
  2 Au    18.7291    19.0000     0.2709     1.3610     1.3543     0.0067
  3 Au    18.6640    19.0000     0.3360     1.5303     1.5110     0.0193
  4 Au    18.8147    19.0000     0.1853     1.4393     1.3898     0.0495
  5 Au    18.7621    19.0000     0.2379     1.4068     1.3595     0.0473
  6 Au    18.8458    19.0000     0.1542     1.4653     1.4544     0.0109
  7 Au    18.6956    19.0000     0.3044     1.4704     1.4617     0.0088
  8 Au    18.7617    19.0000     0.2383     1.4076     1.3600     0.0476
  9 Au    19.1198    19.0000    -0.1198     1.9969     1.9810     0.0159
 10 Fe    27.7298    26.0000    -1.7298     8.0414     5.6196     2.4219

  Mayer bond orders larger than 0.100000
B(  0-Au,  1-Au) :   0.1352 B(  0-Au,  3-Au) :   0.1596 B(  0-Au,  8-Au) :   0.2028 
B(  0-Au, 10-Fe) :   0.7053 B(  1-Au,  2-Au) :   0.5428 B(  1-Au,  3-Au) :   0.3301 
B(  1-Au,  4-Au) :   0.1391 B(  1-Au,  9-Au) :   0.2339 B(  1-Au, 10-Fe) :   0.5146 
B(  2-Au,  9-Au) :   0.5203 B(  3-Au,  4-Au) :   0.1575 B(  3-Au,  6-Au) :   0.1826 
B(  3-Au, 10-Fe) :   0.5197 B(  4-Au,  5-Au) :   0.2006 B(  4-Au, 10-Fe) :   0.7056 
B(  5-Au,  6-Au) :   0.2443 B(  5-Au,  7-Au) :   0.1247 B(  5-Au, 10-Fe) :   0.6211 
B(  6-Au,  8-Au) :   0.2438 B(  6-Au, 10-Fe) :   0.5562 B(  7-Au,  8-Au) :   0.1240 
B(  7-Au,  9-Au) :   0.3956 B(  7-Au, 10-Fe) :   0.5886 B(  8-Au, 10-Fe) :   0.6203 
B(  9-Au, 10-Fe) :   0.6909 

-------
TIMINGS
-------

Total SCF time: 0 days 0 hours 1 min 17 sec 

Total time                  ....      77.864 sec
Sum of individual times     ....      76.988 sec  ( 98.9%)

Fock matrix formation       ....      73.644 sec  ( 94.6%)
  Split-RI-J                ....      12.038 sec  ( 16.3% of F)
  XC integration            ....      61.099 sec  ( 83.0% of F)
    Basis function eval.    ....       3.999 sec  (  6.5% of XC)
    Density eval.           ....      24.611 sec  ( 40.3% of XC)
    XC-Functional eval.     ....       2.949 sec  (  4.8% of XC)
    XC-Potential eval.      ....      28.610 sec  ( 46.8% of XC)
Diagonalization             ....       2.141 sec  (  2.7%)
Density matrix formation    ....       0.157 sec  (  0.2%)
Population analysis         ....       0.063 sec  (  0.1%)
Initial guess               ....       0.083 sec  (  0.1%)
Orbital Transformation      ....       0.000 sec  (  0.0%)
Orbital Orthonormalization  ....       0.067 sec  (  0.1%)
DIIS solution               ....       0.000 sec  (  0.0%)
Grid generation             ....       0.899 sec  (  1.2%)

Maximum memory used throughout the entire SCF-calculation: 64.4 MB

-------------------------   --------------------
FINAL SINGLE POINT ENERGY     -2622.115978294701
-------------------------   --------------------


                            ***************************************
                            *     ORCA property calculations      *
                            ***************************************

                                    ---------------------
                                    Active property flags
                                    ---------------------
   (+) Dipole Moment


------------------------------------------------------------------------------
                       ORCA ELECTRIC PROPERTIES CALCULATION
------------------------------------------------------------------------------

Dipole Moment Calculation                       ... on
Quadrupole Moment Calculation                   ... off
Polarizability Calculation                      ... off
GBWName                                         ... scan_job2.gbw
Electron density                                ... scan_job2.scfp
The origin for moment calculation is the CENTER OF MASS  = (13.379573, 16.088518 16.041998)

-------------
DIPOLE MOMENT
-------------
                                X             Y             Z
Electronic contribution:      5.88785      12.84323      -5.38265
Nuclear contribution   :     -5.98958     -12.82669       5.39523
                        -----------------------------------------
Total Dipole Moment    :     -0.10174       0.01654       0.01258
                        -----------------------------------------
Magnitude (a.u.)       :      0.10384
Magnitude (Debye)      :      0.26393



--------------------
Rotational spectrum 
--------------------
 
Rotational constants in cm-1:     0.002123     0.001496     0.001387 
Rotational constants in MHz :    63.635694    44.852367    41.587551 

 Dipole components along the rotational axes: 
x,y,z [a.u.] :    -0.059601    -0.084947    -0.003724 
x,y,z [Debye]:    -0.151493    -0.215918    -0.009465 

 

Timings for individual modules:

Sum of individual times         ...       82.192 sec (=   1.370 min)
GTO integral calculation        ...        4.209 sec (=   0.070 min)   5.1 %
SCF iterations                  ...       77.982 sec (=   1.300 min)  94.9 %



                             ****ORCA TERMINATED NORMALLY****
TOTAL RUN TIME: 0 days 0 hours 5 minutes 22 seconds 19 msec
