
                                 *****************
                                 * O   R   C   A *
                                 *****************

                                            #,                                       
                                            ###                                      
                                            ####                                     
                                            #####                                    
                                            ######                                   
                                           ########,                                 
                                     ,,################,,,,,                         
                               ,,#################################,,                 
                          ,,##########################################,,             
                       ,#########################################, ''#####,          
                    ,#############################################,,   '####,        
                  ,##################################################,,,,####,       
                ,###########''''           ''''###############################       
              ,#####''   ,,,,##########,,,,          '''####'''          '####       
            ,##' ,,,,###########################,,,                        '##       
           ' ,,###''''                  '''############,,,                           
         ,,##''                                '''############,,,,        ,,,,,,###''
      ,#''                                            '''#######################'''  
     '                                                          ''''####''''         
             ,#######,   #######,   ,#######,      ##                                
            ,#'     '#,  ##    ##  ,#'     '#,    #''#        ######   ,####,        
            ##       ##  ##   ,#'  ##            #'  '#       #        #'  '#        
            ##       ##  #######   ##           ,######,      #####,   #    #        
            '#,     ,#'  ##    ##  '#,     ,#' ,#      #,         ##   #,  ,#        
             '#######'   ##     ##  '#######'  #'      '#     #####' # '####'        



                  #######################################################
                  #                        -***-                        #
                  #          Department of theory and spectroscopy      #
                  #    Directorship and core code : Frank Neese         #
                  #        Max Planck Institute fuer Kohlenforschung    #
                  #                Kaiser Wilhelm Platz 1               #
                  #                 D-45470 Muelheim/Ruhr               #
                  #                      Germany                        #
                  #                                                     #
                  #                  All rights reserved                #
                  #                        -***-                        #
                  #######################################################


                         Program Version 5.0.3 -  RELEASE  -


 With contributions from (in alphabetic order):
   Daniel Aravena         : Magnetic Suceptibility
   Michael Atanasov       : Ab Initio Ligand Field Theory (pilot matlab implementation)
   Alexander A. Auer      : GIAO ZORA, VPT2 properties, NMR spectrum
   Ute Becker             : Parallelization
   Giovanni Bistoni       : ED, misc. LED, open-shell LED, HFLD
   Martin Brehm           : Molecular dynamics
   Dmytro Bykov           : SCF Hessian
   Vijay G. Chilkuri      : MRCI spin determinant printing, contributions to CSF-ICE
   Dipayan Datta          : RHF DLPNO-CCSD density
   Achintya Kumar Dutta   : EOM-CC, STEOM-CC
   Dmitry Ganyushin       : Spin-Orbit,Spin-Spin,Magnetic field MRCI
   Miquel Garcia          : C-PCM and meta-GGA Hessian, CC/C-PCM, Gaussian charge scheme
   Yang Guo               : DLPNO-NEVPT2, F12-NEVPT2, CIM, IAO-localization
   Andreas Hansen         : Spin unrestricted coupled pair/coupled cluster methods
   Benjamin Helmich-Paris : MC-RPA, TRAH-SCF, COSX integrals
   Lee Huntington         : MR-EOM, pCC
   Robert Izsak           : Overlap fitted RIJCOSX, COSX-SCS-MP3, EOM
   Marcus Kettner         : VPT2
   Christian Kollmar      : KDIIS, OOCD, Brueckner-CCSD(T), CCSD density, CASPT2, CASPT2-K
   Simone Kossmann        : Meta GGA functionals, TD-DFT gradient, OOMP2, MP2 Hessian
   Martin Krupicka        : Initial AUTO-CI
   Lucas Lang             : DCDCAS
   Marvin Lechner         : AUTO-CI (C++ implementation), FIC-MRCC
   Dagmar Lenk            : GEPOL surface, SMD
   Dimitrios Liakos       : Extrapolation schemes; Compound Job, initial MDCI parallelization
   Dimitrios Manganas     : Further ROCIS development; embedding schemes
   Dimitrios Pantazis     : SARC Basis sets
   Anastasios Papadopoulos: AUTO-CI, single reference methods and gradients
   Taras Petrenko         : DFT Hessian,TD-DFT gradient, ASA, ECA, R-Raman, ABS, FL, XAS/XES, NRVS
   Peter Pinski           : DLPNO-MP2, DLPNO-MP2 Gradient
   Christoph Reimann      : Effective Core Potentials
   Marius Retegan         : Local ZFS, SOC
   Christoph Riplinger    : Optimizer, TS searches, QM/MM, DLPNO-CCSD(T), (RO)-DLPNO pert. Triples
   Tobias Risthaus        : Range-separated hybrids, TD-DFT gradient, RPA, STAB
   Michael Roemelt        : Original ROCIS implementation
   Masaaki Saitow         : Open-shell DLPNO-CCSD energy and density
   Barbara Sandhoefer     : DKH picture change effects
   Avijit Sen             : IP-ROCIS
   Kantharuban Sivalingam : CASSCF convergence, NEVPT2, FIC-MRCI
   Bernardo de Souza      : ESD, SOC TD-DFT
   Georgi Stoychev        : AutoAux, RI-MP2 NMR, DLPNO-MP2 response
   Willem Van den Heuvel  : Paramagnetic NMR
   Boris Wezisla          : Elementary symmetry handling
   Frank Wennmohs         : Technical directorship


 We gratefully acknowledge several colleagues who have allowed us to
 interface, adapt or use parts of their codes:
   Stefan Grimme, W. Hujo, H. Kruse, P. Pracht,  : VdW corrections, initial TS optimization,
                  C. Bannwarth, S. Ehlert          DFT functionals, gCP, sTDA/sTD-DF
   Ed Valeev, F. Pavosevic, A. Kumar             : LibInt (2-el integral package), F12 methods
   Garnet Chan, S. Sharma, J. Yang, R. Olivares  : DMRG
   Ulf Ekstrom                                   : XCFun DFT Library
   Mihaly Kallay                                 : mrcc  (arbitrary order and MRCC methods)
   Jiri Pittner, Ondrej Demel                    : Mk-CCSD
   Frank Weinhold                                : gennbo (NPA and NBO analysis)
   Christopher J. Cramer and Donald G. Truhlar   : smd solvation model
   Lars Goerigk                                  : TD-DFT with DH, B97 family of functionals
   V. Asgeirsson, H. Jonsson                     : NEB implementation
   FAccTs GmbH                                   : IRC, NEB, NEB-TS, DLPNO-Multilevel, CI-OPT
                                                   MM, QMMM, 2- and 3-layer-ONIOM, Crystal-QMMM,
                                                   LR-CPCM, SF, NACMEs, symmetry and pop. for TD-DFT,
                                                   nearIR, NL-DFT gradient (VV10), updates on ESD,
                                                   ML-optimized integration grids
   S Lehtola, MJT Oliveira, MAL Marques          : LibXC Library
   Liviu Ungur et al                             : ANISO software


 Your calculation uses the libint2 library for the computation of 2-el integrals
 For citations please refer to: http://libint.valeyev.net

 Your ORCA version has been built with support for libXC version: 5.1.0
 For citations please refer to: https://tddft.org/programs/libxc/

 This ORCA versions uses:
   CBLAS   interface :  Fast vector & matrix operations
   LAPACKE interface :  Fast linear algebra routines
   SCALAPACK package :  Parallel linear algebra routines
   Shared memory     :  Shared parallel matrices
   BLAS/LAPACK       :  OpenBLAS 0.3.15  USE64BITINT DYNAMIC_ARCH NO_AFFINITY Haswell SINGLE_THREADED
        Core in use  :  Haswell
   Copyright (c) 2011-2014, The OpenBLAS Project




***************************************
The coordinates will be read from file: pbe.xyz
***************************************


================================================================================

cite the ECPs for Au [Def2-ECP] as follows:
Ce-Yb(ecp-28): M. Dolg, H. Stoll, H.Preuss, J. Chem. Phys., 1989, 90, 1730-1734.
Y-Cd(ecp-28), Hf-Hg(ecp-46): D. Andrae,U. Haeussermann, M. Dolg, H. Stoll, H. Preuss, Theor. Chim. Acta, 1990, 77, 123-141.
In-Sb(ecp-28), Tl-Bi(ecp-46): B. Metz, H. Stoll, M. Dolg, J. Chem. Phys., 2000, 113, 2563-2569.
Te-Xe(ecp-28), Po-Rn(ecp-46): K. A. Peterson, D. Figgen, E. Goll, H. Stoll, M. Dolg, J. Chem. Phys., 2003, 119, 11113-11123.
Rb(ecp-28), Cs(ecp-46): T. Leininger, A. Nicklass, W. Kuechle, H. Stoll, M. Dolg, A. Bergner, Chem. Phys. Lett., 1996, 255, 274-280.
Sr(ecp-28), Ba(ecp-46): M. Kaupp, P. V. Schleyer, H. Stoll and H. Preuss, J. Chem. Phys., 1991, 94, 1360-1366.
La(ecp-46): M. Dolg, H. Stoll, A. Savin, H. Preuss, Theor. Chim. Acta, 1989, 75, 173-194.
Lu(ecp-28): X. Cao, M. Dolg, J. Chem. Phys., 2001, 115, 7348-7355.

ECP parameters for Au [Def2-ECP] have been obtained from:
TURBOMOLE (7.0.2)

----- Orbital basis set information -----
Your calculation utilizes the basis: def2-TZVP
   F. Weigend and R. Ahlrichs, Phys. Chem. Chem. Phys. 7, 3297 (2005).

----- AuxJ basis set information -----
Your calculation utilizes the auxiliary basis: def2/J
   F. Weigend, Phys. Chem. Chem. Phys. 8, 1057 (2006).

----- AuxC basis set information -----
Your calculation utilizes the auxiliary basis: def2-TZVP/C
  H-La, Hf-Rn : A. Hellweg, C. Hattig, S. Hofener and W. Klopper, Theor. Chem. Acc. 117, 587 (2007).
        Ce-Lu : J. Chmela and M. E. Harding, Mol. Phys. (2018).

================================================================================
                                        WARNINGS
                       Please study these warnings very carefully!
================================================================================


WARNING: your system is open-shell and RHF/RKS was chosen
  ===> : WILL SWITCH to UHF/UKS


WARNING: No MP2 level density has been requested!
         To caclulate MP2 level properties use
         %mp2 Density relaxed end
         or
         %mp2 Density unrelaxed end
         Otherwise for double-hybrid DFT only the energy is correct!

WARNING: The frozen-core approximation is turned on by default for 
         the MP2 part of double-hybrid DFT.

INFO   : the flag for use of the SHARK integral package has been found!



***************************************
The coordinates will be read from file: pbe.xyz
***************************************


================================================================================

cite the ECPs for Au [Def2-ECP] as follows:
Ce-Yb(ecp-28): M. Dolg, H. Stoll, H.Preuss, J. Chem. Phys., 1989, 90, 1730-1734.
Y-Cd(ecp-28), Hf-Hg(ecp-46): D. Andrae,U. Haeussermann, M. Dolg, H. Stoll, H. Preuss, Theor. Chim. Acta, 1990, 77, 123-141.
In-Sb(ecp-28), Tl-Bi(ecp-46): B. Metz, H. Stoll, M. Dolg, J. Chem. Phys., 2000, 113, 2563-2569.
Te-Xe(ecp-28), Po-Rn(ecp-46): K. A. Peterson, D. Figgen, E. Goll, H. Stoll, M. Dolg, J. Chem. Phys., 2003, 119, 11113-11123.
Rb(ecp-28), Cs(ecp-46): T. Leininger, A. Nicklass, W. Kuechle, H. Stoll, M. Dolg, A. Bergner, Chem. Phys. Lett., 1996, 255, 274-280.
Sr(ecp-28), Ba(ecp-46): M. Kaupp, P. V. Schleyer, H. Stoll and H. Preuss, J. Chem. Phys., 1991, 94, 1360-1366.
La(ecp-46): M. Dolg, H. Stoll, A. Savin, H. Preuss, Theor. Chim. Acta, 1989, 75, 173-194.
Lu(ecp-28): X. Cao, M. Dolg, J. Chem. Phys., 2001, 115, 7348-7355.

ECP parameters for Au [Def2-ECP] have been obtained from:
TURBOMOLE (7.0.2)

----- Orbital basis set information -----
Your calculation utilizes the basis: def2-TZVP
   F. Weigend and R. Ahlrichs, Phys. Chem. Chem. Phys. 7, 3297 (2005).

----- AuxJ basis set information -----
Your calculation utilizes the auxiliary basis: def2/J
   F. Weigend, Phys. Chem. Chem. Phys. 8, 1057 (2006).

----- AuxC basis set information -----
Your calculation utilizes the auxiliary basis: def2-TZVP/C
  H-La, Hf-Rn : A. Hellweg, C. Hattig, S. Hofener and W. Klopper, Theor. Chem. Acc. 117, 587 (2007).
        Ce-Lu : J. Chmela and M. E. Harding, Mol. Phys. (2018).

================================================================================
                                        WARNINGS
                       Please study these warnings very carefully!
================================================================================


WARNING: No MP2 level density has been requested!
         To caclulate MP2 level properties use
         %mp2 Density relaxed end
         or
         %mp2 Density unrelaxed end
         Otherwise for double-hybrid DFT only the energy is correct!

WARNING: The frozen-core approximation is turned on by default for 
         the MP2 part of double-hybrid DFT.

INFO   : the flag for use of the SHARK integral package has been found!

================================================================================
                                       INPUT FILE
================================================================================
NAME = b2plyp.inp
|  1> !RI-B2PLYP def2-TZVP def2-TZVP/C
|  2> !RIJCOSX VERYSLOWCONV
|  3> 
|  4> %scf
|  5>   AutoTRAHIter 200
|  6>   maxiter 400
|  7> end
|  8> 
|  9> 
| 10> %pal nprocs 6 end 
| 11> 
| 12> *xyzfile 0 5 pbe.xyz
| 13> 
| 14> $new_job
| 15> 
| 16> !RI-B2PLYP def2-TZVP def2-TZVP/C
| 17> !RIJCOSX VERYSLOWCONV
| 18> 
| 19> %scf
| 20>   AutoTRAHIter 200
| 21>   maxiter 400
| 22> end
| 23> 
| 24> 
| 25> %pal nprocs 6 end 
| 26> 
| 27> *xyzfile 0 3 pbe.xyz
| 28> 
| 29> 
| 30> 
| 31> 
| 32> 
| 33>                          ****END OF INPUT****
================================================================================


                 $$$$$$$$$$$$$$$$$$$$$$$$$$$$$$$$$$$$$$$$$$$$$$ 
                 $ THERE ARE  2 JOBS TO BE PROCESSED THIS RUN $
                 $$$$$$$$$$$$$$$$$$$$$$$$$$$$$$$$$$$$$$$$$$$$$$ 




                 $$$$$$$$$$$$$$$$  JOB NUMBER  1 $$$$$$$$$$$$$$


                       ****************************
                       * Single Point Calculation *
                       ****************************

---------------------------------
CARTESIAN COORDINATES (ANGSTROEM)
---------------------------------
  Au     6.287668    7.829563   10.808696
  Au     6.496921   10.211340    9.433466
  Au     8.160671    5.844223   10.252461
  Au     9.309371    8.455637   10.251525
  Au     9.051277   10.083757    8.123070
  Au     4.874714    8.085624    8.423065
  Au     8.630047   10.488136    5.374669
  Au     8.656015    5.547804    7.499630
  Au     9.015610    7.884135    6.123113
  Au     6.243160    6.663736    6.441959
  Au     6.336932    9.398152    6.453652
  Au     6.984507   11.916855    7.324548
  Cr     7.577649    7.791260    8.450181

----------------------------
CARTESIAN COORDINATES (A.U.)
----------------------------
  NO LB      ZA    FRAG     MASS         X           Y           Z
   0 Au   19.0000*   0   196.966   11.881971   14.795730   20.425475
   1 Au   19.0000*   0   196.966   12.277402   19.296636   17.826667
   2 Au   19.0000*   0   196.966   15.421433   11.043982   19.374343
   3 Au   19.0000*   0   196.966   17.592161   15.978838   19.372575
   4 Au   19.0000*   0   196.966   17.104435   19.055538   15.350378
   5 Au   19.0000*   0   196.966    9.211873   15.279614   15.917287
   6 Au   19.0000*   0   196.966   16.308425   19.819705   10.156652
   7 Au   19.0000*   0   196.966   16.357498   10.483830   14.172247
   8 Au   19.0000*   0   196.966   17.037035   14.898856   11.571006
   9 Au   19.0000*   0   196.966   11.797862   12.592635   12.173539
  10 Au   19.0000*   0   196.966   11.975066   17.759934   12.195634
  11 Au   19.0000*   0   196.966   13.198806   22.519592   13.841390
  12 Cr   24.0000    0    52.000   14.319682   14.723347   15.968528
* core charge reduced due to ECP

--------------------------------
INTERNAL COORDINATES (ANGSTROEM)
--------------------------------
 Au     0   0   0     0.000000000000     0.00000000     0.00000000
 Au     1   0   0     2.758242912558     0.00000000     0.00000000
 Au     1   2   0     2.785517717741   117.70259969     0.00000000
 Au     3   1   2     2.852891726344    67.56707985    38.13119194
 Au     4   3   1     2.692156299452   121.01304782   280.25326297
 Au     1   2   3     2.784463861277    62.08990595   268.67723526
 Au     5   4   3     2.809745253616   151.01688823   335.87447460
 Au     3   1   2     2.812704414661   112.89024968   316.44958426
 Au     8   3   1     2.735425164612   115.19166934    45.39080050
 Au     6   1   2     2.796281980425   108.17412637   103.41027018
 Au    10   6   1     2.736049075354    60.36689498   254.18479056
 Au    11  10   6     2.742567649580   158.01403482    68.75356984
 Cr     4   3   1     2.585555292768    59.69141632   293.69370802

---------------------------
INTERNAL COORDINATES (A.U.)
---------------------------
 Au     0   0   0     0.000000000000     0.00000000     0.00000000
 Au     1   0   0     5.212323715564     0.00000000     0.00000000
 Au     1   2   0     5.263865627715   117.70259969     0.00000000
 Au     3   1   2     5.391184052520    67.56707985    38.13119194
 Au     4   3   1     5.087438115676   121.01304782   280.25326297
 Au     1   2   3     5.261874127615    62.08990595   268.67723526
 Au     5   4   3     5.309649035418   151.01688823   335.87447460
 Au     3   1   2     5.315241039380   112.89024968   316.44958426
 Au     8   3   1     5.169204420954   115.19166934    45.39080050
 Au     6   1   2     5.284207136221   108.17412637   103.41027018
 Au    10   6   1     5.170383441388    60.36689498   254.18479056
 Au    11  10   6     5.182701761459   158.01403482    68.75356984
 Cr     4   3   1     4.885991407443    59.69141632   293.69370802

---------------------
BASIS SET INFORMATION
---------------------
There are 2 groups of distinct atoms

 Group   1 Type Au  : 8s7p6d1f contracted to 6s4p3d1f pattern {311111/4111/411/1}
 Group   2 Type Cr  : 17s11p7d1f contracted to 6s4p4d1f pattern {842111/6311/4111/1}

Atom   0Au   basis set group =>   1
Atom   1Au   basis set group =>   1
Atom   2Au   basis set group =>   1
Atom   3Au   basis set group =>   1
Atom   4Au   basis set group =>   1
Atom   5Au   basis set group =>   1
Atom   6Au   basis set group =>   1
Atom   7Au   basis set group =>   1
Atom   8Au   basis set group =>   1
Atom   9Au   basis set group =>   1
Atom  10Au   basis set group =>   1
Atom  11Au   basis set group =>   1
Atom  12Cr   basis set group =>   2
---------------------------------
AUXILIARY/J BASIS SET INFORMATION
---------------------------------
There are 2 groups of distinct atoms

 Group   1 Type Au  : 11s5p5d3f3g contracted to 8s5p5d2f3g pattern {41111111/11111/11111/21/111}
 Group   2 Type Cr  : 19s5p5d3f3g contracted to 8s5p5d2f3g pattern {121111111/11111/11111/21/111}

Atom   0Au   basis set group =>   1
Atom   1Au   basis set group =>   1
Atom   2Au   basis set group =>   1
Atom   3Au   basis set group =>   1
Atom   4Au   basis set group =>   1
Atom   5Au   basis set group =>   1
Atom   6Au   basis set group =>   1
Atom   7Au   basis set group =>   1
Atom   8Au   basis set group =>   1
Atom   9Au   basis set group =>   1
Atom  10Au   basis set group =>   1
Atom  11Au   basis set group =>   1
Atom  12Cr   basis set group =>   2
---------------------------------
AUXILIARY/C BASIS SET INFORMATION
---------------------------------
There are 2 groups of distinct atoms

 Group   1 Type Au  : 8s8p7d5f3g2h contracted to 8s8p7d5f3g2h pattern {11111111/11111111/1111111/11111/111/11}
 Group   2 Type Cr  : 11s9p8d6f5g2h contracted to 9s8p8d6f5g2h pattern {311111111/21111111/11111111/111111/11111/11}

Atom   0Au   basis set group =>   1
Atom   1Au   basis set group =>   1
Atom   2Au   basis set group =>   1
Atom   3Au   basis set group =>   1
Atom   4Au   basis set group =>   1
Atom   5Au   basis set group =>   1
Atom   6Au   basis set group =>   1
Atom   7Au   basis set group =>   1
Atom   8Au   basis set group =>   1
Atom   9Au   basis set group =>   1
Atom  10Au   basis set group =>   1
Atom  11Au   basis set group =>   1
Atom  12Cr   basis set group =>   2
-------------------------
ECP PARAMETER INFORMATION
-------------------------

 Group 1, Type Au ECP Def2-ECP (replacing 60 core electrons, lmax=3)

Atom   0Au   ECP group =>   1
Atom   1Au   ECP group =>   1
Atom   2Au   ECP group =>   1
Atom   3Au   ECP group =>   1
Atom   4Au   ECP group =>   1
Atom   5Au   ECP group =>   1
Atom   6Au   ECP group =>   1
Atom   7Au   ECP group =>   1
Atom   8Au   ECP group =>   1
Atom   9Au   ECP group =>   1
Atom  10Au   ECP group =>   1
Atom  11Au   ECP group =>   1



           ************************************************************
           *        Program running with 6 parallel MPI-processes     *
           *              working on a common directory               *
           ************************************************************
------------------------------------------------------------------------------
                           ORCA GTO INTEGRAL CALCULATION
                           -- RI-GTO INTEGRALS CHOSEN --
------------------------------------------------------------------------------
------------------------------------------------------------------------------
                   ___                                                        
                  /   \      - P O W E R E D   B Y -                         
                 /     \                                                     
                 |  |  |   _    _      __       _____    __    __             
                 |  |  |  | |  | |    /  \     |  _  \  |  |  /  |          
                  \  \/   | |  | |   /    \    | | | |  |  | /  /          
                 / \  \   | |__| |  /  /\  \   | |_| |  |  |/  /          
                |  |  |   |  __  | /  /__\  \  |    /   |      \           
                |  |  |   | |  | | |   __   |  |    \   |  |\   \          
                \     /   | |  | | |  |  |  |  | |\  \  |  | \   \       
                 \___/    |_|  |_| |__|  |__|  |_| \__\ |__|  \__/        
                                                                              
                      - O R C A' S   B I G   F R I E N D -                    
                                      &                                       
                       - I N T E G R A L  F E E D E R -                       
                                                                              
 v1 FN, 2020, v2 2021                                                         
------------------------------------------------------------------------------


Reading SHARK input file b2plyp.SHARKINP.tmp ... ok
----------------------
SHARK INTEGRAL PACKAGE
----------------------

Number of atoms                             ...     13
Number of basis functions                   ...    525
Number of shells                            ...    183
Maximum angular momentum                    ...      3
Integral batch strategy                     ... SHARK/LIBINT Hybrid
RI-J (if used) integral strategy            ... SPLIT-RIJ (Revised 2003 algorithm where possible)
Printlevel                                  ...      1
Contraction scheme used                     ... SEGMENTED contraction
Coulomb Range Separation                    ... NOT USED
Exchange Range Separation                   ... NOT USED
Finite Nucleus Model                        ... NOT USED
Auxiliary Coulomb fitting basis             ... AVAILABLE
   # of basis functions in Aux-J            ...   1157
   # of shells in Aux-J                     ...    299
   Maximum angular momentum in Aux-J        ...      4
Auxiliary J/K fitting basis                 ... NOT available
Auxiliary Correlation fitting basis         ... AVAILABLE
   # of basis functions in Aux-C            ...   1994
   # of shells in Aux-C                     ...    434
   Maximum angular momentum in Aux-C        ...      5
Auxiliary 'external' fitting basis          ... NOT available
Integral threshold                          ...     1.000000e-10
Primitive cut-off                           ...     1.000000e-11
Primitive pair pre-selection threshold      ...     1.000000e-11

Calculating pre-screening integrals         ... done (  0.3 sec) Dimension = 183
Organizing shell pair data                  ... done (  0.5 sec)
Shell pair information
Total number of shell pairs                 ...     16836
Shell pairs after pre-screening             ...     13728
Total number of primitive shell pairs       ...     45389
Primitive shell pairs kept                  ...     27111
          la=0 lb=0:   2147 shell pairs
          la=1 lb=0:   3125 shell pairs
          la=1 lb=1:   1175 shell pairs
          la=2 lb=0:   2724 shell pairs
          la=2 lb=1:   1908 shell pairs
          la=2 lb=2:    785 shell pairs
          la=3 lb=0:    743 shell pairs
          la=3 lb=1:    560 shell pairs
          la=3 lb=2:    483 shell pairs
          la=3 lb=3:     78 shell pairs

Calculating one electron integrals          ... done (  0.3 sec)
Calculating ECP integrals                   ... done ( 14.7 sec)
Calculating RI/J V-Matrix + Cholesky decomp.... done (  2.6 sec)
Calculating RI/C V-Matrix + Cholesky decomp.... done (  3.1 sec)
Calculating Nuclear repulsion               ... done (  0.0 sec) ENN=   4304.904757317780 Eh

SHARK setup successfully completed in  22.7 seconds

Maximum memory used throughout the entire GTOINT-calculation: 39.2 MB


           ************************************************************
           *        Program running with 6 parallel MPI-processes     *
           *              working on a common directory               *
           ************************************************************
-------------------------------------------------------------------------------
                                 ORCA SCF
-------------------------------------------------------------------------------

------------
SCF SETTINGS
------------
Hamiltonian:
 Density Functional     Method          .... DFT(GTOs)
 Exchange Functional    Exchange        .... B88
   X-Alpha parameter    XAlpha          ....  0.666667
   Becke's b parameter  XBeta           ....  0.004200
 Correlation Functional Correlation     .... LYP
 LDA part of GGA corr.  LDAOpt          .... VWN-3
 Gradients option       PostSCFGGA      .... off
 Hybrid DFT is turned on
   Fraction HF Exchange ScalHFX         ....  0.530000
   Scaling of DF-GGA-X  ScalDFX         ....  0.470000
   Scaling of DF-GGA-C  ScalDFC         ....  0.730000
   Scaling of DF-LDA-C  ScalLDAC        ....  0.730000
   Perturbative correction              ....  0.270000
   Density functional embedding theory  .... OFF
   NL short-range parameter             ....  7.800000
 RI-approximation to the Coulomb term is turned on
   Number of AuxJ basis functions       .... 1157
   RIJ-COSX (HFX calculated with COS-X)).... on


General Settings:
 Integral files         IntName         .... b2plyp
 Hartree-Fock type      HFTyp           .... UHF
 Total Charge           Charge          ....    0
 Multiplicity           Mult            ....    5
 Number of Electrons    NEL             ....  252
 Basis Dimension        Dim             ....  525
 Nuclear Repulsion      ENuc            ....   4304.9047573178 Eh

Convergence Acceleration:
 DIIS                   CNVDIIS         .... on
   Start iteration      DIISMaxIt       ....     0
   Startup error        DIISStart       ....  0.200000
   # of expansion vecs  DIISMaxEq       ....     5
   Bias factor          DIISBfac        ....   1.050
   Max. coefficient     DIISMaxC        ....  10.000
 Trust-Rad. Augm. Hess. CNVTRAH         .... auto
   Auto Start mean grad. ratio tolernc. ....  1.125000
   Auto Start start iteration           ....   200
   Auto Start num. interpolation iter.  ....    10
   Max. Number of Micro iterations      ....    16
   Max. Number of Macro iterations      .... Maxiter - #DIIS iter
   Number of Davidson start vectors     ....     2
   Converg. threshold I  (grad. norm)   ....   5.000e-05
   Converg. threshold II (energy diff.) ....   1.000e-06
   Grad. Scal. Fac. for Micro threshold ....   0.100
   Minimum threshold for Micro iter.    ....   0.010
   NR start threshold (gradient norm)   ....   0.001
   Initial trust radius                 ....   0.400
   Minimum AH scaling param. (alpha)    ....   1.000
   Maximum AH scaling param. (alpha)    .... 1000.000
   Orbital update algorithm             .... Taylor
   White noise on init. David. guess    .... on
   Maximum white noise                  ....   0.010
   Quad. conv. algorithm                .... NR
 SOSCF                  CNVSOSCF        .... off
 Level Shifting         CNVShift        .... on
   Level shift para.    LevelShift      ....    0.2500
   Turn off err/grad.   ShiftErr        ....    0.0000
 Zerner damping         CNVZerner       .... off
 Static damping         CNVDamp         .... on
   Fraction old density DampFac         ....    0.9200
   Max. Damping (<1)    DampMax         ....    0.9800
   Min. Damping (>=0)   DampMin         ....    0.0000
   Turn off err/grad.   DampErr         ....    0.0030
 Fernandez-Rico         CNVRico         .... off

SCF Procedure:
 Maximum # iterations   MaxIter         ....   400
 SCF integral mode      SCFMode         .... Direct
   Integral package                     .... SHARK and LIBINT hybrid scheme
 Reset frequency        DirectResetFreq ....    20
 Integral Threshold     Thresh          ....  1.000e-10 Eh
 Primitive CutOff       TCut            ....  1.000e-11 Eh

Convergence Tolerance:
 Convergence Check Mode ConvCheckMode   .... Total+1el-Energy
 Convergence forced     ConvForced      .... 0
 Energy Change          TolE            ....  1.000e-06 Eh
 1-El. energy change                    ....  1.000e-03 Eh
 DIIS Error             TolErr          ....  1.000e-06


Diagonalization of the overlap matrix:
Smallest eigenvalue                        ... 1.530e-04
Time for diagonalization                   ...    0.132 sec
Threshold for overlap eigenvalues          ... 1.000e-08
Number of eigenvalues below threshold      ... 0
Time for construction of square roots      ...    0.280 sec
Total time needed                          ...    0.744 sec

Time for model grid setup =    1.741 sec

------------------------------
INITIAL GUESS: MODEL POTENTIAL
------------------------------
Loading Hartree-Fock densities                     ... done
  calling /media/Programs/ORCA501/orca b2plyp_atom79.inp > b2plyp_atom79.out in order to generate an atomic fitting density for atom 0 (Au with ECP) on-the-fly... 
    atom 0 (Au), assumed electronic state with S=2: 1s2 2s2 2p6 3s2 3p6 4s2 3d10 4p6 5s2 4d10 5p6 6s1 4f14 5d10           ... done
Calculating cut-offs                               ... done
Initializing the effective Hamiltonian             ... done
Setting up the integral package (SHARK)            ... done
Starting the Coulomb interaction                   ... done (   1.4 sec)
Reading the grid                                   ... done
Mapping shells                                     ... done
Starting the XC term evaluation                    ... done (   0.9 sec)
  promolecular density results
     # of electrons  =    972.012908247
     EX              =  -4455.960103004
     EC              =    -19.729049098
     EX+EC           =  -4475.689152102
Transforming the Hamiltonian                       ... done (   1.2 sec)
Diagonalizing the Hamiltonian                      ... done (   0.6 sec)
Back transforming the eigenvectors                 ... done (   0.0 sec)
Now organizing SCF variables                       ... done
                      ------------------
                      INITIAL GUESS DONE (   7.8 sec)
                      ------------------
-------------------
DFT GRID GENERATION
-------------------

General Integration Accuracy     IntAcc      ... 4.388
Radial Grid Type                 RadialGrid  ... OptM3 with GC (2021)
Angular Grid (max. ang.)         AngularGrid ... 4 (Lebedev-302)
Angular grid pruning method      GridPruning ... 4 (adaptive)
Weight generation scheme         WeightScheme... Becke
Basis function cutoff            BFCut       ... 1.0000e-10
Integration weight cutoff        WCut        ... 1.0000e-14
Angular grids for H and He will be reduced by one unit
Partially contracted basis set               ... off
Rotationally invariant grid construction     ... off

Total number of grid points                  ...   144629
Total number of batches                      ...     2265
Average number of points per batch           ...       63
Average number of grid points per atom       ...    11125
Time for grid setup =    3.508 sec

--------------------
COSX GRID GENERATION
--------------------

GRIDX 1
-------
General Integration Accuracy     IntAcc      ... 3.816
Radial Grid Type                 RadialGrid  ... OptM3 with GC (2021)
Angular Grid (max. ang.)         AngularGrid ... 1 (Lebedev-50)
Angular grid pruning method      GridPruning ... 4 (adaptive)
Weight generation scheme         WeightScheme... Becke
Basis function cutoff            BFCut       ... 1.0000e-10
Integration weight cutoff        WCut        ... 1.0000e-14
Angular grids for H and He will be reduced by one unit
Partially contracted basis set               ... on
Rotationally invariant grid construction     ... off

Total number of grid points                  ...    15219
Total number of batches                      ...      244
Average number of points per batch           ...       62
Average number of grid points per atom       ...     1171
UseSFitting                                  ... on

GRIDX 2
-------
General Integration Accuracy     IntAcc      ... 4.020
Radial Grid Type                 RadialGrid  ... OptM3 with GC (2021)
Angular Grid (max. ang.)         AngularGrid ... 2 (Lebedev-110)
Angular grid pruning method      GridPruning ... 4 (adaptive)
Weight generation scheme         WeightScheme... Becke
Basis function cutoff            BFCut       ... 1.0000e-10
Integration weight cutoff        WCut        ... 1.0000e-14
Angular grids for H and He will be reduced by one unit
Partially contracted basis set               ... on
Rotationally invariant grid construction     ... off

Total number of grid points                  ...    45951
Total number of batches                      ...      725
Average number of points per batch           ...       63
Average number of grid points per atom       ...     3535
UseSFitting                                  ... on

GRIDX 3
-------
General Integration Accuracy     IntAcc      ... 4.338
Radial Grid Type                 RadialGrid  ... OptM3 with GC (2021)
Angular Grid (max. ang.)         AngularGrid ... 3 (Lebedev-194)
Angular grid pruning method      GridPruning ... 4 (adaptive)
Weight generation scheme         WeightScheme... Becke
Basis function cutoff            BFCut       ... 1.0000e-10
Integration weight cutoff        WCut        ... 1.0000e-14
Angular grids for H and He will be reduced by one unit
Partially contracted basis set               ... on
Rotationally invariant grid construction     ... off

Total number of grid points                  ...    84180
Total number of batches                      ...     1322
Average number of points per batch           ...       63
Average number of grid points per atom       ...     6475
UseSFitting                                  ... on

Time for X-Grid setup             =    5.383 sec

--------------
SCF ITERATIONS
--------------
ITER       Energy         Delta-E        Max-DP      RMS-DP      [F,P]     Damp
               ***  Starting incremental Fock matrix formation  ***
  0  -2667.5548328508   0.000000000000 0.05811071  0.00052641  0.3073615 0.9200
  1  -2667.9307613563  -0.375928505460 0.05220274  0.00050522  0.2524643 0.9200
                               ***Turning on DIIS***
  2  -2668.1500930431  -0.219331686842 0.06915580  0.00043168  0.2321621 0.9200
  3  -2668.2539468784  -0.103853835267 0.06121650  0.00030411  0.2134724 0.9200
  4  -2668.3224197675  -0.068472889092 0.03439910  0.00025504  0.1962364 0.9200
  5  -2668.3868112400  -0.064391472502 0.03517276  0.00024438  0.1803760 0.9200
  6  -2668.4398738312  -0.053062591199 0.04580808  0.00023511  0.1659168 0.9200
  7  -2668.4922253537  -0.052351522523 0.04661313  0.00023502  0.1527473 0.9200
  8  -2668.5530062904  -0.060780936748 0.03770924  0.00022544  0.1406264 0.9200
  9  -2668.6084258929  -0.055419602431 0.04031566  0.00019800  0.1294116 0.9200
 10  -2668.6593981092  -0.050972216313 0.03529694  0.00017932  0.1190432 0.9200
 11  -2668.7054454481  -0.046047338961 0.03593261  0.00017048  0.1094720 0.9200
 12  -2668.7485017152  -0.043056267071 0.03791500  0.00016534  0.1006920 0.9200
 13  -2668.7904997573  -0.041998042141 0.03549968  0.00015779  0.0926462 0.9200
 14  -2668.8301370632  -0.039637305844 0.03090066  0.00014246  0.0852556 0.9200
 15  -2668.8670269671  -0.036889903956 0.02615427  0.00012914  0.0784426 0.9200
 16  -2668.9013144376  -0.034287470508 0.02436402  0.00012047  0.0721577 0.9200
 17  -2668.9333479072  -0.032033469516 0.02458116  0.00011419  0.0663745 0.9200
 18  -2668.9635428119  -0.030194904702 0.02375660  0.00010764  0.0610638 0.9200
 19  -2668.9918940616  -0.028351249771 0.02056258  0.00009885  0.0561844 0.9200
               *** Restarting incremental Fock matrix formation ***
                                   *** Resetting DIIS ***
 20  -2669.0202087377  -0.028314676050 0.01787266  0.00008709  0.0516918 0.9200
 21  -2669.0453001206  -0.025091382880 0.01594616  0.00007875  0.0475653 0.9200
 22  -2669.0686648681  -0.023364747529 0.01453548  0.00007286  0.0437796 0.9200
 23  -2669.0903533111  -0.021688442953 0.01385191  0.00006930  0.0402899 0.9200
 24  -2669.1104689295  -0.020115618414 0.01343018  0.00006648  0.0370750 0.9200
 25  -2669.1291376004  -0.018668670956 0.01291881  0.00006329  0.0341150 0.9200
 26  -2669.1464960700  -0.017358469609 0.01168859  0.00005938  0.0313919 0.9200
 27  -2669.1626263112  -0.016130241217 0.01019256  0.00005527  0.0288854 0.9200
 28  -2669.1776121721  -0.014985860826 0.00904234  0.00005153  0.0265778 0.9200
 29  -2669.1915355750  -0.013923402923 0.00832555  0.00004818  0.0244536 0.9200
 30  -2669.2044731136  -0.012937538598 0.00777023  0.00004505  0.0224990 0.9200
 31  -2669.2164922886  -0.012019175049 0.00709883  0.00004200  0.0207009 0.9200
 32  -2669.2276530143  -0.011160725649 0.00632738  0.00003905  0.0190469 0.9200
 33  -2669.2380118401  -0.010358825771 0.00564786  0.00003633  0.0175252 0.9200
 34  -2669.2476225786  -0.009610738583 0.00512629  0.00003383  0.0161248 0.9200
 35  -2669.2565359810  -0.008913402376 0.00469962  0.00003151  0.0148365 0.9200
 36  -2669.2647993674  -0.008263386372 0.00426899  0.00002934  0.0136519 0.9200
 37  -2669.2724568061  -0.007657438705 0.00383202  0.00002731  0.0125620 0.9200
 38  -2669.2795497869  -0.007092980789 0.00342088  0.00002542  0.0115591 0.9200
 39  -2669.2861173939  -0.006567607013 0.00267189  0.00002358  0.0106363 0.9200
               *** Restarting incremental Fock matrix formation ***
                                   *** Resetting DIIS ***
 40  -2669.2921947073  -0.006077313374 0.00291941  0.00001970  0.0097872 0.9200
 41  -2669.2978504005  -0.005655693210 0.00274975  0.00001758  0.0090116 0.9200
 42  -2669.3030775135  -0.005227113064 0.00233965  0.00001646  0.0082969 0.9200
 43  -2669.3079025475  -0.004825033991 0.00201047  0.00001595  0.0076374 0.9200
 44  -2669.3123539258  -0.004451378244 0.00176775  0.00001561  0.0070293 0.9200
 45  -2669.3164597332  -0.004105807438 0.00161295  0.00001501  0.0064690 0.9200
 46  -2669.3202490019  -0.003789268711 0.00139062  0.00001431  0.0059535 0.9200
 47  -2669.3237465264  -0.003497524461 0.00119366  0.00001359  0.0054789 0.9200
 48  -2669.3269749330  -0.003228406592 0.00116113  0.00001287  0.0050420 0.9200
 49  -2669.3299550356  -0.002980102653 0.00111874  0.00001217  0.0046398 0.9200
 50  -2669.3327059207  -0.002750885076 0.00107026  0.00001148  0.0042697 0.9200
 51  -2669.3352450766  -0.002539155850 0.00101916  0.00001081  0.0039292 0.9200
 52  -2669.3375885748  -0.002343498224 0.00096801  0.00001018  0.0036360 0.9200
 53  -2669.3397512526  -0.002162677833 0.00091810  0.00000958  0.0033939 0.9200
 54  -2669.3417468500  -0.001995597390 0.00086939  0.00000901  0.0031681 0.9200
 55  -2669.3435880601  -0.001841210118 0.01026704  0.00010585  0.0029564 0.0000
 56  -2669.3652026552  -0.021614595044 0.00117378  0.00001098  0.0005219 0.0000
               *** Restarting incremental Fock matrix formation ***
                                   *** Resetting DIIS ***
 57  -2669.3632300678   0.001972587330 0.01033374  0.00012851  0.0007935 0.0000
 58  -2669.3633882302  -0.000158162378 0.00366669  0.00004398  0.0002141 0.0000
 59  -2669.3634134571  -0.000025226864 0.00132308  0.00001552  0.0003029 0.0000
 60  -2669.3634209163  -0.000007459245 0.00051029  0.00000791  0.0001812 0.0000
 61  -2669.3634251115  -0.000004195142 0.00033920  0.00000465  0.0002050 0.0000
 62  -2669.3634279472  -0.000002835769 0.00038972  0.00000426  0.0001404 0.0000
 63  -2669.3634303698  -0.000002422521 0.00046574  0.00000380  0.0001397 0.0000
 64  -2669.3634323207  -0.000001950965 0.00101891  0.00000419  0.0001169 0.0000
 65  -2669.3634340891  -0.000001768386 0.00084569  0.00000387  0.0001060 0.0000
 66  -2669.3634355954  -0.000001506306 0.00071394  0.00000342  0.0000842 0.0000
 67  -2669.3634367637  -0.000001168319 0.00064499  0.00000314  0.0000783 0.0000
 68  -2669.3634377386  -0.000000974890 0.00076815  0.00000325  0.0000723 0.0000
 69  -2669.3634386439  -0.000000905313 0.00040530  0.00000195  0.0000688 0.0000
 70  -2669.3634390884  -0.000000444413 0.00099802  0.00000299  0.0000545 0.0000
 71  -2669.3634396729  -0.000000584540 0.00032485  0.00000146  0.0000558 0.0000
 72  -2669.3634400166  -0.000000343721 0.00066900  0.00000203  0.0000394 0.0000
 73  -2669.3634402922  -0.000000275613 0.00028824  0.00000125  0.0000377 0.0000
                 **** Energy Check signals convergence ****

               *****************************************************
               *                     SUCCESS                       *
               *           SCF CONVERGED AFTER  74 CYCLES          *
               *****************************************************

Old exchange energy                            =   -101.081571821 Eh
New exchange energy                            =   -101.081459061 Eh
Exchange energy change after final integration =      0.000112760 Eh
Total energy after final integration           =  -2669.363327743 Eh
Final COS-X integration done in                =    35.717 sec

----------------
TOTAL SCF ENERGY
----------------

Total Energy       :        -2669.36332774 Eh          -72637.06895 eV

Components:
Nuclear Repulsion  :         4304.90475732 Eh          117142.41385 eV
Electronic Energy  :        -6974.26808506 Eh         -189779.48280 eV
One Electron Energy:       -12906.81810195 Eh         -351212.37585 eV
Two Electron Energy:         5932.55001689 Eh          161432.89305 eV
Max COSX asymmetry :            0.00000535 Eh               0.00015 eV

Virial components:
Potential Energy   :        -4264.09116366 Eh         -116031.81951 eV
Kinetic Energy     :         1594.72783592 Eh           43394.75056 eV
Virial Ratio       :            2.67386765


DFT components:
N(Alpha)           :      127.999968417822 electrons
N(Beta)            :      123.999972838148 electrons
N(Total)           :      251.999941255970 electrons
E(X)               :      -91.053673940382 Eh       
E(C)               :       -6.932293752648 Eh       
E(XC)              :      -97.985967693030 Eh       
DFET-embed. en.    :        0.000000000000 Eh       

---------------
SCF CONVERGENCE
---------------

  Last Energy change         ...   -2.1095e-07  Tolerance :   1.0000e-06
  Last MAX-Density change    ...    0.0000e+00  Tolerance :   1.0000e-05
  Last RMS-Density change    ...    0.0000e+00  Tolerance :   1.0000e-06
  Last DIIS Error            ...    2.8600e-05  Tolerance :   1.0000e-06

             **** THE GBW FILE WAS UPDATED (b2plyp.gbw) ****
             **** DENSITY b2plyp.scfp WAS UPDATED ****
             **** ENERGY FILE WAS UPDATED (b2plyp.en.tmp) ****
----------------------
UHF SPIN CONTAMINATION
----------------------

Warning: in a DFT calculation there is little theoretical justification to 
         calculate <S**2> as in Hartree-Fock theory. We will do it anyways
         but you should keep in mind that the values have only limited relevance

Expectation value of <S**2>     :     6.143168
Ideal value S*(S+1) for S=2.0   :     6.000000
Deviation                       :     0.143168

             **** THE GBW FILE WAS UPDATED (b2plyp.gbw) ****
             **** DENSITY b2plyp.scfp WAS UPDATED ****
----------------
ORBITAL ENERGIES
----------------
                 SPIN UP ORBITALS
  NO   OCC          E(Eh)            E(eV) 
   0   1.0000    -217.744348     -5925.1249 
   1   1.0000     -25.431498      -692.0262 
   2   1.0000     -21.570916      -586.9745 
   3   1.0000     -21.570362      -586.9594 
   4   1.0000     -21.565170      -586.8181 
   5   1.0000      -4.407002      -119.9206 
   6   1.0000      -4.406644      -119.9109 
   7   1.0000      -4.405608      -119.8827 
   8   1.0000      -4.399118      -119.7061 
   9   1.0000      -4.394044      -119.5680 
  10   1.0000      -4.392557      -119.5276 
  11   1.0000      -4.392202      -119.5179 
  12   1.0000      -4.388924      -119.4287 
  13   1.0000      -4.388230      -119.4098 
  14   1.0000      -4.385966      -119.3482 
  15   1.0000      -4.384317      -119.3033 
  16   1.0000      -4.378077      -119.1335 
  17   1.0000      -3.222825       -87.6975 
  18   1.0000      -2.531252       -68.8789 
  19   1.0000      -2.527265       -68.7704 
  20   1.0000      -2.526567       -68.7514 
  21   1.0000      -2.523943       -68.6800 
  22   1.0000      -2.523607       -68.6708 
  23   1.0000      -2.523018       -68.6548 
  24   1.0000      -2.521585       -68.6158 
  25   1.0000      -2.521108       -68.6028 
  26   1.0000      -2.520702       -68.5918 
  27   1.0000      -2.520518       -68.5868 
  28   1.0000      -2.516715       -68.4833 
  29   1.0000      -2.515336       -68.4458 
  30   1.0000      -2.514713       -68.4288 
  31   1.0000      -2.513584       -68.3981 
  32   1.0000      -2.511899       -68.3522 
  33   1.0000      -2.511280       -68.3354 
  34   1.0000      -2.510330       -68.3095 
  35   1.0000      -2.508627       -68.2632 
  36   1.0000      -2.508560       -68.2614 
  37   1.0000      -2.508434       -68.2580 
  38   1.0000      -2.507441       -68.2309 
  39   1.0000      -2.506739       -68.2118 
  40   1.0000      -2.506290       -68.1996 
  41   1.0000      -2.505610       -68.1811 
  42   1.0000      -2.504655       -68.1551 
  43   1.0000      -2.503793       -68.1317 
  44   1.0000      -2.503641       -68.1275 
  45   1.0000      -2.502711       -68.1022 
  46   1.0000      -2.502602       -68.0993 
  47   1.0000      -2.502464       -68.0955 
  48   1.0000      -2.499853       -68.0244 
  49   1.0000      -2.499418       -68.0126 
  50   1.0000      -2.498613       -67.9907 
  51   1.0000      -2.497482       -67.9599 
  52   1.0000      -2.494280       -67.8728 
  53   1.0000      -2.492248       -67.8175 
  54   1.0000      -2.114932       -57.5502 
  55   1.0000      -2.105278       -57.2875 
  56   1.0000      -2.104866       -57.2763 
  57   1.0000      -0.497703       -13.5432 
  58   1.0000      -0.481910       -13.1134 
  59   1.0000      -0.477082       -12.9821 
  60   1.0000      -0.474239       -12.9047 
  61   1.0000      -0.467672       -12.7260 
  62   1.0000      -0.463435       -12.6107 
  63   1.0000      -0.462286       -12.5794 
  64   1.0000      -0.459162       -12.4944 
  65   1.0000      -0.450543       -12.2599 
  66   1.0000      -0.449335       -12.2270 
  67   1.0000      -0.447589       -12.1795 
  68   1.0000      -0.446984       -12.1631 
  69   1.0000      -0.442996       -12.0545 
  70   1.0000      -0.440692       -11.9918 
  71   1.0000      -0.437162       -11.8958 
  72   1.0000      -0.433664       -11.8006 
  73   1.0000      -0.431074       -11.7301 
  74   1.0000      -0.428966       -11.6727 
  75   1.0000      -0.427960       -11.6454 
  76   1.0000      -0.423084       -11.5127 
  77   1.0000      -0.422792       -11.5047 
  78   1.0000      -0.420916       -11.4537 
  79   1.0000      -0.417148       -11.3512 
  80   1.0000      -0.414934       -11.2909 
  81   1.0000      -0.411769       -11.2048 
  82   1.0000      -0.406163       -11.0523 
  83   1.0000      -0.402802       -10.9608 
  84   1.0000      -0.401017       -10.9122 
  85   1.0000      -0.399807       -10.8793 
  86   1.0000      -0.391112       -10.6427 
  87   1.0000      -0.389260       -10.5923 
  88   1.0000      -0.388206       -10.5636 
  89   1.0000      -0.386242       -10.5102 
  90   1.0000      -0.381621       -10.3844 
  91   1.0000      -0.379490       -10.3264 
  92   1.0000      -0.378194       -10.2912 
  93   1.0000      -0.375395       -10.2150 
  94   1.0000      -0.374370       -10.1871 
  95   1.0000      -0.373782       -10.1711 
  96   1.0000      -0.372782       -10.1439 
  97   1.0000      -0.370322       -10.0770 
  98   1.0000      -0.369149       -10.0451 
  99   1.0000      -0.368507       -10.0276 
 100   1.0000      -0.366553        -9.9744 
 101   1.0000      -0.363449        -9.8900 
 102   1.0000      -0.362777        -9.8717 
 103   1.0000      -0.361926        -9.8485 
 104   1.0000      -0.359043        -9.7701 
 105   1.0000      -0.358178        -9.7465 
 106   1.0000      -0.355777        -9.6812 
 107   1.0000      -0.352785        -9.5998 
 108   1.0000      -0.351081        -9.5534 
 109   1.0000      -0.349185        -9.5018 
 110   1.0000      -0.347093        -9.4449 
 111   1.0000      -0.344449        -9.3729 
 112   1.0000      -0.343723        -9.3532 
 113   1.0000      -0.342131        -9.3099 
 114   1.0000      -0.336842        -9.1659 
 115   1.0000      -0.334451        -9.1009 
 116   1.0000      -0.333479        -9.0744 
 117   1.0000      -0.329920        -8.9776 
 118   1.0000      -0.328353        -8.9349 
 119   1.0000      -0.325442        -8.8557 
 120   1.0000      -0.321669        -8.7531 
 121   1.0000      -0.313805        -8.5391 
 122   1.0000      -0.312303        -8.4982 
 123   1.0000      -0.300760        -8.1841 
 124   1.0000      -0.286936        -7.8079 
 125   1.0000      -0.234334        -6.3766 
 126   1.0000      -0.218145        -5.9360 
 127   1.0000      -0.215720        -5.8700 
 128   0.0000      -0.093270        -2.5380 
 129   0.0000      -0.089766        -2.4427 
 130   0.0000      -0.070325        -1.9136 
 131   0.0000      -0.062034        -1.6880 
 132   0.0000      -0.057424        -1.5626 
 133   0.0000      -0.049243        -1.3400 
 134   0.0000      -0.033489        -0.9113 
 135   0.0000      -0.001687        -0.0459 
 136   0.0000       0.000997         0.0271 
 137   0.0000       0.003976         0.1082 
 138   0.0000       0.005945         0.1618 
 139   0.0000       0.014378         0.3913 
 140   0.0000       0.021725         0.5912 
 141   0.0000       0.027590         0.7508 
 142   0.0000       0.030603         0.8328 
 143   0.0000       0.040013         1.0888 
 144   0.0000       0.050017         1.3610 
 145   0.0000       0.068422         1.8619 
 146   0.0000       0.077531         2.1097 
 147   0.0000       0.084562         2.3010 
 148   0.0000       0.085438         2.3249 
 149   0.0000       0.089731         2.4417 
 150   0.0000       0.092234         2.5098 
 151   0.0000       0.095289         2.5930 
 152   0.0000       0.098333         2.6758 
 153   0.0000       0.104314         2.8385 
 154   0.0000       0.104750         2.8504 
 155   0.0000       0.108299         2.9470 
 156   0.0000       0.109554         2.9811 
 157   0.0000       0.111547         3.0353 
 158   0.0000       0.116248         3.1633 
 159   0.0000       0.122779         3.3410 
 160   0.0000       0.135645         3.6911 
 161   0.0000       0.142848         3.8871 
 162   0.0000       0.145677         3.9641 
 163   0.0000       0.150564         4.0970 
 164   0.0000       0.153300         4.1715 
 165   0.0000       0.154716         4.2100 
 166   0.0000       0.164120         4.4659 
 167   0.0000       0.170553         4.6410 
 168   0.0000       0.171407         4.6642 
 169   0.0000       0.175883         4.7860 
 170   0.0000       0.185424         5.0456 
 171   0.0000       0.186532         5.0758 
 172   0.0000       0.189495         5.1564 
 173   0.0000       0.198827         5.4104 
 174   0.0000       0.199997         5.4422 
 175   0.0000       0.207605         5.6492 
 176   0.0000       0.212928         5.7941 
 177   0.0000       0.224320         6.1041 
 178   0.0000       0.227249         6.1838 
 179   0.0000       0.277369         7.5476 
 180   0.0000       0.279985         7.6188 
 181   0.0000       0.290239         7.8978 
 182   0.0000       0.291363         7.9284 
 183   0.0000       0.297603         8.0982 
 184   0.0000       0.300450         8.1757 
 185   0.0000       0.307886         8.3780 
 186   0.0000       0.319673         8.6988 
 187   0.0000       0.320735         8.7276 
 188   0.0000       0.325964         8.8699 
 189   0.0000       0.333662         9.0794 
 190   0.0000       0.337424         9.1818 
 191   0.0000       0.341159         9.2834 
 192   0.0000       0.344545         9.3756 
 193   0.0000       0.345735         9.4079 
 194   0.0000       0.349691         9.5156 
 195   0.0000       0.359553         9.7839 
 196   0.0000       0.362691         9.8693 
 197   0.0000       0.366496         9.9729 
 198   0.0000       0.372193        10.1279 
 199   0.0000       0.382578        10.4105 
 200   0.0000       0.393118        10.6973 
 201   0.0000       0.396092        10.7782 
 202   0.0000       0.397566        10.8183 
 203   0.0000       0.404654        11.0112 
 204   0.0000       0.412560        11.2263 
 205   0.0000       0.414883        11.2895 
 206   0.0000       0.420424        11.4403 
 207   0.0000       0.423678        11.5289 
 208   0.0000       0.425549        11.5798 
 209   0.0000       0.427640        11.6367 
 210   0.0000       0.432015        11.7557 
 211   0.0000       0.441097        12.0029 
 212   0.0000       0.443302        12.0629 
 213   0.0000       0.450007        12.2453 
 214   0.0000       0.450514        12.2591 
 215   0.0000       0.451367        12.2823 
 216   0.0000       0.457000        12.4356 
 217   0.0000       0.464881        12.6501 
 218   0.0000       0.475395        12.9361 
 219   0.0000       0.485138        13.2013 
 220   0.0000       0.487385        13.2624 
 221   0.0000       0.488839        13.3020 
 222   0.0000       0.497403        13.5350 
 223   0.0000       0.501900        13.6574 
 224   0.0000       0.513039        13.9605 
 225   0.0000       0.515858        14.0372 
 226   0.0000       0.524244        14.2654 
 227   0.0000       0.529172        14.3995 
 228   0.0000       0.535031        14.5589 
 229   0.0000       0.541501        14.7350 
 230   0.0000       0.544503        14.8167 
 231   0.0000       0.548870        14.9355 
 232   0.0000       0.555379        15.1126 
 233   0.0000       0.562822        15.3152 
 234   0.0000       0.564569        15.3627 
 235   0.0000       0.569635        15.5006 
 236   0.0000       0.574875        15.6431 
 237   0.0000       0.581744        15.8301 
 238   0.0000       0.584721        15.9111 
 239   0.0000       0.589559        16.0427 
 240   0.0000       0.595485        16.2040 
 241   0.0000       0.603751        16.4289 
 242   0.0000       0.605659        16.4808 
 243   0.0000       0.613474        16.6935 
 244   0.0000       0.616893        16.7865 
 245   0.0000       0.619847        16.8669 
 246   0.0000       0.624187        16.9850 
 247   0.0000       0.627763        17.0823 
 248   0.0000       0.642077        17.4718 
 249   0.0000       0.642775        17.4908 
 250   0.0000       0.646829        17.6011 
 251   0.0000       0.651751        17.7350 
 252   0.0000       0.661020        17.9873 
 253   0.0000       0.661933        18.0121 
 254   0.0000       0.673405        18.3243 
 255   0.0000       0.678357        18.4590 
 256   0.0000       0.690655        18.7937 
 257   0.0000       0.782604        21.2957 
 258   0.0000       0.789486        21.4830 
 259   0.0000       0.803002        21.8508 
 260   0.0000       0.832179        22.6447 
 261   0.0000       0.836415        22.7600 
 262   0.0000       0.843485        22.9524 
 263   0.0000       0.845915        23.0185 
 264   0.0000       0.865355        23.5475 
 265   0.0000       0.872401        23.7392 
 266   0.0000       0.888184        24.1687 
 267   0.0000       0.895292        24.3621 
 268   0.0000       0.911055        24.7911 
 269   0.0000       0.914436        24.8831 
 270   0.0000       0.918221        24.9861 
 271   0.0000       0.925934        25.1959 
 272   0.0000       0.955670        26.0051 
 273   0.0000       0.965800        26.2808 
 274   0.0000       0.981816        26.7166 
 275   0.0000       0.986220        26.8364 
 276   0.0000       0.999522        27.1984 
 277   0.0000       1.027807        27.9680 
 278   0.0000       1.030723        28.0474 
 279   0.0000       1.043854        28.4047 
 280   0.0000       1.058841        28.8125 
 281   0.0000       1.059757        28.8374 
 282   0.0000       1.071892        29.1677 
 283   0.0000       1.079712        29.3805 
 284   0.0000       1.093678        29.7605 
 285   0.0000       1.098747        29.8984 
 286   0.0000       1.128386        30.7049 
 287   0.0000       1.156213        31.4621 
 288   0.0000       1.181005        32.1368 
 289   0.0000       1.207811        32.8662 
 290   0.0000       1.268778        34.5252 
 291   0.0000       1.284217        34.9453 
 292   0.0000       1.315525        35.7973 
 293   0.0000       1.376543        37.4576 
 294   0.0000       1.393278        37.9130 
 295   0.0000       1.414716        38.4964 
 296   0.0000       1.423571        38.7373 
 297   0.0000       1.433699        39.0129 
 298   0.0000       1.454965        39.5916 
 299   0.0000       1.484819        40.4040 
 300   0.0000       1.490728        40.5648 
 301   0.0000       1.493345        40.6360 
 302   0.0000       1.496721        40.7278 
 303   0.0000       1.508985        41.0616 
 304   0.0000       1.517102        41.2824 
 305   0.0000       1.522032        41.4166 
 306   0.0000       1.526765        41.5454 
 307   0.0000       1.534017        41.7427 
 308   0.0000       1.546482        42.0819 
 309   0.0000       1.553898        42.2837 
 310   0.0000       1.561836        42.4997 
 311   0.0000       1.572513        42.7903 
 312   0.0000       1.583537        43.0902 
 313   0.0000       1.586948        43.1830 
 314   0.0000       1.592178        43.3254 
 315   0.0000       1.596044        43.4306 
 316   0.0000       1.604472        43.6599 
 317   0.0000       1.608553        43.7710 
 318   0.0000       1.609745        43.8034 
 319   0.0000       1.617674        44.0191 
 320   0.0000       1.618665        44.0461 
 321   0.0000       1.624118        44.1945 
 322   0.0000       1.626206        44.2513 
 323   0.0000       1.627933        44.2983 
 324   0.0000       1.631312        44.3903 
 325   0.0000       1.633823        44.4586 
 326   0.0000       1.635683        44.5092 
 327   0.0000       1.638600        44.5886 
 328   0.0000       1.642789        44.7026 
 329   0.0000       1.647444        44.8292 
 330   0.0000       1.650549        44.9137 
 331   0.0000       1.655598        45.0511 
 332   0.0000       1.656832        45.0847 
 333   0.0000       1.662464        45.2380 
 334   0.0000       1.663516        45.2666 
 335   0.0000       1.666282        45.3418 
 336   0.0000       1.669861        45.4392 
 337   0.0000       1.672441        45.5094 
 338   0.0000       1.674284        45.5596 
 339   0.0000       1.675418        45.5904 
 340   0.0000       1.678415        45.6720 
 341   0.0000       1.683240        45.8033 
 342   0.0000       1.685043        45.8524 
 343   0.0000       1.685618        45.8680 
 344   0.0000       1.687089        45.9080 
 345   0.0000       1.690859        46.0106 
 346   0.0000       1.691869        46.0381 
 347   0.0000       1.693328        46.0778 
 348   0.0000       1.694450        46.1083 
 349   0.0000       1.695748        46.1437 
 350   0.0000       1.699174        46.2369 
 351   0.0000       1.702459        46.3263 
 352   0.0000       1.704926        46.3934 
 353   0.0000       1.705824        46.4178 
 354   0.0000       1.707499        46.4634 
 355   0.0000       1.707890        46.4741 
 356   0.0000       1.709067        46.5061 
 357   0.0000       1.710580        46.5472 
 358   0.0000       1.711911        46.5835 
 359   0.0000       1.713480        46.6262 
 360   0.0000       1.714115        46.6434 
 361   0.0000       1.717009        46.7222 
 362   0.0000       1.718333        46.7582 
 363   0.0000       1.720896        46.8280 
 364   0.0000       1.721688        46.8495 
 365   0.0000       1.722816        46.8802 
 366   0.0000       1.725173        46.9443 
 367   0.0000       1.726453        46.9792 
 368   0.0000       1.729207        47.0541 
 369   0.0000       1.730216        47.0816 
 370   0.0000       1.731282        47.1106 
 371   0.0000       1.733650        47.1750 
 372   0.0000       1.736101        47.2417 
 373   0.0000       1.737189        47.2713 
 374   0.0000       1.738743        47.3136 
 375   0.0000       1.742182        47.4072 
 376   0.0000       1.743021        47.4300 
 377   0.0000       1.746067        47.5129 
 378   0.0000       1.749264        47.5999 
 379   0.0000       1.754600        47.7451 
 380   0.0000       1.755334        47.7651 
 381   0.0000       1.757507        47.8242 
 382   0.0000       1.758286        47.8454 
 383   0.0000       1.760055        47.8935 
 384   0.0000       1.765481        48.0412 
 385   0.0000       1.765897        48.0525 
 386   0.0000       1.768901        48.1342 
 387   0.0000       1.769984        48.1637 
 388   0.0000       1.770648        48.1818 
 389   0.0000       1.774974        48.2995 
 390   0.0000       1.776506        48.3412 
 391   0.0000       1.781740        48.4836 
 392   0.0000       1.782078        48.4928 
 393   0.0000       1.786182        48.6045 
 394   0.0000       1.787873        48.6505 
 395   0.0000       1.793784        48.8113 
 396   0.0000       1.794544        48.8320 
 397   0.0000       1.798566        48.9415 
 398   0.0000       1.800363        48.9904 
 399   0.0000       1.806305        49.1521 
 400   0.0000       1.807974        49.1975 
 401   0.0000       1.813443        49.3463 
 402   0.0000       1.815201        49.3941 
 403   0.0000       1.819902        49.5220 
 404   0.0000       1.823887        49.6305 
 405   0.0000       1.827291        49.7231 
 406   0.0000       1.836076        49.9622 
 407   0.0000       1.840920        50.0940 
 408   0.0000       1.844377        50.1881 
 409   0.0000       1.854065        50.4517 
 410   0.0000       1.858618        50.5756 
 411   0.0000       1.865209        50.7549 
 412   0.0000       1.869530        50.8725 
 413   0.0000       1.885563        51.3088 
 414   0.0000       1.894850        51.5615 
 415   0.0000       1.903255        51.7902 
 416   0.0000       1.912085        52.0305 
 417   0.0000       1.922215        52.3061 
 418   0.0000       1.923014        52.3279 
 419   0.0000       1.946018        52.9538 
 420   0.0000       1.955168        53.2028 
 421   0.0000       1.964827        53.4657 
 422   0.0000       1.977842        53.8198 
 423   0.0000       1.987962        54.0952 
 424   0.0000       1.992636        54.2224 
 425   0.0000       1.995464        54.2993 
 426   0.0000       2.008285        54.6482 
 427   0.0000       2.017669        54.9036 
 428   0.0000       2.028636        55.2020 
 429   0.0000       2.053150        55.8691 
 430   0.0000       2.065358        56.2012 
 431   0.0000       2.073000        56.4092 
 432   0.0000       2.093085        56.9557 
 433   0.0000       2.114455        57.5373 
 434   0.0000       2.127783        57.8999 
 435   0.0000       2.155754        58.6610 
 436   0.0000       2.169124        59.0249 
 437   0.0000       2.254143        61.3384 
 438   0.0000       2.331580        63.4455 
 439   0.0000       2.415002        65.7155 
 440   0.0000       2.485723        67.6400 
 441   0.0000       2.519181        68.5504 
 442   0.0000       2.533717        68.9459 
 443   0.0000       2.561544        69.7032 
 444   0.0000       2.576440        70.1085 
 445   0.0000       2.606414        70.9241 
 446   0.0000       2.632624        71.6373 
 447   0.0000       2.642823        71.9149 
 448   0.0000       2.657479        72.3137 
 449   0.0000       2.690256        73.2056 
 450   0.0000       2.710766        73.7637 
 451   0.0000       2.727813        74.2276 
 452   0.0000       2.748644        74.7944 
 453   0.0000       2.770254        75.3824 
 454   0.0000       2.794692        76.0474 
 455   0.0000       2.824543        76.8597 
 456   0.0000       2.911607        79.2289 
 457   0.0000       3.036773        82.6348 
 458   0.0000       3.060565        83.2822 
 459   0.0000       3.070400        83.5498 
 460   0.0000       3.076670        83.7204 
 461   0.0000       3.101216        84.3884 
 462   0.0000       3.123028        84.9819 
 463   0.0000       3.149330        85.6976 
 464   0.0000       3.163722        86.0893 
 465   0.0000      23.993626       652.8998 
 466   0.0000      24.062613       654.7770 
 467   0.0000      24.166386       657.6008 
 468   0.0000      24.494581       666.5314 
 469   0.0000      24.541849       667.8177 
 470   0.0000      24.655966       670.9229 
 471   0.0000      25.044501       681.4955 
 472   0.0000      25.157901       684.5813 
 473   0.0000      25.250624       687.1044 
 474   0.0000      25.352002       689.8631 
 475   0.0000      25.488331       693.5727 
 476   0.0000      25.589474       696.3250 
 477   0.0000      25.639293       697.6806 
 478   0.0000      25.758541       700.9255 
 479   0.0000      25.978753       706.9178 
 480   0.0000      26.109252       710.4689 
 481   0.0000      26.173688       712.2223 
 482   0.0000      26.333049       716.5587 
 483   0.0000      26.415905       718.8133 
 484   0.0000      26.619385       724.3503 
 485   0.0000      26.667440       725.6579 
 486   0.0000      26.824838       729.9410 
 487   0.0000      26.930649       732.8202 
 488   0.0000      27.029682       735.5150 
 489   0.0000      27.087062       737.0764 
 490   0.0000      27.274516       742.1773 
 491   0.0000      27.348455       744.1893 
 492   0.0000      27.623419       751.6714 
 493   0.0000      27.741565       754.8864 
 494   0.0000      27.994018       761.7560 
 495   0.0000      28.132088       765.5130 
 496   0.0000      28.420594       773.3637 
 497   0.0000      28.531626       776.3850 
 498   0.0000      28.815179       784.1009 
 499   0.0000      28.984039       788.6958 
 500   0.0000      30.103605       819.1607 
 501   0.0000      44.126093      1200.7320 
 502   0.0000      44.207434      1202.9454 
 503   0.0000      44.245396      1203.9784 
 504   0.0000      44.267309      1204.5747 
 505   0.0000      44.297977      1205.4092 
 506   0.0000      44.312685      1205.8095 
 507   0.0000      44.335209      1206.4224 
 508   0.0000      44.346380      1206.7264 
 509   0.0000      44.362473      1207.1643 
 510   0.0000      44.377479      1207.5726 
 511   0.0000      44.399338      1208.1674 
 512   0.0000      44.508669      1211.1425 
 513   0.0000     202.682782      5515.2789 
 514   0.0000     202.717388      5516.2206 
 515   0.0000     202.729020      5516.5371 
 516   0.0000     202.737967      5516.7805 
 517   0.0000     202.754372      5517.2270 
 518   0.0000     202.758551      5517.3407 
 519   0.0000     202.770890      5517.6764 
 520   0.0000     202.775207      5517.7939 
 521   0.0000     202.778309      5517.8783 
 522   0.0000     202.786877      5518.1115 
 523   0.0000     202.795146      5518.3365 
 524   0.0000     202.828906      5519.2551 

                 SPIN DOWN ORBITALS
  NO   OCC          E(Eh)            E(eV) 
   0   1.0000    -217.743032     -5925.0891 
   1   1.0000     -25.361135      -690.1116 
   2   1.0000     -21.510966      -585.3431 
   3   1.0000     -21.509901      -585.3142 
   4   1.0000     -21.490607      -584.7892 
   5   1.0000      -4.405786      -119.8875 
   6   1.0000      -4.405561      -119.8814 
   7   1.0000      -4.404281      -119.8466 
   8   1.0000      -4.397406      -119.6595 
   9   1.0000      -4.393270      -119.5470 
  10   1.0000      -4.391643      -119.5027 
  11   1.0000      -4.391184      -119.4902 
  12   1.0000      -4.387811      -119.3984 
  13   1.0000      -4.387800      -119.3981 
  14   1.0000      -4.385132      -119.3255 
  15   1.0000      -4.383976      -119.2940 
  16   1.0000      -4.376772      -119.0980 
  17   1.0000      -3.006814       -81.8196 
  18   1.0000      -2.529378       -68.8279 
  19   1.0000      -2.525433       -68.7205 
  20   1.0000      -2.524349       -68.6910 
  21   1.0000      -2.522641       -68.6446 
  22   1.0000      -2.522292       -68.6351 
  23   1.0000      -2.521219       -68.6059 
  24   1.0000      -2.520261       -68.5798 
  25   1.0000      -2.519917       -68.5704 
  26   1.0000      -2.519261       -68.5526 
  27   1.0000      -2.517876       -68.5149 
  28   1.0000      -2.514660       -68.4274 
  29   1.0000      -2.514022       -68.4100 
  30   1.0000      -2.513266       -68.3894 
  31   1.0000      -2.512084       -68.3573 
  32   1.0000      -2.510303       -68.3088 
  33   1.0000      -2.510051       -68.3020 
  34   1.0000      -2.508704       -68.2653 
  35   1.0000      -2.507809       -68.2409 
  36   1.0000      -2.507499       -68.2325 
  37   1.0000      -2.506786       -68.2131 
  38   1.0000      -2.506093       -68.1943 
  39   1.0000      -2.505686       -68.1832 
  40   1.0000      -2.505481       -68.1776 
  41   1.0000      -2.504822       -68.1597 
  42   1.0000      -2.503869       -68.1337 
  43   1.0000      -2.503426       -68.1217 
  44   1.0000      -2.502927       -68.1081 
  45   1.0000      -2.502273       -68.0903 
  46   1.0000      -2.501428       -68.0673 
  47   1.0000      -2.501216       -68.0615 
  48   1.0000      -2.499733       -68.0212 
  49   1.0000      -2.499274       -68.0087 
  50   1.0000      -2.497483       -67.9600 
  51   1.0000      -2.495012       -67.8927 
  52   1.0000      -2.492942       -67.8364 
  53   1.0000      -2.490793       -67.7779 
  54   1.0000      -1.876384       -51.0590 
  55   1.0000      -1.873781       -50.9882 
  56   1.0000      -1.829489       -49.7829 
  57   1.0000      -0.489403       -13.3173 
  58   1.0000      -0.475052       -12.9268 
  59   1.0000      -0.471651       -12.8343 
  60   1.0000      -0.461470       -12.5572 
  61   1.0000      -0.459099       -12.4927 
  62   1.0000      -0.456336       -12.4175 
  63   1.0000      -0.454806       -12.3759 
  64   1.0000      -0.450864       -12.2686 
  65   1.0000      -0.448658       -12.2086 
  66   1.0000      -0.444520       -12.0960 
  67   1.0000      -0.441036       -12.0012 
  68   1.0000      -0.438550       -11.9335 
  69   1.0000      -0.438321       -11.9273 
  70   1.0000      -0.435995       -11.8640 
  71   1.0000      -0.432992       -11.7823 
  72   1.0000      -0.428446       -11.6586 
  73   1.0000      -0.426535       -11.6066 
  74   1.0000      -0.425047       -11.5661 
  75   1.0000      -0.421911       -11.4808 
  76   1.0000      -0.420680       -11.4473 
  77   1.0000      -0.418172       -11.3790 
  78   1.0000      -0.415614       -11.3094 
  79   1.0000      -0.414214       -11.2713 
  80   1.0000      -0.409486       -11.1427 
  81   1.0000      -0.403649       -10.9838 
  82   1.0000      -0.401814       -10.9339 
  83   1.0000      -0.397751       -10.8233 
  84   1.0000      -0.395796       -10.7702 
  85   1.0000      -0.393452       -10.7064 
  86   1.0000      -0.388884       -10.5821 
  87   1.0000      -0.385949       -10.5022 
  88   1.0000      -0.384219       -10.4551 
  89   1.0000      -0.382355       -10.4044 
  90   1.0000      -0.378539       -10.3006 
  91   1.0000      -0.375697       -10.2232 
  92   1.0000      -0.374326       -10.1859 
  93   1.0000      -0.373844       -10.1728 
  94   1.0000      -0.372196       -10.1280 
  95   1.0000      -0.371360       -10.1052 
  96   1.0000      -0.369715       -10.0605 
  97   1.0000      -0.366339        -9.9686 
  98   1.0000      -0.365232        -9.9385 
  99   1.0000      -0.364469        -9.9177 
 100   1.0000      -0.364062        -9.9066 
 101   1.0000      -0.361585        -9.8392 
 102   1.0000      -0.361483        -9.8365 
 103   1.0000      -0.357743        -9.7347 
 104   1.0000      -0.355974        -9.6865 
 105   1.0000      -0.355364        -9.6700 
 106   1.0000      -0.354345        -9.6422 
 107   1.0000      -0.350816        -9.5462 
 108   1.0000      -0.349729        -9.5166 
 109   1.0000      -0.347388        -9.4529 
 110   1.0000      -0.344812        -9.3828 
 111   1.0000      -0.341177        -9.2839 
 112   1.0000      -0.338724        -9.2172 
 113   1.0000      -0.334639        -9.1060 
 114   1.0000      -0.330615        -8.9965 
 115   1.0000      -0.327915        -8.9230 
 116   1.0000      -0.326469        -8.8837 
 117   1.0000      -0.319859        -8.7038 
 118   1.0000      -0.317673        -8.6443 
 119   1.0000      -0.302628        -8.2349 
 120   1.0000      -0.291592        -7.9346 
 121   1.0000      -0.228769        -6.2251 
 122   1.0000      -0.222660        -6.0589 
 123   1.0000      -0.216468        -5.8904 
 124   0.0000      -0.100226        -2.7273 
 125   0.0000      -0.095580        -2.6009 
 126   0.0000      -0.071972        -1.9585 
 127   0.0000      -0.060074        -1.6347 
 128   0.0000      -0.052280        -1.4226 
 129   0.0000      -0.032280        -0.8784 
 130   0.0000      -0.007559        -0.2057 
 131   0.0000       0.000260         0.0071 
 132   0.0000       0.002431         0.0662 
 133   0.0000       0.004374         0.1190 
 134   0.0000       0.011531         0.3138 
 135   0.0000       0.014478         0.3940 
 136   0.0000       0.020345         0.5536 
 137   0.0000       0.026520         0.7216 
 138   0.0000       0.029130         0.7927 
 139   0.0000       0.033302         0.9062 
 140   0.0000       0.046778         1.2729 
 141   0.0000       0.049868         1.3570 
 142   0.0000       0.071605         1.9485 
 143   0.0000       0.076406         2.0791 
 144   0.0000       0.080905         2.2015 
 145   0.0000       0.085210         2.3187 
 146   0.0000       0.090453         2.4613 
 147   0.0000       0.094481         2.5709 
 148   0.0000       0.095959         2.6112 
 149   0.0000       0.098592         2.6828 
 150   0.0000       0.100238         2.7276 
 151   0.0000       0.106004         2.8845 
 152   0.0000       0.106438         2.8963 
 153   0.0000       0.111077         3.0226 
 154   0.0000       0.115192         3.1345 
 155   0.0000       0.116052         3.1579 
 156   0.0000       0.118343         3.2203 
 157   0.0000       0.121038         3.2936 
 158   0.0000       0.127433         3.4676 
 159   0.0000       0.131738         3.5848 
 160   0.0000       0.139480         3.7955 
 161   0.0000       0.144560         3.9337 
 162   0.0000       0.147792         4.0216 
 163   0.0000       0.153762         4.1841 
 164   0.0000       0.157775         4.2933 
 165   0.0000       0.161170         4.3856 
 166   0.0000       0.169527         4.6131 
 167   0.0000       0.172946         4.7061 
 168   0.0000       0.178818         4.8659 
 169   0.0000       0.180401         4.9090 
 170   0.0000       0.187870         5.1122 
 171   0.0000       0.189829         5.1655 
 172   0.0000       0.193469         5.2646 
 173   0.0000       0.209100         5.6899 
 174   0.0000       0.213267         5.8033 
 175   0.0000       0.215579         5.8662 
 176   0.0000       0.222282         6.0486 
 177   0.0000       0.229407         6.2425 
 178   0.0000       0.235018         6.3952 
 179   0.0000       0.283944         7.7265 
 180   0.0000       0.289799         7.8858 
 181   0.0000       0.294496         8.0136 
 182   0.0000       0.301743         8.2109 
 183   0.0000       0.306906         8.3513 
 184   0.0000       0.313890         8.5414 
 185   0.0000       0.321602         8.7512 
 186   0.0000       0.326038         8.8719 
 187   0.0000       0.326319         8.8796 
 188   0.0000       0.329063         8.9543 
 189   0.0000       0.336197         9.1484 
 190   0.0000       0.339185         9.2297 
 191   0.0000       0.342887         9.3304 
 192   0.0000       0.346055         9.4166 
 193   0.0000       0.346891         9.4394 
 194   0.0000       0.354691         9.6516 
 195   0.0000       0.360299         9.8042 
 196   0.0000       0.363725         9.8975 
 197   0.0000       0.369544        10.0558 
 198   0.0000       0.374438        10.1890 
 199   0.0000       0.383158        10.4263 
 200   0.0000       0.393579        10.7098 
 201   0.0000       0.396618        10.7925 
 202   0.0000       0.398283        10.8378 
 203   0.0000       0.404635        11.0107 
 204   0.0000       0.413294        11.2463 
 205   0.0000       0.415728        11.3125 
 206   0.0000       0.422158        11.4875 
 207   0.0000       0.424985        11.5644 
 208   0.0000       0.425884        11.5889 
 209   0.0000       0.428253        11.6534 
 210   0.0000       0.432961        11.7815 
 211   0.0000       0.442080        12.0296 
 212   0.0000       0.444867        12.1054 
 213   0.0000       0.450920        12.2701 
 214   0.0000       0.451725        12.2921 
 215   0.0000       0.453229        12.3330 
 216   0.0000       0.458959        12.4889 
 217   0.0000       0.468886        12.7590 
 218   0.0000       0.477686        12.9985 
 219   0.0000       0.488061        13.2808 
 220   0.0000       0.489482        13.3195 
 221   0.0000       0.490626        13.3506 
 222   0.0000       0.498107        13.5542 
 223   0.0000       0.502976        13.6867 
 224   0.0000       0.514665        14.0048 
 225   0.0000       0.517759        14.0889 
 226   0.0000       0.527304        14.3487 
 227   0.0000       0.531808        14.4712 
 228   0.0000       0.536742        14.6055 
 229   0.0000       0.542725        14.7683 
 230   0.0000       0.548967        14.9382 
 231   0.0000       0.554492        15.0885 
 232   0.0000       0.560740        15.2585 
 233   0.0000       0.565585        15.3904 
 234   0.0000       0.568181        15.4610 
 235   0.0000       0.576171        15.6784 
[...]
      f+1     :     0.000228
      f-1     :     0.000054
      f+2     :     0.000058
      f-2     :     0.000023
      f+3     :    -0.000006
      f-3     :     0.000011
  1 Aus       :    -0.041459  s :    -0.041459
      pz      :    -0.036807  p :    -0.095261
      px      :    -0.010303
      py      :    -0.048151
      dz2     :    -0.003725  d :    -0.010664
      dxz     :    -0.000898
      dyz     :     0.003184
      dx2y2   :    -0.002429
      dxy     :    -0.006797
      f0      :     0.000009  f :     0.000086
      f+1     :    -0.000009
      f-1     :     0.000029
      f+2     :    -0.000017
      f-2     :     0.000041
      f+3     :     0.000033
      f-3     :     0.000000
  2 Aus       :    -0.025083  s :    -0.025083
      pz      :    -0.027214  p :    -0.054759
      px      :    -0.003022
      py      :    -0.024522
      dz2     :     0.000081  d :     0.015914
      dxz     :     0.003625
      dyz     :     0.008573
      dx2y2   :     0.000996
      dxy     :     0.002638
      f0      :     0.000070  f :     0.000491
      f+1     :     0.000013
      f-1     :     0.000142
      f+2     :     0.000117
      f-2     :     0.000080
      f+3     :     0.000050
      f-3     :     0.000020
  3 Aus       :    -0.034940  s :    -0.034940
      pz      :    -0.019807  p :    -0.039250
      px      :    -0.011628
      py      :    -0.007815
      dz2     :     0.004965  d :    -0.002187
      dxz     :    -0.004076
      dyz     :     0.001783
      dx2y2   :    -0.006724
      dxy     :     0.001865
      f0      :     0.000067  f :     0.000601
      f+1     :     0.000156
      f-1     :     0.000048
      f+2     :     0.000159
      f-2     :     0.000104
      f+3     :     0.000028
      f-3     :     0.000039
  4 Aus       :    -0.089540  s :    -0.089540
      pz      :    -0.038915  p :    -0.073163
      px      :    -0.032170
      py      :    -0.002078
      dz2     :    -0.013767  d :     0.002281
      dxz     :     0.002373
      dyz     :     0.007237
      dx2y2   :     0.006588
      dxy     :    -0.000150
      f0      :     0.000026  f :     0.000474
      f+1     :     0.000018
      f-1     :     0.000094
      f+2     :     0.000029
      f-2     :     0.000048
      f+3     :     0.000174
      f-3     :     0.000085
  5 Aus       :    -0.125603  s :    -0.125603
      pz      :    -0.048270  p :    -0.072533
      px      :    -0.012499
      py      :    -0.011764
      dz2     :    -0.001697  d :     0.008193
      dxz     :    -0.001239
      dyz     :    -0.000003
      dx2y2   :     0.004048
      dxy     :     0.007083
      f0      :     0.000012  f :     0.000360
      f+1     :     0.000075
      f-1     :    -0.000016
      f+2     :     0.000024
      f-2     :    -0.000001
      f+3     :     0.000158
      f-3     :     0.000108
  6 Aus       :    -0.098509  s :    -0.098509
      pz      :    -0.018614  p :    -0.093461
      px      :    -0.054648
      py      :    -0.020199
      dz2     :    -0.012157  d :    -0.029334
      dxz     :    -0.010146
      dyz     :     0.000542
      dx2y2   :    -0.005769
      dxy     :    -0.001804
      f0      :    -0.000072  f :    -0.000165
      f+1     :    -0.000009
      f-1     :    -0.000020
      f+2     :    -0.000008
      f-2     :    -0.000008
      f+3     :    -0.000021
      f-3     :    -0.000027
  7 Aus       :    -0.084702  s :    -0.084702
      pz      :    -0.034227  p :    -0.038871
      px      :     0.005198
      py      :    -0.009843
      dz2     :     0.002261  d :     0.011836
      dxz     :     0.000050
      dyz     :     0.000779
      dx2y2   :     0.004475
      dxy     :     0.004272
      f0      :     0.000074  f :     0.000501
      f+1     :     0.000006
      f-1     :     0.000025
      f+2     :     0.000071
      f-2     :     0.000091
      f+3     :     0.000102
      f-3     :     0.000131
  8 Aus       :    -0.067377  s :    -0.067377
      pz      :    -0.024889  p :    -0.100391
      px      :    -0.020431
      py      :    -0.055071
      dz2     :     0.006259  d :     0.013706
      dxz     :     0.003763
      dyz     :     0.006055
      dx2y2   :    -0.003602
      dxy     :     0.001231
      f0      :     0.000068  f :     0.000392
      f+1     :     0.000211
      f-1     :     0.000032
      f+2     :     0.000051
      f-2     :     0.000033
      f+3     :     0.000008
      f-3     :    -0.000013
  9 Aus       :    -0.004835  s :    -0.004835
      pz      :    -0.035801  p :    -0.082341
      px      :    -0.030660
      py      :    -0.015880
      dz2     :     0.004380  d :     0.005336
      dxz     :     0.002353
      dyz     :    -0.000807
      dx2y2   :     0.002781
      dxy     :    -0.003371
      f0      :     0.000064  f :     0.000414
      f+1     :     0.000141
      f-1     :     0.000011
      f+2     :     0.000042
      f-2     :     0.000120
      f+3     :     0.000010
      f-3     :     0.000026
 10 Aus       :    -0.054851  s :    -0.054851
      pz      :    -0.014926  p :    -0.027737
      px      :    -0.014428
      py      :     0.001617
      dz2     :     0.007727  d :    -0.030137
      dxz     :    -0.003301
      dyz     :    -0.009627
      dx2y2   :    -0.018796
      dxy     :    -0.006139
      f0      :    -0.000022  f :     0.000165
      f+1     :     0.000036
      f-1     :     0.000049
      f+2     :     0.000016
      f-2     :     0.000086
      f+3     :    -0.000021
      f-3     :     0.000021
 11 Aus       :    -0.094680  s :    -0.094680
      pz      :    -0.006120  p :    -0.039322
      px      :    -0.031453
      py      :    -0.001749
      dz2     :    -0.002769  d :    -0.016123
      dxz     :    -0.001522
      dyz     :    -0.004937
      dx2y2   :    -0.002658
      dxy     :    -0.004237
      f0      :    -0.000020  f :    -0.000072
      f+1     :    -0.000001
      f-1     :    -0.000018
      f+2     :     0.000000
      f-2     :    -0.000001
      f+3     :     0.000011
      f-3     :    -0.000043
 12 Crs       :     0.020409  s :     0.020409
      pz      :     0.019976  p :     0.059949
      px      :     0.020726
      py      :     0.019247
      dz2     :     0.718368  d :     3.551801
      dxz     :     0.415354
      dyz     :     0.836353
      dx2y2   :     0.811406
      dxy     :     0.770321
      f0      :     0.000014  f :     0.000090
      f+1     :     0.000026
      f-1     :     0.000012
      f+2     :     0.000017
      f-2     :     0.000011
      f+3     :    -0.000004
      f-3     :     0.000013


                      *****************************
                      * MAYER POPULATION ANALYSIS *
                      *****************************

  NA   - Mulliken gross atomic population
  ZA   - Total nuclear charge
  QA   - Mulliken gross atomic charge
  VA   - Mayer's total valence
  BVA  - Mayer's bonded valence
  FA   - Mayer's free valence

  ATOM       NA         ZA         QA         VA         BVA        FA
  0 Au    18.5287    19.0000     0.4713     1.4090     1.3861     0.0229
  1 Au    18.7669    19.0000     0.2331     1.6984     1.6709     0.0275
  2 Au    18.6977    19.0000     0.3023     1.3479     1.3451     0.0028
  3 Au    18.5362    19.0000     0.4638     1.5413     1.5353     0.0061
  4 Au    19.0887    19.0000    -0.0887     1.8175     1.7577     0.0598
  5 Au    18.7209    19.0000     0.2791     1.4200     1.3433     0.0768
  6 Au    18.6473    19.0000     0.3527     1.2476     1.1829     0.0647
  7 Au    18.7399    19.0000     0.2601     1.5505     1.5275     0.0230
  8 Au    18.7493    19.0000     0.2507     1.6242     1.5918     0.0324
  9 Au    18.4451    19.0000     0.5549     1.4079     1.4044     0.0035
 10 Au    19.0602    19.0000    -0.0602     2.0518     2.0270     0.0248
 11 Au    18.6278    19.0000     0.3722     1.2045     1.1531     0.0514
 12 Cr    27.3913    24.0000    -3.3913     9.8177     6.0010     3.8167

  Mayer bond orders larger than 0.100000
B(  0-Au,  1-Au) :   0.2270 B(  0-Au,  2-Au) :   0.2288 B(  0-Au,  5-Au) :   0.2001 
B(  0-Au, 12-Cr) :   0.4843 B(  1-Au,  4-Au) :   0.1064 B(  1-Au,  5-Au) :   0.1339 
B(  1-Au, 10-Au) :   0.1228 B(  1-Au, 11-Au) :   0.2614 B(  1-Au, 12-Cr) :   0.6091 
B(  2-Au,  3-Au) :   0.1706 B(  2-Au,  7-Au) :   0.2564 B(  2-Au, 12-Cr) :   0.4483 
B(  3-Au,  4-Au) :   0.3823 B(  3-Au, 12-Cr) :   0.7063 B(  4-Au,  6-Au) :   0.2584 
B(  4-Au,  8-Au) :   0.1461 B(  4-Au, 10-Au) :   0.1040 B(  4-Au, 11-Au) :   0.1604 
B(  4-Au, 12-Cr) :   0.4925 B(  5-Au,  9-Au) :   0.2125 B(  5-Au, 10-Au) :   0.1657 
B(  5-Au, 12-Cr) :   0.5218 B(  6-Au,  8-Au) :   0.2307 B(  6-Au, 10-Au) :   0.2714 
B(  6-Au, 11-Au) :   0.1505 B(  6-Au, 12-Cr) :   0.2406 B(  7-Au,  8-Au) :   0.2879 
B(  7-Au,  9-Au) :   0.2029 B(  7-Au, 12-Cr) :   0.5893 B(  8-Au, 12-Cr) :   0.5647 
B(  9-Au, 10-Au) :   0.2421 B(  9-Au, 12-Cr) :   0.5298 B( 10-Au, 11-Au) :   0.3428 
B( 10-Au, 12-Cr) :   0.5693 B( 11-Au, 12-Cr) :   0.2451 

-------
TIMINGS
-------

Total SCF time: 0 days 0 hours 45 min 26 sec 

Total time                  ....    2726.408 sec
Sum of individual times     ....    2675.121 sec  ( 98.1%)

Fock matrix formation       ....    2012.330 sec  ( 73.8%)
  Split-RI-J                ....     194.377 sec  (  9.7% of F)
  Chain of spheres X        ....    1439.704 sec  ( 71.5% of F)
  XC integration            ....     200.153 sec  (  9.9% of F)
    Basis function eval.    ....      25.524 sec  ( 12.8% of XC)
    Density eval.           ....      77.704 sec  ( 38.8% of XC)
    XC-Functional eval.     ....       4.609 sec  (  2.3% of XC)
    XC-Potential eval.      ....      52.492 sec  ( 26.2% of XC)
Diagonalization             ....     271.577 sec  ( 10.0%)
Density matrix formation    ....      11.549 sec  (  0.4%)
Population analysis         ....       3.012 sec  (  0.1%)
Initial guess               ....       0.605 sec  (  0.0%)
Orbital Transformation      ....       0.000 sec  (  0.0%)
Orbital Orthonormalization  ....       0.302 sec  (  0.0%)
DIIS solution               ....     364.667 sec  ( 13.4%)
Grid generation             ....      11.380 sec  (  0.4%)

Maximum memory used throughout the entire SCF-calculation: 128.1 MB


           ************************************************************
           *        Program running with 6 parallel MPI-processes     *
           *              working on a common directory               *
           ************************************************************

------------------------------------------------------------------------------
                                ORCA  MP2 
------------------------------------------------------------------------------

Freezing NCore=10 chemical core electrons

   <<< Use J-auxbasis for calculation of Separable RI-J derivative contributions (Dim=1157) >>> 


-------------
RI-MP2 ENERGY
-------------
Dimension of the basis                    ...  525
Memory devoted to MP2                     ...  256 MB   
Data format for buffers                   ... DOUBLE
Compression type for matrix containers    ... UNCOMPRESSED
Overall scaling of the MP2 energy         ...   2.700e-01
Calculating two index integrals           ... done (    0.143 sec)
Cholesky decomposition of V**-1           ... done (   11.427 sec)

-----------------
RI-TRANSFORMATION (AUX index driven)
-----------------

Dimension of the orbital-basis         ... 525
Dimension of the aux-basis             ... 1994
Transformation of internal/external MOs...    5- 126 to  127- 524
Number Format for Storage              ... Double (8 Byte)
Integral mode                          ... Direct

First Phase: integral generation and transformation of MO indices
  Aux angular momentum 0               ... done (    0.262 sec)
  Aux angular momentum 1               ... done (    0.606 sec)
  Aux angular momentum 2               ... done (    0.966 sec)
  Aux angular momentum 3               ... done (    0.798 sec)
  Aux angular momentum 4               ... done (    0.723 sec)
  Aux angular momentum 5               ... done (    0.740 sec)
Closing buffer VIA ( 0.72 GB; CompressionRatio= 1.00)
  Phase 1 completed in     4.672 sec
Second Phase: sorting and transformation of aux index

IA-Transformation
Memory available                       ... 176 MB 
Max. # MO pairs treated in a batch     ... 21    
# of internal orbitals                 ... 122
# batches for internal orbitals        ... 1
Closing buffer IAV ( 0.72 GB; CompressionRatio= 1.00)
(ia|v) transformation done in     3.776 sec

  Phase 2 completed in     4.048 sec
RI-Integral transformation completed in     8.807 sec

-----------------
RI-TRANSFORMATION (AUX index driven)
-----------------

Dimension of the orbital-basis         ... 525
Dimension of the aux-basis             ... 1994
Transformation of internal/external MOs...    5- 124 to  125- 524
Number Format for Storage              ... Double (8 Byte)
Integral mode                          ... Direct

First Phase: integral generation and transformation of MO indices
  Aux angular momentum 0               ... done (    0.249 sec)
  Aux angular momentum 1               ... done (    0.616 sec)
  Aux angular momentum 2               ... done (    1.031 sec)
  Aux angular momentum 3               ... done (    0.848 sec)
  Aux angular momentum 4               ... done (    0.776 sec)
  Aux angular momentum 5               ... done (    0.726 sec)
Closing buffer VIA ( 0.71 GB; CompressionRatio= 1.00)
  Phase 1 completed in     4.935 sec
Second Phase: sorting and transformation of aux index

IA-Transformation
Memory available                       ... 176 MB 
Max. # MO pairs treated in a batch     ... 20    
# of internal orbitals                 ... 120
# batches for internal orbitals        ... 1
Closing buffer IAV ( 0.71 GB; CompressionRatio= 1.00)
(ia|v) transformation done in     3.732 sec

  Phase 2 completed in     3.928 sec
RI-Integral transformation completed in     8.927 sec
Opening buffers                              ... done

Starting loop over batches of integrals:

Operator 0  - window                       ... (  5-126)x(127-524)
Operator 0  - Memory available             ...   256 MB
Operator 0  - Memory needed per MO         ...   6.1 MB
Operator 0  - Number of orbitals per batch ... 21
Operator 0  - Number of batches            ... 1

OPERATOR  0   PASS   0:  MOs     5 ...   25 +   26 ...   46 +   47 ...   67 +   68 ...   88
                            +   89 ...  109 +  110 ...  126
  Reading integrals       ... ok
  Internal MO   7
  Internal MO  10
  Internal MO  13
  Internal MO  16
  Internal MO  19
  Internal MO  22
  Internal MO  25

Operator 1  - window                       ... (  5-124)x(125-524)
Operator 1  - Memory available             ...   256 MB
Operator 1  - Memory needed per MO         ...   6.1 MB
Operator 1  - Number of orbitals per batch ... 20
Operator 1  - Number of batches            ... 1

OPERATOR  1   PASS   0:  MOs     5 ...   24 +   25 ...   44 +   45 ...   64 +   65 ...   84
                            +   85 ...  104 +  105 ...  124
  Reading integrals       ... ok
  Internal MO   7
  Internal MO  10
  Internal MO  13
  Internal MO  16
  Internal MO  19
  Internal MO  22
Time spent in pair loops =   253.753 sec
Deleting buffer (Ka|jb)[aa] ...done
Deleting buffer (Ka|jb)[ba] ...done
Deleting buffer (Ka|jb)[ab] ...done
Deleting buffer (Ka|jb)[bb] ...done

Correlation energy components}
 E2 and T2 for alpha/alpha pairs :     -0.370954655 Eh      0.000000000
 E2 and T2 for beta/beta   pairs :     -0.355441799 Eh      0.000000000
 E2 and T2 for alpha/beta  pairs :     -1.223400168 Eh      0.000000000


-----------------------------------------------
 RI-MP2 CORRELATION ENERGY:     -1.949796622 Eh
-----------------------------------------------


-------
TIMINGS
-------

Total time                :  350.302 sec
Integral trafo            :   17.762 sec (  5.1%)
I/O of integrals          :    0.173 sec (  0.0%)
K(i,j) Operators          :  173.497 sec ( 49.5%)
T(i,j) pair energies      :    4.005 sec (  1.1%)
V-calculation             :    0.143 sec (  0.0%)
V**(-1/2)                 :   11.427 sec (  3.3%)
Gamma(ia|P)               :    0.000 sec (  0.0%)
Gamma-Trafo               :    0.000 sec (  0.0%)
D(virtual)                :    0.000 sec (  0.0%)
D(internal)               :    0.000 sec (  0.0%)
W(virtual)                :    0.000 sec (  0.0%)
W(internal)               :    0.000 sec (  0.0%)
L(virtual)                :    0.000 sec (  0.0%)
L(internal)               :    0.000 sec (  0.0%)
G(D)                      :    0.000 sec (  0.0%)
G(Z)                      :    0.000 sec (  0.0%)
Z-Vector Solution         :    0.000 sec (  0.0%)
3-Index Derivative        :    0.000 sec (  0.0%)
2-Index Derivative        :    0.000 sec (  0.0%)
Separable Gradient (RIJ)  :    0.000 sec (  0.0%)
Separable Gradient (COSX) :    0.000 sec (  0.0%)


---------------------------------------
MP2 TOTAL ENERGY:    -2671.276873944 Eh
---------------------------------------

Maximum memory used throughout the entire MP2-calculation: 257.7 MB

-------------------------   --------------------
FINAL SINGLE POINT ENERGY     -2671.276873943529
-------------------------   --------------------


                            ***************************************
                            *     ORCA property calculations      *
                            ***************************************


  WARNING: The energy has been calculated at the MP2 level but the densities
           used in the property calculations are still SCF densities
           MP2 response densities have not been calculated 
           use %mp2 Density relaxed end
           or  %mp2 Density unrelaxed end

                                    ---------------------
                                    Active property flags
                                    ---------------------
   (+) Dipole Moment


------------------------------------------------------------------------------
                       ORCA ELECTRIC PROPERTIES CALCULATION
------------------------------------------------------------------------------

Dipole Moment Calculation                       ... on
Quadrupole Moment Calculation                   ... off
Polarizability Calculation                      ... off
GBWName                                         ... b2plyp_job2.gbw
Electron density                                ... b2plyp_job2.scfp
The origin for moment calculation is the CENTER OF MASS  = (14.183330, 16.096856 15.214684)

-------------
DIPOLE MOMENT
-------------
                                X             Y             Z
Electronic contribution:     -2.68955      26.41191     -14.74542
Nuclear contribution   :      2.58849     -26.07459      14.31090
                        -----------------------------------------
Total Dipole Moment    :     -0.10106       0.33732      -0.43452
                        -----------------------------------------
Magnitude (a.u.)       :      0.55929
Magnitude (Debye)      :      1.42160



--------------------
Rotational spectrum 
--------------------
 
Rotational constants in cm-1:     0.001606     0.001206     0.001074 
Rotational constants in MHz :    48.133357    36.141325    32.209966 

 Dipole components along the rotational axes: 
x,y,z [a.u.] :     0.528149    -0.103446     0.152186 
x,y,z [Debye]:     1.342447    -0.262939     0.386827 

 

Timings for individual modules:

Sum of individual times         ...     3104.009 sec (=  51.733 min)
GTO integral calculation        ...       24.613 sec (=   0.410 min)   0.8 %
SCF iterations                  ...     2727.540 sec (=  45.459 min)  87.9 %
MP2 module                      ...      351.855 sec (=   5.864 min)  11.3 %



                             ****ORCA TERMINATED NORMALLY****
TOTAL RUN TIME: 0 days 1 hours 30 minutes 19 seconds 616 msec
