
                                 *****************
                                 * O   R   C   A *
                                 *****************

                                            #,                                       
                                            ###                                      
                                            ####                                     
                                            #####                                    
                                            ######                                   
                                           ########,                                 
                                     ,,################,,,,,                         
                               ,,#################################,,                 
                          ,,##########################################,,             
                       ,#########################################, ''#####,          
                    ,#############################################,,   '####,        
                  ,##################################################,,,,####,       
                ,###########''''           ''''###############################       
              ,#####''   ,,,,##########,,,,          '''####'''          '####       
            ,##' ,,,,###########################,,,                        '##       
           ' ,,###''''                  '''############,,,                           
         ,,##''                                '''############,,,,        ,,,,,,###''
      ,#''                                            '''#######################'''  
     '                                                          ''''####''''         
             ,#######,   #######,   ,#######,      ##                                
            ,#'     '#,  ##    ##  ,#'     '#,    #''#        ######   ,####,        
            ##       ##  ##   ,#'  ##            #'  '#       #        #'  '#        
            ##       ##  #######   ##           ,######,      #####,   #    #        
            '#,     ,#'  ##    ##  '#,     ,#' ,#      #,         ##   #,  ,#        
             '#######'   ##     ##  '#######'  #'      '#     #####' # '####'        



                  #######################################################
                  #                        -***-                        #
                  #          Department of theory and spectroscopy      #
                  #    Directorship and core code : Frank Neese         #
                  #        Max Planck Institute fuer Kohlenforschung    #
                  #                Kaiser Wilhelm Platz 1               #
                  #                 D-45470 Muelheim/Ruhr               #
                  #                      Germany                        #
                  #                                                     #
                  #                  All rights reserved                #
                  #                        -***-                        #
                  #######################################################


                         Program Version 5.0.3 -  RELEASE  -


 With contributions from (in alphabetic order):
   Daniel Aravena         : Magnetic Suceptibility
   Michael Atanasov       : Ab Initio Ligand Field Theory (pilot matlab implementation)
   Alexander A. Auer      : GIAO ZORA, VPT2 properties, NMR spectrum
   Ute Becker             : Parallelization
   Giovanni Bistoni       : ED, misc. LED, open-shell LED, HFLD
   Martin Brehm           : Molecular dynamics
   Dmytro Bykov           : SCF Hessian
   Vijay G. Chilkuri      : MRCI spin determinant printing, contributions to CSF-ICE
   Dipayan Datta          : RHF DLPNO-CCSD density
   Achintya Kumar Dutta   : EOM-CC, STEOM-CC
   Dmitry Ganyushin       : Spin-Orbit,Spin-Spin,Magnetic field MRCI
   Miquel Garcia          : C-PCM and meta-GGA Hessian, CC/C-PCM, Gaussian charge scheme
   Yang Guo               : DLPNO-NEVPT2, F12-NEVPT2, CIM, IAO-localization
   Andreas Hansen         : Spin unrestricted coupled pair/coupled cluster methods
   Benjamin Helmich-Paris : MC-RPA, TRAH-SCF, COSX integrals
   Lee Huntington         : MR-EOM, pCC
   Robert Izsak           : Overlap fitted RIJCOSX, COSX-SCS-MP3, EOM
   Marcus Kettner         : VPT2
   Christian Kollmar      : KDIIS, OOCD, Brueckner-CCSD(T), CCSD density, CASPT2, CASPT2-K
   Simone Kossmann        : Meta GGA functionals, TD-DFT gradient, OOMP2, MP2 Hessian
   Martin Krupicka        : Initial AUTO-CI
   Lucas Lang             : DCDCAS
   Marvin Lechner         : AUTO-CI (C++ implementation), FIC-MRCC
   Dagmar Lenk            : GEPOL surface, SMD
   Dimitrios Liakos       : Extrapolation schemes; Compound Job, initial MDCI parallelization
   Dimitrios Manganas     : Further ROCIS development; embedding schemes
   Dimitrios Pantazis     : SARC Basis sets
   Anastasios Papadopoulos: AUTO-CI, single reference methods and gradients
   Taras Petrenko         : DFT Hessian,TD-DFT gradient, ASA, ECA, R-Raman, ABS, FL, XAS/XES, NRVS
   Peter Pinski           : DLPNO-MP2, DLPNO-MP2 Gradient
   Christoph Reimann      : Effective Core Potentials
   Marius Retegan         : Local ZFS, SOC
   Christoph Riplinger    : Optimizer, TS searches, QM/MM, DLPNO-CCSD(T), (RO)-DLPNO pert. Triples
   Tobias Risthaus        : Range-separated hybrids, TD-DFT gradient, RPA, STAB
   Michael Roemelt        : Original ROCIS implementation
   Masaaki Saitow         : Open-shell DLPNO-CCSD energy and density
   Barbara Sandhoefer     : DKH picture change effects
   Avijit Sen             : IP-ROCIS
   Kantharuban Sivalingam : CASSCF convergence, NEVPT2, FIC-MRCI
   Bernardo de Souza      : ESD, SOC TD-DFT
   Georgi Stoychev        : AutoAux, RI-MP2 NMR, DLPNO-MP2 response
   Willem Van den Heuvel  : Paramagnetic NMR
   Boris Wezisla          : Elementary symmetry handling
   Frank Wennmohs         : Technical directorship


 We gratefully acknowledge several colleagues who have allowed us to
 interface, adapt or use parts of their codes:
   Stefan Grimme, W. Hujo, H. Kruse, P. Pracht,  : VdW corrections, initial TS optimization,
                  C. Bannwarth, S. Ehlert          DFT functionals, gCP, sTDA/sTD-DF
   Ed Valeev, F. Pavosevic, A. Kumar             : LibInt (2-el integral package), F12 methods
   Garnet Chan, S. Sharma, J. Yang, R. Olivares  : DMRG
   Ulf Ekstrom                                   : XCFun DFT Library
   Mihaly Kallay                                 : mrcc  (arbitrary order and MRCC methods)
   Jiri Pittner, Ondrej Demel                    : Mk-CCSD
   Frank Weinhold                                : gennbo (NPA and NBO analysis)
   Christopher J. Cramer and Donald G. Truhlar   : smd solvation model
   Lars Goerigk                                  : TD-DFT with DH, B97 family of functionals
   V. Asgeirsson, H. Jonsson                     : NEB implementation
   FAccTs GmbH                                   : IRC, NEB, NEB-TS, DLPNO-Multilevel, CI-OPT
                                                   MM, QMMM, 2- and 3-layer-ONIOM, Crystal-QMMM,
                                                   LR-CPCM, SF, NACMEs, symmetry and pop. for TD-DFT,
                                                   nearIR, NL-DFT gradient (VV10), updates on ESD,
                                                   ML-optimized integration grids
   S Lehtola, MJT Oliveira, MAL Marques          : LibXC Library
   Liviu Ungur et al                             : ANISO software


 Your calculation uses the libint2 library for the computation of 2-el integrals
 For citations please refer to: http://libint.valeyev.net

 Your ORCA version has been built with support for libXC version: 5.1.0
 For citations please refer to: https://tddft.org/programs/libxc/

 This ORCA versions uses:
   CBLAS   interface :  Fast vector & matrix operations
   LAPACKE interface :  Fast linear algebra routines
   SCALAPACK package :  Parallel linear algebra routines
   Shared memory     :  Shared parallel matrices
   BLAS/LAPACK       :  OpenBLAS 0.3.15  USE64BITINT DYNAMIC_ARCH NO_AFFINITY Haswell SINGLE_THREADED
        Core in use  :  Haswell
   Copyright (c) 2011-2014, The OpenBLAS Project




***************************************
The coordinates will be read from file: 4.xyz
***************************************


================================================================================

cite the ECPs for Au [Def2-ECP] as follows:
Ce-Yb(ecp-28): M. Dolg, H. Stoll, H.Preuss, J. Chem. Phys., 1989, 90, 1730-1734.
Y-Cd(ecp-28), Hf-Hg(ecp-46): D. Andrae,U. Haeussermann, M. Dolg, H. Stoll, H. Preuss, Theor. Chim. Acta, 1990, 77, 123-141.
In-Sb(ecp-28), Tl-Bi(ecp-46): B. Metz, H. Stoll, M. Dolg, J. Chem. Phys., 2000, 113, 2563-2569.
Te-Xe(ecp-28), Po-Rn(ecp-46): K. A. Peterson, D. Figgen, E. Goll, H. Stoll, M. Dolg, J. Chem. Phys., 2003, 119, 11113-11123.
Rb(ecp-28), Cs(ecp-46): T. Leininger, A. Nicklass, W. Kuechle, H. Stoll, M. Dolg, A. Bergner, Chem. Phys. Lett., 1996, 255, 274-280.
Sr(ecp-28), Ba(ecp-46): M. Kaupp, P. V. Schleyer, H. Stoll and H. Preuss, J. Chem. Phys., 1991, 94, 1360-1366.
La(ecp-46): M. Dolg, H. Stoll, A. Savin, H. Preuss, Theor. Chim. Acta, 1989, 75, 173-194.
Lu(ecp-28): X. Cao, M. Dolg, J. Chem. Phys., 2001, 115, 7348-7355.

ECP parameters for Au [Def2-ECP] have been obtained from:
TURBOMOLE (7.0.2)

----- Orbital basis set information -----
Your calculation utilizes the basis: def2-TZVP
   F. Weigend and R. Ahlrichs, Phys. Chem. Chem. Phys. 7, 3297 (2005).

----- AuxJ basis set information -----
Your calculation utilizes the auxiliary basis: def2/J
   F. Weigend, Phys. Chem. Chem. Phys. 8, 1057 (2006).

================================================================================
                                        WARNINGS
                       Please study these warnings very carefully!
================================================================================


WARNING: your system is open-shell and RHF/RKS was chosen
  ===> : WILL SWITCH to UHF/UKS


WARNING: Geometry Optimization
  ===> : Switching off AutoStart
         For restart on a previous wavefunction, please use MOREAD

INFO   : the flag for use of the SHARK integral package has been found!

================================================================================
                                       INPUT FILE
================================================================================
NAME = pbe.inp
|  1> %pal nprocs 1 end 
|  2> 
|  3> !PBE def2-TZVP OPT UNO
|  4> !SLOWCONV KDIIS 
|  5> 
|  6> %geom maxiter 300 end
|  7> 
|  8> *xyzfile 0 5 4.xyz                           ****END OF INPUT****
================================================================================

                       *****************************
                       * Geometry Optimization Run *
                       *****************************

Geometry optimization settings:
Update method            Update   .... BFGS
Choice of coordinates    CoordSys .... Z-matrix Internals
Initial Hessian          InHess   .... Almoef's Model

Convergence Tolerances:
Energy Change            TolE     ....  5.0000e-06 Eh
Max. Gradient            TolMAXG  ....  3.0000e-04 Eh/bohr
RMS Gradient             TolRMSG  ....  1.0000e-04 Eh/bohr
Max. Displacement        TolMAXD  ....  4.0000e-03 bohr
RMS Displacement         TolRMSD  ....  2.0000e-03 bohr
Strict Convergence                ....  False
------------------------------------------------------------------------------
                        ORCA OPTIMIZATION COORDINATE SETUP
------------------------------------------------------------------------------

The optimization will be done in new redundant internal coordinates
Making redundant internal coordinates   ...  (new redundants) done
Evaluating the initial hessian          ...  (Almloef) done
Evaluating the coordinates              ...  done
Calculating the B-matrix                .... done
Calculating the G-matrix                .... done
Diagonalizing the G-matrix              .... done
The first mode is                       ....   41
The number of degrees of freedom        ....   27

    -----------------------------------------------------------------
                    Redundant Internal Coordinates


    -----------------------------------------------------------------
         Definition                    Initial Value    Approx d2E/dq
    -----------------------------------------------------------------
      1. B(Au  7,Au  3)                  2.6811         0.010545   
      2. B(Au  9,Au  7)                  2.6814         0.010532   
      3. B(Cr 10,Au  2)                  2.5729         0.114086   
      4. B(Cr 10,Au  4)                  2.5583         0.120372   
      5. B(Cr 10,Au  5)                  2.5583         0.120344   
      6. B(Cr 10,Au  6)                  2.5725         0.114229   
      7. B(Cr 10,Au  9)                  2.6442         0.087776   
      8. B(Cr 10,Au  8)                  2.5602         0.119528   
      9. B(Cr 10,Au  3)                  2.6440         0.087852   
     10. B(Cr 10,Au  1)                  2.8000         0.049540   
     11. B(Cr 10,Au  0)                  2.5604         0.119427   
     12. A(Au  7,Au  3,Cr 10)          103.8571         0.197515   
     13. A(Au  3,Au  7,Au  9)           65.7656         0.148865   
     14. A(Au  7,Au  9,Cr 10)          103.8411         0.197462   
     15. A(Au  1,Cr 10,Au  2)           63.4796         0.272253   
     16. A(Au  2,Cr 10,Au  3)          110.2939         0.297623   
     17. A(Au  0,Cr 10,Au  4)          165.9441         0.315369   
     18. A(Au  1,Cr 10,Au  3)          123.9840         0.261729   
     19. A(Au  2,Cr 10,Au  4)          104.5427         0.313037   
     20. A(Au  3,Cr 10,Au  4)          107.3913         0.300171   
     21. A(Au  0,Cr 10,Au  5)           97.2864         0.315357   
     22. A(Au  1,Cr 10,Au  5)          128.4733         0.274482   
     23. A(Au  2,Cr 10,Au  5)           65.2414         0.313026   
     24. A(Au  3,Cr 10,Au  5)           70.6617         0.300160   
     25. A(Au  4,Cr 10,Au  5)           69.7997         0.315762   
     26. A(Au  1,Cr 10,Au  6)           63.4595         0.272305   
     27. A(Au  4,Cr 10,Au  9)           70.6550         0.300130   
     28. A(Au  2,Cr 10,Au  6)           71.6358         0.310397   
     29. A(Au  3,Cr 10,Au  6)          172.5272         0.297682   
     30. A(Au  4,Cr 10,Au  6)           65.2474         0.313101   
     31. A(Au  5,Cr 10,Au  6)          104.5189         0.313089   
     32. A(Au  0,Cr 10,Au  8)           94.9701         0.315009   
     33. A(Au  1,Cr 10,Au  8)           63.7339         0.274196   
     34. A(Au  2,Cr 10,Au  8)          125.4159         0.312681   
     35. A(Au  3,Cr 10,Au  8)          109.6665         0.299835   
     36. A(Au  4,Cr 10,Au  8)           97.2534         0.315413   
     37. A(Au  5,Cr 10,Au  8)          165.9156         0.315400   
     38. A(Au  6,Cr 10,Au  8)           73.5435         0.312744   
     39. A(Au  0,Cr 10,Au  9)          109.6531         0.299754   
     40. A(Au  1,Cr 10,Au  9)          123.9802         0.261696   
     41. A(Au  2,Cr 10,Au  9)          172.5134         0.297583   
     42. A(Au  3,Cr 10,Au  9)           66.8090         0.285604   
     43. A(Au  0,Cr 10,Au  6)          125.3958         0.312701   
     44. A(Au  5,Cr 10,Au  9)          107.3777         0.300119   
     45. A(Au  6,Cr 10,Au  9)          110.3286         0.297642   
     46. A(Au  8,Cr 10,Au  9)           61.6304         0.299794   
     47. A(Au  1,Cr 10,Au  4)          128.4543         0.274491   
     48. A(Au  0,Cr 10,Au  3)           61.6272         0.299795   
     49. A(Au  0,Cr 10,Au  2)           73.5355         0.312638   
     50. A(Au  0,Cr 10,Au  1)           63.7383         0.274160   
     51. D(Au  9,Au  7,Au  3,Cr 10)    -33.4293         0.001502   
     52. D(Cr 10,Au  9,Au  7,Au  3)     33.4234         0.001502   
     53. D(Au  0,Cr 10,Au  3,Au  7)    163.9885         0.001533   
     54. D(Au  2,Cr 10,Au  3,Au  7)   -138.9100         0.001533   
     55. D(Au  4,Cr 10,Au  3,Au  7)    -25.5587         0.001533   
     56. D(Au  5,Cr 10,Au  3,Au  7)    -85.9942         0.001533   
     57. D(Au  8,Cr 10,Au  3,Au  7)     79.0635         0.001533   
     58. D(Au  6,Cr 10,Au  9,Au  7)    138.9173         0.001533   
     59. D(Au  9,Cr 10,Au  3,Au  7)     33.6559         0.001533   
     60. D(Au  0,Cr 10,Au  9,Au  7)    -79.0641         0.001533   
     61. D(Au  1,Cr 10,Au  9,Au  7)   -150.0444         0.001533   
     62. D(Au  2,Cr 10,Au  9,Au  7)     35.0009         0.001533   
     63. D(Au  3,Cr 10,Au  9,Au  7)    -33.6484         0.001533   
     64. D(Au  4,Cr 10,Au  9,Au  7)     86.0236         0.001533   
     65. D(Au  5,Cr 10,Au  9,Au  7)     25.5839         0.001533   
     66. D(Au  6,Cr 10,Au  3,Au  7)    -35.2374         0.001533   
     67. D(Au  8,Cr 10,Au  9,Au  7)   -163.9981         0.001533   
     68. D(Au  1,Cr 10,Au  3,Au  7)    150.0469         0.001533   
    -----------------------------------------------------------------

Number of atoms                         .... 11
Number of degrees of freedom            .... 68

         *************************************************************
         *                GEOMETRY OPTIMIZATION CYCLE   1            *
         *************************************************************
---------------------------------
CARTESIAN COORDINATES (ANGSTROEM)
---------------------------------
  Au     9.927712    5.207981    7.633187
  Au     8.895460    3.018775    9.114119
  Au    10.279580    4.936697   10.673576
  Au     8.766205    7.608023    7.689761
  Au     6.694770    6.754780   11.233818
  Au     9.438774    7.571472   10.622738
  Au     7.457251    4.096685   11.302808
  Au     6.747508    9.355889    7.930738
  Au     6.389828    4.155752    8.422156
  Au     6.037059    6.796454    8.297690
  Cr     8.165817    5.704227    9.423518

----------------------------
CARTESIAN COORDINATES (A.U.)
----------------------------
  NO LB      ZA    FRAG     MASS         X           Y           Z
   0 Au   19.0000*   0   196.966   18.760657    9.841657   14.424633
   1 Au   19.0000*   0   196.966   16.809984    5.704659   17.223190
   2 Au   19.0000*   0   196.966   19.425590    9.329006   20.170136
   3 Au   19.0000*   0   196.966   16.565726   14.377080   14.531542
   4 Au   19.0000*   0   196.966   12.651282   12.764684   21.228839
   5 Au   19.0000*   0   196.966   17.836699   14.308008   20.074065
   6 Au   19.0000*   0   196.966   14.092163    7.741612   21.359211
   7 Au   19.0000*   0   196.966   12.750942   17.680069   14.986923
   8 Au   19.0000*   0   196.966   12.075025    7.853233   15.915568
   9 Au   19.0000*   0   196.966   11.408389   12.843437   15.680361
  10 Cr   24.0000    0    52.000   15.431158   10.779426   17.807868
* core charge reduced due to ECP

--------------------------------
INTERNAL COORDINATES (ANGSTROEM)
--------------------------------
 Au     0   0   0     0.000000000000     0.00000000     0.00000000
 Au     1   0   0     2.837485610676     0.00000000     0.00000000
 Au     2   1   0     2.833040120620    65.62184525     0.00000000
 Au     1   2   3     2.666927896570   121.65550014   284.30068186
 Au     3   2   1     4.058343781390    87.00269048    91.64898634
 Au     3   2   1     2.766147915860   119.09177730    57.02411906
 Au     5   3   2     2.766154163482    47.89226764    43.52349047
 Au     4   1   2     2.681090194629   156.42148795   331.36250951
 Au     2   1   3     2.837203381485    83.38511556   112.20747198
 Au     9   2   1     2.667066884073   121.66618970   323.50492043
 Cr     5   3   2     2.558285851304    37.85477996   314.28244445

---------------------------
INTERNAL COORDINATES (A.U.)
---------------------------
 Au     0   0   0     0.000000000000     0.00000000     0.00000000
 Au     1   0   0     5.362070713119     0.00000000     0.00000000
 Au     2   1   0     5.353669954383    65.62184525     0.00000000
 Au     1   2   3     5.039763343433   121.65550014   284.30068186
 Au     3   2   1     7.669158304129    87.00269048    91.64898634
 Au     3   2   1     5.227262006892   119.09177730    57.02411906
 Au     5   3   2     5.227273813188    47.89226764    43.52349047
 Au     4   1   2     5.066526208191   156.42148795   331.36250951
 Au     2   1   3     5.361537377242    83.38511556   112.20747198
 Au     9   2   1     5.040025991749   121.66618970   323.50492043
 Cr     5   3   2     4.834459631250    37.85477996   314.28244445

---------------------
BASIS SET INFORMATION
---------------------
There are 2 groups of distinct atoms

 Group   1 Type Au  : 8s7p6d1f contracted to 6s4p3d1f pattern {311111/4111/411/1}
 Group   2 Type Cr  : 17s11p7d1f contracted to 6s4p4d1f pattern {842111/6311/4111/1}

Atom   0Au   basis set group =>   1
Atom   1Au   basis set group =>   1
Atom   2Au   basis set group =>   1
Atom   3Au   basis set group =>   1
Atom   4Au   basis set group =>   1
Atom   5Au   basis set group =>   1
Atom   6Au   basis set group =>   1
Atom   7Au   basis set group =>   1
Atom   8Au   basis set group =>   1
Atom   9Au   basis set group =>   1
Atom  10Cr   basis set group =>   2
---------------------------------
AUXILIARY/J BASIS SET INFORMATION
---------------------------------
There are 2 groups of distinct atoms

 Group   1 Type Au  : 11s5p5d3f3g contracted to 8s5p5d2f3g pattern {41111111/11111/11111/21/111}
 Group   2 Type Cr  : 19s5p5d3f3g contracted to 8s5p5d2f3g pattern {121111111/11111/11111/21/111}

Atom   0Au   basis set group =>   1
Atom   1Au   basis set group =>   1
Atom   2Au   basis set group =>   1
Atom   3Au   basis set group =>   1
Atom   4Au   basis set group =>   1
Atom   5Au   basis set group =>   1
Atom   6Au   basis set group =>   1
Atom   7Au   basis set group =>   1
Atom   8Au   basis set group =>   1
Atom   9Au   basis set group =>   1
Atom  10Cr   basis set group =>   2
-------------------------
ECP PARAMETER INFORMATION
-------------------------

 Group 1, Type Au ECP Def2-ECP (replacing 60 core electrons, lmax=3)

Atom   0Au   ECP group =>   1
Atom   1Au   ECP group =>   1
Atom   2Au   ECP group =>   1
Atom   3Au   ECP group =>   1
Atom   4Au   ECP group =>   1
Atom   5Au   ECP group =>   1
Atom   6Au   ECP group =>   1
Atom   7Au   ECP group =>   1
Atom   8Au   ECP group =>   1
Atom   9Au   ECP group =>   1

------------------------------------------------------------------------------
                           ORCA GTO INTEGRAL CALCULATION
                           -- RI-GTO INTEGRALS CHOSEN --
------------------------------------------------------------------------------
------------------------------------------------------------------------------
                   ___                                                        
                  /   \      - P O W E R E D   B Y -                         
                 /     \                                                     
                 |  |  |   _    _      __       _____    __    __             
                 |  |  |  | |  | |    /  \     |  _  \  |  |  /  |          
                  \  \/   | |  | |   /    \    | | | |  |  | /  /          
                 / \  \   | |__| |  /  /\  \   | |_| |  |  |/  /          
                |  |  |   |  __  | /  /__\  \  |    /   |      \           
                |  |  |   | |  | | |   __   |  |    \   |  |\   \          
                \     /   | |  | | |  |  |  |  | |\  \  |  | \   \       
                 \___/    |_|  |_| |__|  |__|  |_| \__\ |__|  \__/        
                                                                              
                      - O R C A' S   B I G   F R I E N D -                    
                                      &                                       
                       - I N T E G R A L  F E E D E R -                       
                                                                              
 v1 FN, 2020, v2 2021                                                         
------------------------------------------------------------------------------


Reading SHARK input file pbe.SHARKINP.tmp ... ok
----------------------
SHARK INTEGRAL PACKAGE
----------------------

Number of atoms                             ...     11
Number of basis functions                   ...    445
Number of shells                            ...    155
Maximum angular momentum                    ...      3
Integral batch strategy                     ... SHARK/LIBINT Hybrid
RI-J (if used) integral strategy            ... SPLIT-RIJ (Revised 2003 algorithm where possible)
Printlevel                                  ...      1
Contraction scheme used                     ... SEGMENTED contraction
Coulomb Range Separation                    ... NOT USED
Exchange Range Separation                   ... NOT USED
Finite Nucleus Model                        ... NOT USED
Auxiliary Coulomb fitting basis             ... AVAILABLE
   # of basis functions in Aux-J            ...    979
   # of shells in Aux-J                     ...    253
   Maximum angular momentum in Aux-J        ...      4
Auxiliary J/K fitting basis                 ... NOT available
Auxiliary Correlation fitting basis         ... NOT available
Auxiliary 'external' fitting basis          ... NOT available
Integral threshold                          ...     2.500000e-11
Primitive cut-off                           ...     2.500000e-12
Primitive pair pre-selection threshold      ...     2.500000e-12

Calculating pre-screening integrals         ... done (  0.2 sec) Dimension = 155
Organizing shell pair data                  ... done (  0.5 sec)
Shell pair information
Total number of shell pairs                 ...     12090
Shell pairs after pre-screening             ...     10162
Total number of primitive shell pairs       ...     33105
Primitive shell pairs kept                  ...     20632
          la=0 lb=0:   1580 shell pairs
          la=1 lb=0:   2325 shell pairs
          la=1 lb=1:    875 shell pairs
          la=2 lb=0:   1998 shell pairs
          la=2 lb=1:   1403 shell pairs
          la=2 lb=2:    575 shell pairs
          la=3 lb=0:    561 shell pairs
          la=3 lb=1:    428 shell pairs
          la=3 lb=2:    354 shell pairs
          la=3 lb=3:     63 shell pairs

Calculating one electron integrals          ... done (  0.1 sec)
Calculating ECP integrals                   ... done (  5.5 sec)
Calculating RI/J V-Matrix + Cholesky decomp.... done (  0.0 sec)
Calculating Nuclear repulsion               ... done (  0.0 sec) ENN=   3188.136628005801 Eh

SHARK setup successfully completed in   6.8 seconds

Maximum memory used throughout the entire GTOINT-calculation: 307.0 MB
-------------------------------------------------------------------------------
                                 ORCA SCF
-------------------------------------------------------------------------------

------------
SCF SETTINGS
------------
Hamiltonian:
 Density Functional     Method          .... DFT(GTOs)
 Exchange Functional    Exchange        .... PBE
   PBE kappa parameter   XKappa         ....  0.804000
   PBE mue parameter    XMuePBE         ....  0.219520
 Correlation Functional Correlation     .... PBE
   PBE beta parameter  CBetaPBE         ....  0.066725
 LDA part of GGA corr.  LDAOpt          .... PW91-LDA
 Gradients option       PostSCFGGA      .... off
   Density functional embedding theory  .... OFF
   NL short-range parameter             ....  6.400000
 RI-approximation to the Coulomb term is turned on
   Number of AuxJ basis functions       .... 979


General Settings:
 Integral files         IntName         .... pbe
 Hartree-Fock type      HFTyp           .... UHF
 Total Charge           Charge          ....    0
 Multiplicity           Mult            ....    5
 Number of Electrons    NEL             ....  214
 Basis Dimension        Dim             ....  445
 Nuclear Repulsion      ENuc            ....   3188.1366280058 Eh

Convergence Acceleration:
 DIIS                   CNVDIIS         .... off
 Trust-Rad. Augm. Hess. CNVTRAH         .... auto
   Auto Start mean grad. ratio tolernc. ....  1.125000
   Auto Start start iteration           ....    20
   Auto Start num. interpolation iter.  ....    10
   Max. Number of Micro iterations      ....    16
   Max. Number of Macro iterations      .... Maxiter - #DIIS iter
   Number of Davidson start vectors     ....     2
   Converg. threshold I  (grad. norm)   ....   1.000e-05
   Converg. threshold II (energy diff.) ....   1.000e-08
   Grad. Scal. Fac. for Micro threshold ....   0.100
   Minimum threshold for Micro iter.    ....   0.010
   NR start threshold (gradient norm)   ....   0.001
   Initial trust radius                 ....   0.400
   Minimum AH scaling param. (alpha)    ....   1.000
   Maximum AH scaling param. (alpha)    .... 1000.000
   Orbital update algorithm             .... Taylor
   White noise on init. David. guess    .... on
   Maximum white noise                  ....   0.010
   Quad. conv. algorithm                .... NR
 SOSCF                  CNVSOSCF        .... off
 Level Shifting         CNVShift        .... off
 Zerner damping         CNVZerner       .... off
 Static damping         CNVDamp         .... off
 Fernandez-Rico         CNVRico         .... off

SCF Procedure:
 Maximum # iterations   MaxIter         ....   125
 SCF integral mode      SCFMode         .... Direct
   Integral package                     .... SHARK and LIBINT hybrid scheme
 Reset frequency        DirectResetFreq ....    20
 Integral Threshold     Thresh          ....  2.500e-11 Eh
 Primitive CutOff       TCut            ....  2.500e-12 Eh

Convergence Tolerance:
 Convergence Check Mode ConvCheckMode   .... Total+1el-Energy
 Convergence forced     ConvForced      .... 0
 Energy Change          TolE            ....  1.000e-08 Eh
 1-El. energy change                    ....  1.000e-05 Eh


Diagonalization of the overlap matrix:
Smallest eigenvalue                        ... 1.704e-04
Time for diagonalization                   ...    0.027 sec
Threshold for overlap eigenvalues          ... 1.000e-08
Number of eigenvalues below threshold      ... 0
Time for construction of square roots      ...    0.012 sec
Total time needed                          ...    0.039 sec

Time for model grid setup =    0.782 sec

------------------------------
INITIAL GUESS: MODEL POTENTIAL
------------------------------
Loading Hartree-Fock densities                     ... done
  calling /media/Programs/ORCA501/orca pbe_atom79.inp > pbe_atom79.out in order to generate an atomic fitting density for atom 0 (Au with ECP) on-the-fly... 
    atom 0 (Au), assumed electronic state with S=2: 1s2 2s2 2p6 3s2 3p6 4s2 3d10 4p6 5s2 4d10 5p6 6s1 4f14 5d10           ... done
Calculating cut-offs                               ... done
Initializing the effective Hamiltonian             ... done
Setting up the integral package (SHARK)            ... done
Starting the Coulomb interaction                   ... done (   1.3 sec)
Reading the grid                                   ... done
Mapping shells                                     ... done
Starting the XC term evaluation                    ... done (   1.8 sec)
  promolecular density results
     # of electrons  =    814.011655819
     EX              =  -3705.453198469
     EC              =    -49.436291405
     EX+EC           =  -3754.889489875
Transforming the Hamiltonian                       ... done (   0.0 sec)
Diagonalizing the Hamiltonian                      ... done (   0.0 sec)
Back transforming the eigenvectors                 ... done (   0.0 sec)
Now organizing SCF variables                       ... done
                      ------------------
                      INITIAL GUESS DONE (   4.8 sec)
                      ------------------
-------------------
DFT GRID GENERATION
-------------------

General Integration Accuracy     IntAcc      ... 4.388
Radial Grid Type                 RadialGrid  ... OptM3 with GC (2021)
Angular Grid (max. ang.)         AngularGrid ... 4 (Lebedev-302)
Angular grid pruning method      GridPruning ... 4 (adaptive)
Weight generation scheme         WeightScheme... Becke
Basis function cutoff            BFCut       ... 1.0000e-11
Integration weight cutoff        WCut        ... 1.0000e-14
Angular grids for H and He will be reduced by one unit
Partially contracted basis set               ... off
Rotationally invariant grid construction     ... off

Total number of grid points                  ...   123210
Total number of batches                      ...     1929
Average number of points per batch           ...       63
Average number of grid points per atom       ...    11201
Time for grid setup =    2.052 sec

--------------
SCF ITERATIONS
--------------
ITER       Energy         Delta-E        Max-DP      RMS-DP      [F,P]   Gradient Norm
               ***  Starting incremental Fock matrix formation  ***
                             ****Resetting KDIIS****
                             ****Turning on KDIIS(Cayley)****
  0  -2401.1152381388   0.000000000000 0.53530172  0.00223346  0.3915669   0.209905172
  1  -2401.8601909447  -0.744952805885 0.42339019  0.00168638  0.3502714   0.164728828
  2  -2402.2126261583  -0.352435213556 0.10560957  0.00125750  0.2766017   0.123467365
  3  -2402.3823131393  -0.169686981005 0.13145734  0.00151689  0.1612269   0.070464771
  4  -2402.4534258645  -0.071112725228 0.04859173  0.00049865  0.0090823   0.008260624
  5  -2402.4580824947  -0.004656630235 0.06031886  0.00037633  0.0167329   0.005787554
  6  -2402.4635932429  -0.005510748175 0.02695587  0.00022201  0.0123632   0.003402943
  7  -2402.4653197239  -0.001726480961 0.04008777  0.00021999  0.0049455   0.004020422
  8  -2402.4660262142  -0.000706490271 0.05757676  0.00019093  0.0032964   0.004374488
  9  -2402.4676383869  -0.001612172717 0.02078274  0.00011475  0.0044096   0.000908356
 10  -2402.4679539310  -0.000315544114 0.01485497  0.00007674  0.0037252   0.001784974
 11  -2402.4683086101  -0.000354679142 0.00906273  0.00005470  0.0014132   0.000441063
 12  -2402.4684038806  -0.000095270509 0.00269518  0.00003340  0.0008622   0.000654885
 13  -2402.4684417805  -0.000037899852 0.00226865  0.00002897  0.0007215   0.000515672
 14  -2402.4684843715  -0.000042591026 0.00229478  0.00002569  0.0009920   0.000218671
 15  -2402.4685083348  -0.000023963259 0.00446695  0.00001562  0.0004100   0.000172591
 16  -2402.4685123932  -0.000004058437 0.00066532  0.00001170  0.0003248   0.000175186
 17  -2402.4685162390  -0.000003845817 0.00163672  0.00000653  0.0005060   0.000177078
 18  -2402.4685190151  -0.000002776125 0.00083960  0.00000636  0.0002542   0.000096910
 19  -2402.4685208439  -0.000001828771 0.00092718  0.00000633  0.0002391   0.000094881
               *** Restarting incremental Fock matrix formation ***
                             ****Resetting KDIIS****
 20  -2402.4685219915  -0.000001147594 0.00018726  0.00000136  0.0002206   0.000105183
 21  -2402.4685226918  -0.000000700260 0.00008448  0.00000113  0.0002202   0.000060641
 22  -2402.4685230538  -0.000000362031 0.00017082  0.00000129  0.0002198   0.000044582
 23  -2402.4685235127  -0.000000458867 0.00072767  0.00000533  0.0002143   0.000033603

 WARNING: the maximum gradient error descreased on average only by a factor   1.1
          during the last 20 iterations

                      *** Initiating the TRAH-SCF procedure ***

                    *** KDIIS BlockDiag ( 0.040 sec) ***

TRAH GRID
---------

General Integration Accuracy     IntAcc      ... 3.467
Radial Grid Type                 RadialGrid  ... OptM3 with GC (2021)
Angular Grid (max. ang.)         AngularGrid ... 1 (Lebedev-50)
Angular grid pruning method      GridPruning ... 4 (adaptive)
Weight generation scheme         WeightScheme... Becke
Basis function cutoff            BFCut       ... 1.0000e-11
Integration weight cutoff        WCut        ... 1.0000e-14
Angular grids for H and He will be reduced by one unit
Partially contracted basis set               ... off
Rotationally invariant grid construction     ... off

Total number of grid points                  ...    53202
Total number of batches                      ...      836
Average number of points per batch           ...       63
Average number of grid points per atom       ...     4837

 --------------------------------------------------------------------------------------------
   Iter.        energy            ||Error||_2        Shift      TRadius  Mac/Mic        Rej.
 --------------------------------------------------------------------------------------------
    0      -2402.468524972087     6.529551e-04                     0.400 (TRAH MAcro)   No
WARNING : small    HOMO - LUMO gap : (op =  beta) 0.014882
    0     dE    -9.668944e-08     1.306958e-03    -9.6692e-08      0.000 (TRAH MIcro)
    0     dE    -2.965347e-06     1.108425e-03    -2.9650e-06      0.011 (TRAH MIcro)
    0     dE    -3.718499e-06     7.445773e-04    -3.7177e-06      0.014 (TRAH MIcro)
    0     dE    -3.899260e-06     4.718169e-04    -3.8984e-06      0.015 (TRAH MIcro)
    0     dE    -4.003381e-06     2.752136e-04    -4.0024e-06      0.015 (TRAH MIcro)
    0     dE    -4.041726e-06     1.360735e-04    -4.0407e-06      0.016 (TRAH MIcro)
    0     dE    -4.050078e-06     7.191202e-05    -4.0491e-06      0.016 (TRAH MIcro)
    0     dE    -4.052586e-06     3.847866e-05    -4.0516e-06      0.016 (TRAH MIcro)
    0     dE    -4.053362e-06     1.433862e-05    -4.0524e-06      0.016 (TRAH MIcro)
    0     dE    -4.053446e-06     5.185985e-06    -4.0525e-06      0.016 (TRAH MIcro)
    0     dE    -4.053459e-06     2.567809e-06    -4.0525e-06      0.016 (TRAH MIcro)
    1      -2402.468529027363     2.421657e-05                           (NR   MAcro)
WARNING : small    HOMO - LUMO gap : (op =  beta) 0.014882
    1     dE    -2.718759e-10     1.102877e-05                           (NR   MIcro)
    1     dE    -3.067543e-10     6.232786e-06                           (NR   MIcro)
    1     dE    -3.302666e-10     3.568189e-06                           (NR   MIcro)
    1     dE    -3.386865e-10     2.135855e-06                           (NR   MIcro)
    1     dE    -3.413005e-10     8.682830e-07                           (NR   MIcro)
    2      -2402.468529027698     8.682455e-07                           (NR   MAcro)
WARNING : small    HOMO - LUMO gap : (op =  beta) 0.014879

               *****************************************************
               *                     SUCCESS                       *
               *           SCF CONVERGED AFTER  43 CYCLES          *
               *****************************************************


----------------
TOTAL SCF ENERGY
----------------

Total Energy       :        -2402.46852903 Eh          -65374.49225 eV

Components:
Nuclear Repulsion  :         3188.13662801 Eh           86753.60812 eV
Electronic Energy  :        -5590.60515703 Eh         -152128.10037 eV
One Electron Energy:       -10192.64026131 Eh         -277355.84201 eV
Two Electron Energy:         4602.03510427 Eh          125227.74164 eV

Virial components:
Potential Energy   :        -3903.18590730 Eh         -106211.08821 eV
Kinetic Energy     :         1500.71737828 Eh           40836.59596 eV
Virial Ratio       :            2.60088006


DFT components:
N(Alpha)           :      109.000020435318 electrons
N(Beta)            :      105.000022520453 electrons
N(Total)           :      214.000042955770 electrons
E(X)               :     -167.933050744207 Eh       
E(C)               :       -9.280694884949 Eh       
E(XC)              :     -177.213745629156 Eh       
DFET-embed. en.    :        0.000000000000 Eh       

---------------
SCF CONVERGENCE
---------------

  Last Energy change         ...   -3.3469e-10  Tolerance :   1.0000e-08
  Last Orbital Gradient      ...    8.6825e-07  Tolerance :   1.0000e-05
  Last Orbital Rotation      ...    3.2471e-05

             **** THE GBW FILE WAS UPDATED (pbe.gbw) ****
             **** DENSITY pbe.scfp WAS UPDATED ****
             **** ENERGY FILE WAS UPDATED (pbe.en.tmp) ****
----------------------
UHF SPIN CONTAMINATION
----------------------

Warning: in a DFT calculation there is little theoretical justification to 
         calculate <S**2> as in Hartree-Fock theory. We will do it anyways
         but you should keep in mind that the values have only limited relevance

Expectation value of <S**2>     :     6.190801
Ideal value S*(S+1) for S=2.0   :     6.000000
Deviation                       :     0.190801

             **** THE GBW FILE WAS UPDATED (pbe.gbw) ****
             **** DENSITY pbe.scfp WAS UPDATED ****
----------------
ORBITAL ENERGIES
----------------
                 SPIN UP ORBITALS
  NO   OCC          E(Eh)            E(eV) 
   0   1.0000    -214.492861     -5836.6475 
   1   1.0000     -24.298824      -661.2046 
   2   1.0000     -20.662774      -562.2627 
   3   1.0000     -20.662661      -562.2596 
   4   1.0000     -20.661476      -562.2273 
   5   1.0000      -4.023410      -109.4825 
   6   1.0000      -4.023343      -109.4807 
   7   1.0000      -4.023327      -109.4803 
   8   1.0000      -4.021347      -109.4264 
   9   1.0000      -4.021303      -109.4252 
  10   1.0000      -4.019080      -109.3647 
  11   1.0000      -4.019070      -109.3644 
  12   1.0000      -4.018367      -109.3453 
  13   1.0000      -4.018308      -109.3437 
  14   1.0000      -4.001086      -108.8751 
  15   1.0000      -2.797504       -76.1240 
  16   1.0000      -2.242365       -61.0179 
  17   1.0000      -2.242121       -61.0112 
  18   1.0000      -2.240162       -60.9579 
  19   1.0000      -2.239293       -60.9343 
  20   1.0000      -2.238771       -60.9200 
  21   1.0000      -2.238305       -60.9074 
  22   1.0000      -2.237701       -60.8910 
  23   1.0000      -2.237609       -60.8884 
  24   1.0000      -2.237074       -60.8739 
  25   1.0000      -2.236843       -60.8676 
  26   1.0000      -2.236788       -60.8661 
  27   1.0000      -2.236216       -60.8505 
  28   1.0000      -2.235582       -60.8333 
  29   1.0000      -2.234638       -60.8076 
  30   1.0000      -2.234278       -60.7978 
  31   1.0000      -2.232738       -60.7559 
  32   1.0000      -2.232551       -60.7508 
  33   1.0000      -2.230661       -60.6994 
  34   1.0000      -2.230185       -60.6864 
  35   1.0000      -2.230034       -60.6823 
  36   1.0000      -2.229593       -60.6703 
  37   1.0000      -2.229458       -60.6666 
  38   1.0000      -2.228707       -60.6462 
  39   1.0000      -2.226835       -60.5953 
  40   1.0000      -2.226011       -60.5728 
  41   1.0000      -2.224683       -60.5367 
  42   1.0000      -2.224658       -60.5360 
  43   1.0000      -2.219408       -60.3932 
  44   1.0000      -2.215549       -60.2881 
  45   1.0000      -2.206112       -60.0314 
  46   1.0000      -1.788484       -48.6671 
  47   1.0000      -1.787486       -48.6400 
  48   1.0000      -1.785639       -48.5897 
  49   1.0000      -0.407693       -11.0939 
  50   1.0000      -0.370289       -10.0761 
  51   1.0000      -0.361568        -9.8388 
  52   1.0000      -0.361559        -9.8385 
  53   1.0000      -0.355634        -9.6773 
  54   1.0000      -0.350758        -9.5446 
  55   1.0000      -0.348962        -9.4957 
  56   1.0000      -0.346068        -9.4170 
  57   1.0000      -0.344720        -9.3803 
  58   1.0000      -0.339880        -9.2486 
  59   1.0000      -0.333325        -9.0702 
  60   1.0000      -0.331495        -9.0204 
  61   1.0000      -0.328838        -8.9481 
  62   1.0000      -0.326425        -8.8825 
  63   1.0000      -0.322396        -8.7728 
  64   1.0000      -0.318286        -8.6610 
  65   1.0000      -0.313818        -8.5394 
  66   1.0000      -0.311689        -8.4815 
  67   1.0000      -0.307854        -8.3771 
  68   1.0000      -0.305434        -8.3113 
  69   1.0000      -0.304318        -8.2809 
  70   1.0000      -0.302189        -8.2230 
  71   1.0000      -0.299069        -8.1381 
  72   1.0000      -0.297917        -8.1067 
  73   1.0000      -0.293045        -7.9742 
  74   1.0000      -0.292993        -7.9727 
  75   1.0000      -0.287252        -7.8165 
  76   1.0000      -0.285756        -7.7758 
  77   1.0000      -0.284567        -7.7435 
  78   1.0000      -0.282622        -7.6905 
  79   1.0000      -0.278425        -7.5763 
  80   1.0000      -0.276688        -7.5291 
  81   1.0000      -0.275805        -7.5050 
  82   1.0000      -0.271136        -7.3780 
  83   1.0000      -0.271013        -7.3746 
  84   1.0000      -0.267990        -7.2924 
  85   1.0000      -0.267125        -7.2688 
  86   1.0000      -0.263018        -7.1571 
  87   1.0000      -0.262585        -7.1453 
  88   1.0000      -0.260001        -7.0750 
  89   1.0000      -0.257405        -7.0043 
  90   1.0000      -0.255193        -6.9442 
  91   1.0000      -0.254725        -6.9314 
  92   1.0000      -0.253215        -6.8903 
  93   1.0000      -0.250104        -6.8057 
  94   1.0000      -0.247218        -6.7271 
  95   1.0000      -0.245540        -6.6815 
  96   1.0000      -0.245383        -6.6772 
  97   1.0000      -0.244041        -6.6407 
  98   1.0000      -0.243837        -6.6352 
  99   1.0000      -0.241999        -6.5851 
 100   1.0000      -0.237451        -6.4614 
 101   1.0000      -0.232569        -6.3285 
 102   1.0000      -0.230668        -6.2768 
 103   1.0000      -0.215516        -5.8645 
 104   1.0000      -0.206372        -5.6157 
 105   1.0000      -0.204802        -5.5730 
 106   1.0000      -0.202763        -5.5175 
 107   1.0000      -0.198697        -5.4068 
 108   1.0000      -0.184589        -5.0229 
 109   0.0000      -0.154456        -4.2030 
 110   0.0000      -0.152042        -4.1373 
 111   0.0000      -0.151215        -4.1148 
 112   0.0000      -0.122228        -3.3260 
 113   0.0000      -0.109224        -2.9721 
 114   0.0000      -0.101736        -2.7684 
 115   0.0000      -0.079734        -2.1697 
 116   0.0000      -0.057875        -1.5749 
 117   0.0000      -0.051847        -1.4108 
 118   0.0000      -0.047534        -1.2935 
 119   0.0000      -0.047091        -1.2814 
 120   0.0000      -0.045387        -1.2350 
 121   0.0000      -0.028044        -0.7631 
 122   0.0000      -0.016393        -0.4461 
 123   0.0000       0.006215         0.1691 
 124   0.0000       0.013359         0.3635 
 125   0.0000       0.014613         0.3977 
 126   0.0000       0.026388         0.7180 
 127   0.0000       0.026978         0.7341 
 128   0.0000       0.037188         1.0119 
 129   0.0000       0.042628         1.1600 
 130   0.0000       0.049225         1.3395 
 131   0.0000       0.051216         1.3937 
 132   0.0000       0.056792         1.5454 
 133   0.0000       0.059965         1.6317 
 134   0.0000       0.064330         1.7505 
 135   0.0000       0.074959         2.0397 
 136   0.0000       0.075652         2.0586 
 137   0.0000       0.076744         2.0883 
 138   0.0000       0.082633         2.2486 
 139   0.0000       0.087944         2.3931 
 140   0.0000       0.093785         2.5520 
 141   0.0000       0.093941         2.5563 
 142   0.0000       0.118132         3.2145 
 143   0.0000       0.119761         3.2589 
 144   0.0000       0.133230         3.6254 
 145   0.0000       0.133874         3.6429 
 146   0.0000       0.135486         3.6868 
 147   0.0000       0.140114         3.8127 
 148   0.0000       0.142928         3.8893 
 149   0.0000       0.144017         3.9189 
 150   0.0000       0.147560         4.0153 
 151   0.0000       0.149569         4.0700 
 152   0.0000       0.166275         4.5246 
 153   0.0000       0.187049         5.0899 
 154   0.0000       0.206661         5.6235 
 155   0.0000       0.217872         5.9286 
 156   0.0000       0.220031         5.9873 
 157   0.0000       0.223816         6.0904 
 158   0.0000       0.230164         6.2631 
 159   0.0000       0.248171         6.7531 
 160   0.0000       0.248340         6.7577 
 161   0.0000       0.254059         6.9133 
 162   0.0000       0.260136         7.0787 
 163   0.0000       0.260894         7.0993 
 164   0.0000       0.268342         7.3020 
 165   0.0000       0.272322         7.4103 
 166   0.0000       0.278427         7.5764 
 167   0.0000       0.282869         7.6972 
 168   0.0000       0.288494         7.8503 
 169   0.0000       0.293633         7.9902 
 170   0.0000       0.296002         8.0546 
 171   0.0000       0.297493         8.0952 
 172   0.0000       0.302194         8.2231 
 173   0.0000       0.310744         8.4558 
 174   0.0000       0.312202         8.4955 
 175   0.0000       0.321748         8.7552 
 176   0.0000       0.330051         8.9811 
 177   0.0000       0.330801         9.0015 
 178   0.0000       0.338582         9.2133 
 179   0.0000       0.344733         9.3807 
 180   0.0000       0.346002         9.4152 
 181   0.0000       0.354011         9.6331 
 182   0.0000       0.364826         9.9274 
 183   0.0000       0.370410        10.0794 
 184   0.0000       0.370928        10.0935 
 185   0.0000       0.373629        10.1670 
 186   0.0000       0.378313        10.2944 
 187   0.0000       0.380094        10.3429 
 188   0.0000       0.382389        10.4053 
 189   0.0000       0.406789        11.0693 
 190   0.0000       0.407068        11.0769 
 191   0.0000       0.408234        11.1086 
 192   0.0000       0.411387        11.1944 
 193   0.0000       0.424989        11.5645 
 194   0.0000       0.426312        11.6005 
 195   0.0000       0.435078        11.8391 
 196   0.0000       0.435226        11.8431 
 197   0.0000       0.439159        11.9501 
 198   0.0000       0.448046        12.1919 
 199   0.0000       0.453462        12.3393 
 200   0.0000       0.461240        12.5510 
 201   0.0000       0.476941        12.9782 
 202   0.0000       0.482891        13.1401 
 203   0.0000       0.485797        13.2192 
 204   0.0000       0.490787        13.3550 
 205   0.0000       0.491061        13.3624 
 206   0.0000       0.498504        13.5650 
 207   0.0000       0.505093        13.7443 
 208   0.0000       0.510225        13.8839 
 209   0.0000       0.512194        13.9375 
 210   0.0000       0.518854        14.1187 
 211   0.0000       0.522403        14.2153 
 212   0.0000       0.536245        14.5920 
 213   0.0000       0.541406        14.7324 
 214   0.0000       0.546341        14.8667 
 215   0.0000       0.552629        15.0378 
 216   0.0000       0.564697        15.3662 
 217   0.0000       0.570989        15.5374 
 218   0.0000       0.573341        15.6014 
 219   0.0000       0.618318        16.8253 
 220   0.0000       0.638620        17.3777 
 221   0.0000       0.657388        17.8884 
 222   0.0000       0.677698        18.4411 
 223   0.0000       0.688851        18.7446 
 224   0.0000       0.722927        19.6719 
 225   0.0000       0.723985        19.7006 
 226   0.0000       0.734768        19.9941 
 227   0.0000       0.735267        20.0076 
 228   0.0000       0.754057        20.5189 
 229   0.0000       0.767355        20.8808 
 230   0.0000       0.775656        21.1067 
 231   0.0000       0.807856        21.9829 
 232   0.0000       0.819092        22.2886 
 233   0.0000       0.831709        22.6319 
 234   0.0000       0.834567        22.7097 
 235   0.0000       0.840141        22.8614 
 236   0.0000       0.861826        23.4515 
 237   0.0000       0.870744        23.6941 
 238   0.0000       0.873892        23.7798 
 239   0.0000       0.887163        24.1409 
 240   0.0000       0.903842        24.5948 
 241   0.0000       0.906330        24.6625 
 242   0.0000       0.934933        25.4408 
 243   0.0000       0.948228        25.8026 
 244   0.0000       0.961958        26.1762 
 245   0.0000       1.016131        27.6503 
 246   0.0000       1.097017        29.8513 
 247   0.0000       1.113528        30.3007 
 248   0.0000       1.143394        31.1133 
 249   0.0000       1.226191        33.3664 
 250   0.0000       1.237364        33.6704 
 251   0.0000       1.263158        34.3723 
 252   0.0000       1.267368        34.4868 
 253   0.0000       1.269294        34.5392 
 254   0.0000       1.271445        34.5978 
 255   0.0000       1.284198        34.9448 
 256   0.0000       1.298900        35.3449 
 257   0.0000       1.305979        35.5375 
 258   0.0000       1.311730        35.6940 
 259   0.0000       1.328466        36.1494 
 260   0.0000       1.341277        36.4980 
 261   0.0000       1.354963        36.8704 
 262   0.0000       1.357407        36.9369 
 263   0.0000       1.362545        37.0767 
 264   0.0000       1.372380        37.3444 
 265   0.0000       1.382479        37.6192 
 266   0.0000       1.387540        37.7569 
 267   0.0000       1.392026        37.8790 
 268   0.0000       1.402669        38.1686 
 269   0.0000       1.409671        38.3591 
 270   0.0000       1.413666        38.4678 
 271   0.0000       1.415619        38.5210 
 272   0.0000       1.422246        38.7013 
 273   0.0000       1.425275        38.7837 
 274   0.0000       1.429977        38.9117 
 275   0.0000       1.435315        39.0569 
 276   0.0000       1.437114        39.1059 
 277   0.0000       1.440258        39.1914 
 278   0.0000       1.450136        39.4602 
 279   0.0000       1.452809        39.5329 
 280   0.0000       1.460088        39.7310 
 281   0.0000       1.460460        39.7411 
 282   0.0000       1.466754        39.9124 
 283   0.0000       1.469826        39.9960 
 284   0.0000       1.471361        40.0378 
 285   0.0000       1.471745        40.0482 
 286   0.0000       1.476487        40.1773 
 287   0.0000       1.479491        40.2590 
 288   0.0000       1.480537        40.2874 
 289   0.0000       1.485228        40.4151 
 290   0.0000       1.486275        40.4436 
 291   0.0000       1.487186        40.4684 
 292   0.0000       1.490422        40.5564 
 293   0.0000       1.491088        40.5746 
 294   0.0000       1.491195        40.5775 
 295   0.0000       1.493250        40.6334 
 296   0.0000       1.493287        40.6344 
 297   0.0000       1.497248        40.7422 
 298   0.0000       1.497411        40.7466 
 299   0.0000       1.499929        40.8152 
 300   0.0000       1.500554        40.8321 
 301   0.0000       1.506845        41.0033 
 302   0.0000       1.507401        41.0185 
 303   0.0000       1.512658        41.1615 
 304   0.0000       1.513999        41.1980 
 305   0.0000       1.515531        41.2397 
 306   0.0000       1.515946        41.2510 
 307   0.0000       1.519446        41.3462 
 308   0.0000       1.523987        41.4698 
 309   0.0000       1.526582        41.5404 
 310   0.0000       1.528674        41.5973 
 311   0.0000       1.533805        41.7370 
 312   0.0000       1.535089        41.7719 
 313   0.0000       1.537973        41.8504 
 314   0.0000       1.538536        41.8657 
 315   0.0000       1.539938        41.9039 
 316   0.0000       1.540449        41.9178 
 317   0.0000       1.548257        42.1302 
 318   0.0000       1.548750        42.1436 
 319   0.0000       1.551372        42.2150 
 320   0.0000       1.553517        42.2733 
 321   0.0000       1.555071        42.3156 
 322   0.0000       1.555172        42.3184 
 323   0.0000       1.557097        42.3708 
 324   0.0000       1.561248        42.4837 
 325   0.0000       1.564116        42.5618 
 326   0.0000       1.565272        42.5932 
 327   0.0000       1.569659        42.7126 
 328   0.0000       1.571576        42.7648 
 329   0.0000       1.572761        42.7970 
 330   0.0000       1.576198        42.8905 
 331   0.0000       1.579353        42.9764 
 332   0.0000       1.581400        43.0321 
 333   0.0000       1.586604        43.1737 
 334   0.0000       1.589386        43.2494 
 335   0.0000       1.591573        43.3089 
 336   0.0000       1.592995        43.3476 
 337   0.0000       1.597202        43.4621 
 338   0.0000       1.598670        43.5020 
 339   0.0000       1.602985        43.6194 
 340   0.0000       1.603022        43.6204 
 341   0.0000       1.610482        43.8234 
 342   0.0000       1.612265        43.8720 
 343   0.0000       1.616098        43.9762 
 344   0.0000       1.629025        44.3280 
 345   0.0000       1.633334        44.4453 
 346   0.0000       1.636333        44.5269 
 347   0.0000       1.642181        44.6860 
 348   0.0000       1.651463        44.9386 
 349   0.0000       1.655905        45.0595 
 350   0.0000       1.659172        45.1484 
 351   0.0000       1.660787        45.1923 
 352   0.0000       1.666594        45.3503 
 353   0.0000       1.675163        45.5835 
 354   0.0000       1.691362        46.0243 
 355   0.0000       1.718488        46.7624 
 356   0.0000       1.732282        47.1378 
 357   0.0000       1.745346        47.4933 
 358   0.0000       1.750238        47.6264 
 359   0.0000       1.763596        47.9899 
 360   0.0000       1.778304        48.3901 
 361   0.0000       1.788637        48.6713 
 362   0.0000       1.818042        49.4715 
 363   0.0000       1.827092        49.7177 
 364   0.0000       1.840904        50.0935 
 365   0.0000       1.859237        50.5924 
 366   0.0000       1.890811        51.4516 
 367   0.0000       1.952897        53.1410 
 368   0.0000       1.956739        53.2456 
 369   0.0000       1.963761        53.4366 
 370   0.0000       2.035146        55.3791 
 371   0.0000       2.089538        56.8592 
 372   0.0000       2.112712        57.4898 
 373   0.0000       2.202307        59.9278 
 374   0.0000       2.236026        60.8454 
 375   0.0000       2.249062        61.2001 
 376   0.0000       2.272270        61.8316 
 377   0.0000       2.317271        63.0562 
 378   0.0000       2.318881        63.1000 
 379   0.0000       2.364347        64.3372 
 380   0.0000       2.387488        64.9668 
 381   0.0000       2.422529        65.9204 
 382   0.0000       2.442786        66.4716 
 383   0.0000       2.488623        67.7189 
 384   0.0000       2.545818        69.2752 
 385   0.0000       2.620766        71.3147 
 386   0.0000       2.741971        74.6128 
 387   0.0000       2.824430        76.8567 
 388   0.0000       2.849385        77.5357 
 389   0.0000       2.855946        77.7142 
 390   0.0000       2.869495        78.0829 
 391   0.0000       2.888724        78.6062 
 392   0.0000       2.888856        78.6098 
 393   0.0000       2.940116        80.0046 
 394   0.0000       2.976611        80.9977 
 395   0.0000      23.403052       636.8294 
 396   0.0000      23.586959       641.8338 
 397   0.0000      24.030607       653.9061 
 398   0.0000      24.137999       656.8283 
 399   0.0000      24.186441       658.1465 
 400   0.0000      24.633797       670.3197 
 401   0.0000      25.022867       680.9068 
 402   0.0000      25.067746       682.1280 
 403   0.0000      25.347802       689.7488 
 404   0.0000      25.455146       692.6697 
 405   0.0000      25.697829       699.2735 
 406   0.0000      25.758452       700.9231 
 407   0.0000      25.773143       701.3229 
 408   0.0000      26.018616       708.0025 
 409   0.0000      26.092365       710.0093 
 410   0.0000      26.136190       711.2019 
 411   0.0000      26.358969       717.2640 
 412   0.0000      26.497364       721.0299 
 413   0.0000      26.640488       724.9245 
 414   0.0000      26.727319       727.2873 
 415   0.0000      26.943455       733.1687 
 416   0.0000      26.982921       734.2426 
 417   0.0000      27.271467       742.0944 
 418   0.0000      27.407870       745.8061 
 419   0.0000      27.409179       745.8417 
 420   0.0000      27.564244       750.0612 
 421   0.0000      28.284099       769.6495 
 422   0.0000      28.625695       778.9448 
 423   0.0000      29.138722       792.9049 
 424   0.0000      29.734833       809.1259 
 425   0.0000      43.885270      1194.1789 
 426   0.0000      43.952041      1195.9958 
 427   0.0000      43.975358      1196.6303 
 428   0.0000      43.977305      1196.6833 
 429   0.0000      44.034044      1198.2273 
 430   0.0000      44.078840      1199.4462 
 431   0.0000      44.098722      1199.9872 
 432   0.0000      44.159882      1201.6515 
 433   0.0000      44.173481      1202.0215 
 434   0.0000      44.229286      1203.5400 
 435   0.0000     205.088871      5580.7519 
 436   0.0000     205.120176      5581.6037 
 437   0.0000     205.125544      5581.7498 
 438   0.0000     205.126088      5581.7646 
 439   0.0000     205.152079      5582.4719 
 440   0.0000     205.166882      5582.8747 
 441   0.0000     205.176158      5583.1271 
 442   0.0000     205.197334      5583.7033 
 443   0.0000     205.202723      5583.8500 
 444   0.0000     205.231184      5584.6244 

                 SPIN DOWN ORBITALS
  NO   OCC          E(Eh)            E(eV) 
   0   1.0000    -214.492432     -5836.6358 
   1   1.0000     -24.255979      -660.0387 
   2   1.0000     -20.631239      -561.4046 
   3   1.0000     -20.629891      -561.3679 
   4   1.0000     -20.627527      -561.3036 
   5   1.0000      -4.021896      -109.4414 
   6   1.0000      -4.021449      -109.4292 
   7   1.0000      -4.021383      -109.4274 
   8   1.0000      -4.019676      -109.3810 
   9   1.0000      -4.019634      -109.3798 
  10   1.0000      -4.017289      -109.3160 
  11   1.0000      -4.017280      -109.3157 
  12   1.0000      -4.016496      -109.2944 
  13   1.0000      -4.016436      -109.2928 
  14   1.0000      -3.999688      -108.8370 
  15   1.0000      -2.682202       -72.9864 
  16   1.0000      -2.240148       -60.9575 
  17   1.0000      -2.239897       -60.9507 
  18   1.0000      -2.237987       -60.8987 
  19   1.0000      -2.237161       -60.8762 
  20   1.0000      -2.236659       -60.8626 
  21   1.0000      -2.235878       -60.8413 
  22   1.0000      -2.235768       -60.8383 
  23   1.0000      -2.235158       -60.8217 
  24   1.0000      -2.234755       -60.8108 
  25   1.0000      -2.234645       -60.8078 
  26   1.0000      -2.234517       -60.8043 
  27   1.0000      -2.233960       -60.7891 
  28   1.0000      -2.233847       -60.7861 
  29   1.0000      -2.232682       -60.7544 
  30   1.0000      -2.232598       -60.7521 
  31   1.0000      -2.230712       -60.7008 
  32   1.0000      -2.230605       -60.6978 
  33   1.0000      -2.229079       -60.6563 
  34   1.0000      -2.228466       -60.6397 
  35   1.0000      -2.228296       -60.6350 
  36   1.0000      -2.228001       -60.6270 
  37   1.0000      -2.227696       -60.6187 
  38   1.0000      -2.227265       -60.6070 
  39   1.0000      -2.225286       -60.5531 
  40   1.0000      -2.224451       -60.5304 
  41   1.0000      -2.223134       -60.4946 
  42   1.0000      -2.223110       -60.4939 
  43   1.0000      -2.217451       -60.3399 
  44   1.0000      -2.213735       -60.2388 
  45   1.0000      -2.205257       -60.0081 
  46   1.0000      -1.677914       -45.6584 
  47   1.0000      -1.674239       -45.5584 
  48   1.0000      -1.669065       -45.4176 
  49   1.0000      -0.398025       -10.8308 
  50   1.0000      -0.365474        -9.9450 
  51   1.0000      -0.357411        -9.7257 
  52   1.0000      -0.355493        -9.6735 
  53   1.0000      -0.348793        -9.4911 
  54   1.0000      -0.344580        -9.3765 
  55   1.0000      -0.342216        -9.3122 
  56   1.0000      -0.339200        -9.2301 
  57   1.0000      -0.338344        -9.2068 
  58   1.0000      -0.332722        -9.0538 
  59   1.0000      -0.327828        -8.9206 
  60   1.0000      -0.327383        -8.9085 
  61   1.0000      -0.325081        -8.8459 
  62   1.0000      -0.323442        -8.8013 
  63   1.0000      -0.318201        -8.6587 
  64   1.0000      -0.311725        -8.4825 
  65   1.0000      -0.311161        -8.4671 
  66   1.0000      -0.309113        -8.4114 
  67   1.0000      -0.303704        -8.2642 
  68   1.0000      -0.303354        -8.2547 
  69   1.0000      -0.301655        -8.2084 
  70   1.0000      -0.299994        -8.1633 
  71   1.0000      -0.295010        -8.0276 
  72   1.0000      -0.294700        -8.0192 
  73   1.0000      -0.292001        -7.9457 
  74   1.0000      -0.291006        -7.9187 
  75   1.0000      -0.284917        -7.7530 
  76   1.0000      -0.283436        -7.7127 
  77   1.0000      -0.282272        -7.6810 
  78   1.0000      -0.280037        -7.6202 
  79   1.0000      -0.276072        -7.5123 
  80   1.0000      -0.275271        -7.4905 
  81   1.0000      -0.273559        -7.4439 
  82   1.0000      -0.270085        -7.3494 
  83   1.0000      -0.269050        -7.3212 
  84   1.0000      -0.266015        -7.2386 
  85   1.0000      -0.265492        -7.2244 
  86   1.0000      -0.261899        -7.1266 
  87   1.0000      -0.260771        -7.0959 
  88   1.0000      -0.258171        -7.0252 
  89   1.0000      -0.255790        -6.9604 
  90   1.0000      -0.253171        -6.8891 
  91   1.0000      -0.252900        -6.8817 
  92   1.0000      -0.251324        -6.8389 
  93   1.0000      -0.248181        -6.7533 
  94   1.0000      -0.245370        -6.6769 
  95   1.0000      -0.243591        -6.6285 
  96   1.0000      -0.243171        -6.6170 
  97   1.0000      -0.242097        -6.5878 
  98   1.0000      -0.241415        -6.5692 
  99   1.0000      -0.239703        -6.5227 
 100   1.0000      -0.235315        -6.4032 
 101   1.0000      -0.230225        -6.2647 
 102   1.0000      -0.229091        -6.2339 
 103   1.0000      -0.205361        -5.5882 
 104   1.0000      -0.191777        -5.2185 
 105   0.0000      -0.176898        -4.8136 
 106   0.0000      -0.170997        -4.6531 
 107   0.0000      -0.128633        -3.5003 
 108   0.0000      -0.118779        -3.2321 
 109   0.0000      -0.110461        -3.0058 
 110   0.0000      -0.107582        -2.9274 
 111   0.0000      -0.103390        -2.8134 
 112   0.0000      -0.102711        -2.7949 
 113   0.0000      -0.095307        -2.5934 
 114   0.0000      -0.093625        -2.5477 
 115   0.0000      -0.060215        -1.6385 
 116   0.0000      -0.053635        -1.4595 
 117   0.0000      -0.046392        -1.2624 
 118   0.0000      -0.045160        -1.2289 
 119   0.0000      -0.044096        -1.1999 
 120   0.0000      -0.042544        -1.1577 
 121   0.0000      -0.020486        -0.5575 
 122   0.0000      -0.014107        -0.3839 
 123   0.0000       0.006919         0.1883 
 124   0.0000       0.016338         0.4446 
 125   0.0000       0.018940         0.5154 
 126   0.0000       0.027766         0.7556 
 127   0.0000       0.031006         0.8437 
 128   0.0000       0.040547         1.1033 
 129   0.0000       0.045980         1.2512 
 130   0.0000       0.051629         1.4049 
 131   0.0000       0.052829         1.4375 
 132   0.0000       0.057970         1.5774 
 133   0.0000       0.064292         1.7495 
 134   0.0000       0.064865         1.7651 
 135   0.0000       0.075506         2.0546 
 136   0.0000       0.075520         2.0550 
 137   0.0000       0.079403         2.1607 
 138   0.0000       0.081765         2.2249 
 139   0.0000       0.089898         2.4462 
 140   0.0000       0.095776         2.6062 
 141   0.0000       0.096883         2.6363 
 142   0.0000       0.120873         3.2891 
 143   0.0000       0.121640         3.3100 
 144   0.0000       0.132814         3.6141 
 145   0.0000       0.137297         3.7361 
 146   0.0000       0.140122         3.8129 
 147   0.0000       0.143133         3.8948 
 148   0.0000       0.145244         3.9523 
 149   0.0000       0.148223         4.0334 
 150   0.0000       0.149770         4.0754 
 151   0.0000       0.152781         4.1574 
 152   0.0000       0.167918         4.5693 
 153   0.0000       0.194436         5.2909 
 154   0.0000       0.210514         5.7284 
 155   0.0000       0.220537         6.0011 
 156   0.0000       0.224294         6.1033 
 157   0.0000       0.226854         6.1730 
 158   0.0000       0.235502         6.4083 
 159   0.0000       0.249701         6.7947 
 160   0.0000       0.250129         6.8064 
 161   0.0000       0.255172         6.9436 
 162   0.0000       0.261156         7.1064 
 163   0.0000       0.261717         7.1217 
 164   0.0000       0.268288         7.3005 
 165   0.0000       0.275800         7.5049 
 166   0.0000       0.279668         7.6102 
 167   0.0000       0.289473         7.8770 
 168   0.0000       0.293765         7.9938 
 169   0.0000       0.294475         8.0131 
 170   0.0000       0.297779         8.1030 
 171   0.0000       0.297928         8.1070 
 172   0.0000       0.303030         8.2459 
 173   0.0000       0.312137         8.4937 
 174   0.0000       0.312889         8.5141 
 175   0.0000       0.323323         8.7981 
 176   0.0000       0.331557         9.0221 
 177   0.0000       0.332054         9.0357 
 178   0.0000       0.340691         9.2707 
 179   0.0000       0.346011         9.4154 
 180   0.0000       0.347238         9.4488 
 181   0.0000       0.357132         9.7181 
 182   0.0000       0.368094        10.0163 
 183   0.0000       0.372140        10.1265 
 184   0.0000       0.374848        10.2001 
 185   0.0000       0.375576        10.2200 
 186   0.0000       0.380672        10.3586 
 187   0.0000       0.380919        10.3653 
 188   0.0000       0.389708        10.6045 
 189   0.0000       0.408177        11.1071 
 190   0.0000       0.409635        11.1467 
 191   0.0000       0.411556        11.1990 
 192   0.0000       0.416960        11.3461 
 193   0.0000       0.426599        11.6083 
 194   0.0000       0.429428        11.6853 
 195   0.0000       0.435637        11.8543 
 196   0.0000       0.439531        11.9602 
 197   0.0000       0.440267        11.9803 
 198   0.0000       0.449948        12.2437 
 199   0.0000       0.456747        12.4287 
 200   0.0000       0.462954        12.5976 
 201   0.0000       0.480687        13.0801 
 202   0.0000       0.486506        13.2385 
 203   0.0000       0.486802        13.2466 
 204   0.0000       0.494383        13.4529 
 205   0.0000       0.495102        13.4724 
 206   0.0000       0.507943        13.8218 
 207   0.0000       0.508415        13.8347 
 208   0.0000       0.511928        13.9303 
 209   0.0000       0.519535        14.1373 
 210   0.0000       0.522098        14.2070 
 211   0.0000       0.530342        14.4313 
 212   0.0000       0.537259        14.6196 
 213   0.0000       0.550376        14.9765 
 214   0.0000       0.555264        15.1095 
 215   0.0000       0.557282        15.1644 
 216   0.0000       0.568593        15.4722 
 217   0.0000       0.574376        15.6296 
 218   0.0000       0.579082        15.7576 
 219   0.0000       0.622671        16.9438 
 220   0.0000       0.641409        17.4536 
 221   0.0000       0.659436        17.9442 
 222   0.0000       0.681756        18.5515 
 223   0.0000       0.692000        18.8303 
 224   0.0000       0.722961        19.6728 
 225   0.0000       0.728659        19.8278 
 226   0.0000       0.736074        20.0296 
 227   0.0000       0.740393        20.1471 
 228   0.0000       0.759127        20.6569 
 229   0.0000       0.770151        20.9569 
 230   0.0000       0.785017        21.3614 
 231   0.0000       0.808497        22.0003 
 232   0.0000       0.821342        22.3498 
 233   0.0000       0.839095        22.8329 
 234   0.0000       0.839487        22.8436 
 235   0.0000       0.845156        22.9979 
 236   0.0000       0.866682        23.5836 
 237   0.0000       0.877873        23.8881 
 238   0.0000       0.878748        23.9120 
 239   0.0000       0.892339        24.2818 
 240   0.0000       0.911412        24.8008 
 241   0.0000       0.914996        24.8983 
 242   0.0000       0.939245        25.5582 
 243   0.0000       0.952827        25.9277 
 244   0.0000       0.964689        26.2505 
 245   0.0000       1.020761        27.7763 
 246   0.0000       1.106061        30.0975 
 247   0.0000       1.120551        30.4918 
 248   0.0000       1.150406        31.3041 
 249   0.0000       1.227741        33.4085 
 250   0.0000       1.239595        33.7311 
 251   0.0000       1.268360        34.5138 
 252   0.0000       1.273038        34.6411 
 253   0.0000       1.273351        34.6497 
 254   0.0000       1.275671        34.7128 
 255   0.0000       1.287254        35.0280 
 256   0.0000       1.300885        35.3989 
 257   0.0000       1.309625        35.6367 
 258   0.0000       1.316712        35.8296 
 259   0.0000       1.331566        36.2338 
 260   0.0000       1.344414        36.5834 
 261   0.0000       1.357381        36.9362 
 262   0.0000       1.363996        37.1162 
 263   0.0000       1.365049        37.1449 
 264   0.0000       1.374600        37.4048 
 265   0.0000       1.385609        37.7043 
 266   0.0000       1.392674        37.8966 
 267   0.0000       1.394346        37.9421 
 268   0.0000       1.404222        38.2108 
 269   0.0000       1.411451        38.4075 
 270   0.0000       1.416246        38.5380 
 271   0.0000       1.418638        38.6031 
 272   0.0000       1.424783        38.7703 
 273   0.0000       1.428326        38.8667 
 274   0.0000       1.433128        38.9974 
 275   0.0000       1.436681        39.0941 
 276   0.0000       1.440241        39.1909 
 277   0.0000       1.442557        39.2540 
 278   0.0000       1.452339        39.5202 
 279   0.0000       1.455157        39.5968 
 280   0.0000       1.462421        39.7945 
 281   0.0000       1.462484        39.7962 
 282   0.0000       1.468875        39.9701 
 283   0.0000       1.472265        40.0624 
 284   0.0000       1.473051        40.0838 
 285   0.0000       1.473482        40.0955 
 286   0.0000       1.478670        40.2367 
 287   0.0000       1.481709        40.3194 
 288   0.0000       1.483024        40.3551 
 289   0.0000       1.486688        40.4548 
 290   0.0000       1.488687        40.5092 
 291   0.0000       1.489064        40.5195 
 292   0.0000       1.492355        40.6091 
 293   0.0000       1.492523        40.6136 
 294   0.0000       1.493824        40.6490 
 295   0.0000       1.494816        40.6760 
 296   0.0000       1.496482        40.7213 
 297   0.0000       1.498508        40.7765 
 298   0.0000       1.499279        40.7975 
 299   0.0000       1.502163        40.8759 
 300   0.0000       1.503396        40.9095 
 301   0.0000       1.508464        41.0474 
 302   0.0000       1.511113        41.1195 
 303   0.0000       1.514397        41.2088 
 304   0.0000       1.516860        41.2759 
 305   0.0000       1.517642        41.2971 
 306   0.0000       1.519766        41.3549 
 307   0.0000       1.521681        41.4071 
 308   0.0000       1.526909        41.5493 
 309   0.0000       1.529422        41.6177 
 310   0.0000       1.532024        41.6885 
 311   0.0000       1.536390        41.8073 
 312   0.0000       1.536822        41.8191 
 313   0.0000       1.539948        41.9041 
 314   0.0000       1.540220        41.9115 
 315   0.0000       1.541882        41.9567 
 316   0.0000       1.542484        41.9731 
 317   0.0000       1.549890        42.1746 
 318   0.0000       1.550733        42.1976 
 319   0.0000       1.555017        42.3142 
 320   0.0000       1.555447        42.3259 
 321   0.0000       1.556609        42.3575 
 322   0.0000       1.557421        42.3796 
 323   0.0000       1.560075        42.4518 
 324   0.0000       1.562914        42.5291 
 325   0.0000       1.566191        42.6182 
 326   0.0000       1.569000        42.6947 
 327   0.0000       1.571685        42.7677 
 328   0.0000       1.573335        42.8126 
 329   0.0000       1.575307        42.8663 
 330   0.0000       1.577847        42.9354 
 331   0.0000       1.582691        43.0672 
 332   0.0000       1.584069        43.1047 
 333   0.0000       1.588405        43.2227 
 334   0.0000       1.592847        43.3436 
 335   0.0000       1.594732        43.3949 
 336   0.0000       1.600209        43.5439 
 337   0.0000       1.600361        43.5480 
 338   0.0000       1.602739        43.6127 
 339   0.0000       1.604642        43.6645 
 340   0.0000       1.605207        43.6799 
 341   0.0000       1.612136        43.8685 
 342   0.0000       1.613601        43.9083 
 343   0.0000       1.618112        44.0311 
 344   0.0000       1.632248        44.4157 
 345   0.0000       1.638625        44.5893 
 346   0.0000       1.641646        44.6715 
 347   0.0000       1.653671        44.9987 
 348   0.0000       1.654622        45.0245 
 349   0.0000       1.658714        45.1359 
 350   0.0000       1.662151        45.2294 
 351   0.0000       1.676058        45.6079 
 352   0.0000       1.680347        45.7246 
 353   0.0000       1.683668        45.8149 
 354   0.0000       1.713238        46.6196 
 355   0.0000       1.721101        46.8335 
 356   0.0000       1.732985        47.1569 
 357   0.0000       1.751590        47.6632 
 358   0.0000       1.752541        47.6891 
 359   0.0000       1.769017        48.1374 
 360   0.0000       1.784167        48.5497 
 361   0.0000       1.793175        48.7948 
 362   0.0000       1.830092        49.7993 
 363   0.0000       1.830153        49.8010 
 364   0.0000       1.843416        50.1619 
 365   0.0000       1.888405        51.3861 
 366   0.0000       1.904654        51.8283 
 367   0.0000       1.970910        53.6312 
 368   0.0000       1.971878        53.6575 
 369   0.0000       1.978928        53.8494 
 370   0.0000       2.059069        56.0301 
 371   0.0000       2.120072        57.6901 
 372   0.0000       2.136155        58.1277 
 373   0.0000       2.220442        60.4213 
 374   0.0000       2.246142        61.1206 
 375   0.0000       2.254917        61.3594 
 376   0.0000       2.308183        62.8089 
 377   0.0000       2.325024        63.2671 
 378   0.0000       2.344601        63.7998 
 379   0.0000       2.374205        64.6054 
 380   0.0000       2.395324        65.1801 
 381   0.0000       2.440905        66.4204 
 382   0.0000       2.490746        67.7766 
 383   0.0000       2.496265        67.9268 
 384   0.0000       2.584761        70.3349 
 385   0.0000       2.660825        72.4047 
 386   0.0000       2.778761        75.6139 
 387   0.0000       2.918675        79.4212 
 388   0.0000       2.942527        80.0702 
 389   0.0000       2.950554        80.2887 
 390   0.0000       2.963356        80.6370 
 391   0.0000       2.993716        81.4632 
 392   0.0000       2.995047        81.4994 
 393   0.0000       3.035625        82.6036 
 394   0.0000       3.051594        83.0381 
 395   0.0000      23.404641       636.8727 
 396   0.0000      23.588458       641.8746 
 397   0.0000      24.031754       653.9373 
 398   0.0000      24.138980       656.8550 
 399   0.0000      24.187427       658.1733 
 400   0.0000      24.634801       670.3470 
 401   0.0000      25.024233       680.9440 
 402   0.0000      25.068652       682.1527 
 403   0.0000      25.349329       689.7903 
 404   0.0000      25.456911       692.7178 
 405   0.0000      25.698968       699.3045 
 406   0.0000      25.759742       700.9582 
 407   0.0000      25.774252       701.3531 
 408   0.0000      26.020657       708.0581 
 409   0.0000      26.093618       710.0435 
 410   0.0000      26.138016       711.2516 
 411   0.0000      26.360558       717.3072 
 412   0.0000      26.498998       721.0744 
 413   0.0000      26.641876       724.9623 
 414   0.0000      26.728843       727.3288 
[...]
  63( 2) :    -0.321636 a.u.    -8.752 eV
  64( 2) :    -0.316632 a.u.    -8.616 eV
  65( 2) :    -0.316266 a.u.    -8.606 eV
  66( 2) :    -0.313066 a.u.    -8.519 eV
  67( 2) :    -0.311654 a.u.    -8.481 eV
  68( 2) :    -0.306675 a.u.    -8.345 eV
  69( 2) :    -0.303204 a.u.    -8.251 eV
  70( 2) :    -0.301426 a.u.    -8.202 eV
  71( 2) :    -0.297512 a.u.    -8.096 eV
  72( 2) :    -0.294695 a.u.    -8.019 eV
  73( 2) :    -0.292735 a.u.    -7.966 eV
  74( 2) :    -0.289750 a.u.    -7.885 eV
  75( 2) :    -0.289361 a.u.    -7.874 eV
  76( 2) :    -0.284566 a.u.    -7.743 eV
  77( 2) :    -0.284454 a.u.    -7.740 eV
  78( 2) :    -0.278068 a.u.    -7.567 eV
  79( 2) :    -0.275861 a.u.    -7.507 eV
  80( 2) :    -0.274177 a.u.    -7.461 eV
  81( 2) :    -0.273266 a.u.    -7.436 eV
  82( 2) :    -0.272042 a.u.    -7.403 eV
  83( 2) :    -0.271328 a.u.    -7.383 eV
  84( 2) :    -0.270072 a.u.    -7.349 eV
  85( 2) :    -0.265858 a.u.    -7.234 eV
  86( 2) :    -0.264947 a.u.    -7.210 eV
  87( 2) :    -0.260554 a.u.    -7.090 eV
  88( 2) :    -0.260023 a.u.    -7.076 eV
  89( 2) :    -0.257729 a.u.    -7.013 eV
  90( 2) :    -0.254161 a.u.    -6.916 eV
  91( 2) :    -0.251427 a.u.    -6.842 eV
  92( 2) :    -0.249457 a.u.    -6.788 eV
  93( 2) :    -0.248892 a.u.    -6.773 eV
  94( 2) :    -0.248749 a.u.    -6.769 eV
  95( 2) :    -0.247982 a.u.    -6.748 eV
  96( 2) :    -0.245757 a.u.    -6.687 eV
  97( 2) :    -0.245067 a.u.    -6.669 eV
  98( 2) :    -0.242572 a.u.    -6.601 eV
  99( 2) :    -0.240750 a.u.    -6.551 eV
 100( 2) :    -0.233773 a.u.    -6.361 eV
 101( 2) :    -0.227293 a.u.    -6.185 eV
 102( 2) :    -0.225389 a.u.    -6.133 eV
 103( 2) :    -0.215971 a.u.    -5.877 eV
 104( 2) :    -0.188741 a.u.    -5.136 eV
 105( 1) :    -0.153044 a.u.    -4.165 eV alpha=   -5.580 beta=   -2.749
 106( 1) :    -0.151533 a.u.    -4.123 eV alpha=   -5.550 beta=   -2.697
 107( 1) :    -0.145746 a.u.    -3.966 eV alpha=   -5.415 beta=   -2.517
 108( 1) :    -0.136476 a.u.    -3.714 eV alpha=   -5.299 beta=   -2.128
 109( 0) :    -0.166756 a.u.    -4.538 eV
 110( 0) :    -0.144397 a.u.    -3.929 eV
 111( 0) :    -0.142054 a.u.    -3.865 eV
 112( 0) :    -0.136288 a.u.    -3.709 eV
 113( 0) :    -0.112827 a.u.    -3.070 eV
 114( 0) :    -0.104029 a.u.    -2.831 eV
 115( 0) :    -0.082778 a.u.    -2.253 eV
 116( 0) :    -0.061703 a.u.    -1.679 eV
 117( 0) :    -0.059108 a.u.    -1.608 eV
 118( 0) :    -0.042378 a.u.    -1.153 eV
 119( 0) :    -0.038077 a.u.    -1.036 eV
 120( 0) :    -0.031960 a.u.    -0.870 eV
 121( 0) :    -0.030617 a.u.    -0.833 eV
 122( 0) :    -0.010338 a.u.    -0.281 eV
 123( 0) :    -0.008898 a.u.    -0.242 eV
 124( 0) :    -0.001687 a.u.    -0.046 eV
 125( 0) :     0.014787 a.u.     0.402 eV
 126( 0) :     0.020227 a.u.     0.550 eV
 127( 0) :     0.033189 a.u.     0.903 eV
 128( 0) :     0.047121 a.u.     1.282 eV
 129( 0) :     0.048941 a.u.     1.332 eV
 130( 0) :     0.049096 a.u.     1.336 eV
 131( 0) :     0.054140 a.u.     1.473 eV
 132( 0) :     0.057067 a.u.     1.553 eV
 133( 0) :     0.065097 a.u.     1.771 eV
 134( 0) :     0.067027 a.u.     1.824 eV
 135( 0) :     0.073049 a.u.     1.988 eV
 136( 0) :     0.074549 a.u.     2.029 eV
 137( 0) :     0.080024 a.u.     2.178 eV
 138( 0) :     0.083817 a.u.     2.281 eV
 139( 0) :     0.091432 a.u.     2.488 eV
 140( 0) :     0.096059 a.u.     2.614 eV
 141( 0) :     0.100485 a.u.     2.734 eV
 142( 0) :     0.118046 a.u.     3.212 eV
 143( 0) :     0.120594 a.u.     3.282 eV
 144( 0) :     0.131627 a.u.     3.582 eV
 145( 0) :     0.134664 a.u.     3.664 eV
 146( 0) :     0.136231 a.u.     3.707 eV
 147( 0) :     0.141180 a.u.     3.842 eV
 148( 0) :     0.147466 a.u.     4.013 eV
 149( 0) :     0.148823 a.u.     4.050 eV
 150( 0) :     0.159586 a.u.     4.343 eV
 151( 0) :     0.166584 a.u.     4.533 eV
 152( 0) :     0.167977 a.u.     4.571 eV
 153( 0) :     0.180184 a.u.     4.903 eV
 154( 0) :     0.201745 a.u.     5.490 eV
 155( 0) :     0.211842 a.u.     5.765 eV
 156( 0) :     0.221468 a.u.     6.026 eV
 157( 0) :     0.234474 a.u.     6.380 eV
 158( 0) :     0.234904 a.u.     6.392 eV
 159( 0) :     0.237407 a.u.     6.460 eV
 160( 0) :     0.248437 a.u.     6.760 eV
 161( 0) :     0.251346 a.u.     6.839 eV
 162( 0) :     0.252967 a.u.     6.884 eV
 163( 0) :     0.256439 a.u.     6.978 eV
 164( 0) :     0.267307 a.u.     7.274 eV
 165( 0) :     0.267625 a.u.     7.282 eV
 166( 0) :     0.281879 a.u.     7.670 eV
 167( 0) :     0.286025 a.u.     7.783 eV
 168( 0) :     0.292002 a.u.     7.946 eV
 169( 0) :     0.295403 a.u.     8.038 eV
 170( 0) :     0.295579 a.u.     8.043 eV
 171( 0) :     0.301785 a.u.     8.212 eV
 172( 0) :     0.307745 a.u.     8.374 eV
 173( 0) :     0.308354 a.u.     8.391 eV
 174( 0) :     0.315363 a.u.     8.581 eV
 175( 0) :     0.318094 a.u.     8.656 eV
 176( 0) :     0.326469 a.u.     8.884 eV
 177( 0) :     0.332874 a.u.     9.058 eV
 178( 0) :     0.333761 a.u.     9.082 eV
 179( 0) :     0.337399 a.u.     9.181 eV
 180( 0) :     0.343421 a.u.     9.345 eV
 181( 0) :     0.346901 a.u.     9.440 eV
 182( 0) :     0.355158 a.u.     9.664 eV
 183( 0) :     0.365804 a.u.     9.954 eV
 184( 0) :     0.369571 a.u.    10.057 eV
 185( 0) :     0.378322 a.u.    10.295 eV
 186( 0) :     0.380762 a.u.    10.361 eV
 187( 0) :     0.389536 a.u.    10.600 eV
 188( 0) :     0.391059 a.u.    10.641 eV
 189( 0) :     0.395836 a.u.    10.771 eV
 190( 0) :     0.401203 a.u.    10.917 eV
 191( 0) :     0.408259 a.u.    11.109 eV
 192( 0) :     0.409635 a.u.    11.147 eV
 193( 0) :     0.412596 a.u.    11.227 eV
 194( 0) :     0.419089 a.u.    11.404 eV
 195( 0) :     0.422420 a.u.    11.495 eV
 196( 0) :     0.440405 a.u.    11.984 eV
 197( 0) :     0.444338 a.u.    12.091 eV
 198( 0) :     0.449856 a.u.    12.241 eV
 199( 0) :     0.457473 a.u.    12.448 eV
 200( 0) :     0.460895 a.u.    12.542 eV
 201( 0) :     0.465590 a.u.    12.669 eV
 202( 0) :     0.466512 a.u.    12.694 eV
 203( 0) :     0.471030 a.u.    12.817 eV
 204( 0) :     0.477024 a.u.    12.980 eV
 205( 0) :     0.485623 a.u.    13.214 eV
 206( 0) :     0.491290 a.u.    13.369 eV
 207( 0) :     0.497096 a.u.    13.527 eV
 208( 0) :     0.514202 a.u.    13.992 eV
 209( 0) :     0.514639 a.u.    14.004 eV
 210( 0) :     0.519274 a.u.    14.130 eV
 211( 0) :     0.520030 a.u.    14.151 eV
 212( 0) :     0.531155 a.u.    14.453 eV
 213( 0) :     0.540766 a.u.    14.715 eV
 214( 0) :     0.541528 a.u.    14.736 eV
 215( 0) :     0.552719 a.u.    15.040 eV
 216( 0) :     0.564412 a.u.    15.358 eV
 217( 0) :     0.566232 a.u.    15.408 eV
 218( 0) :     0.589007 a.u.    16.028 eV
 219( 0) :     0.597654 a.u.    16.263 eV
 220( 0) :     0.638988 a.u.    17.388 eV
 221( 0) :     0.646403 a.u.    17.590 eV
 222( 0) :     0.646521 a.u.    17.593 eV
 223( 0) :     0.664151 a.u.    18.072 eV
 224( 0) :     0.684350 a.u.    18.622 eV
 225( 0) :     0.704204 a.u.    19.162 eV
 226( 0) :     0.717493 a.u.    19.524 eV
 227( 0) :     0.740219 a.u.    20.142 eV
 228( 0) :     0.745117 a.u.    20.276 eV
 229( 0) :     0.747025 a.u.    20.328 eV
 230( 0) :     0.759856 a.u.    20.677 eV
 231( 0) :     0.768782 a.u.    20.920 eV
 232( 0) :     0.772030 a.u.    21.008 eV
 233( 0) :     0.784337 a.u.    21.343 eV
 234( 0) :     0.808942 a.u.    22.012 eV
 235( 0) :     0.814587 a.u.    22.166 eV
 236( 0) :     0.823268 a.u.    22.402 eV
 237( 0) :     0.842848 a.u.    22.935 eV
 238( 0) :     0.846479 a.u.    23.034 eV
 239( 0) :     0.853411 a.u.    23.223 eV
 240( 0) :     0.875820 a.u.    23.832 eV
 241( 0) :     0.893568 a.u.    24.315 eV
 242( 0) :     0.894758 a.u.    24.348 eV
 243( 0) :     0.896427 a.u.    24.393 eV
 244( 0) :     0.929756 a.u.    25.300 eV
 245( 0) :     0.951193 a.u.    25.883 eV
 246( 0) :     0.981204 a.u.    26.700 eV
 247( 0) :     1.004914 a.u.    27.345 eV
 248( 0) :     1.010598 a.u.    27.500 eV
 249( 0) :     1.218419 a.u.    33.155 eV
 250( 0) :     1.227372 a.u.    33.398 eV
 251( 0) :     1.247381 a.u.    33.943 eV
 252( 0) :     1.259361 a.u.    34.269 eV
 253( 0) :     1.272959 a.u.    34.639 eV
 254( 0) :     1.279995 a.u.    34.830 eV
 255( 0) :     1.288817 a.u.    35.070 eV
 256( 0) :     1.308757 a.u.    35.613 eV
 257( 0) :     1.310433 a.u.    35.659 eV
 258( 0) :     1.324841 a.u.    36.051 eV
 259( 0) :     1.326977 a.u.    36.109 eV
 260( 0) :     1.341132 a.u.    36.494 eV
 261( 0) :     1.343063 a.u.    36.547 eV
 262( 0) :     1.345627 a.u.    36.616 eV
 263( 0) :     1.354242 a.u.    36.851 eV
 264( 0) :     1.370238 a.u.    37.286 eV
 265( 0) :     1.375943 a.u.    37.441 eV
 266( 0) :     1.381336 a.u.    37.588 eV
 267( 0) :     1.389569 a.u.    37.812 eV
 268( 0) :     1.397972 a.u.    38.041 eV
 269( 0) :     1.404062 a.u.    38.206 eV
 270( 0) :     1.406865 a.u.    38.283 eV
 271( 0) :     1.413719 a.u.    38.469 eV
 272( 0) :     1.419317 a.u.    38.622 eV
 273( 0) :     1.419985 a.u.    38.640 eV
 274( 0) :     1.426079 a.u.    38.806 eV
 275( 0) :     1.432954 a.u.    38.993 eV
 276( 0) :     1.438020 a.u.    39.131 eV
 277( 0) :     1.442306 a.u.    39.247 eV
 278( 0) :     1.449449 a.u.    39.442 eV
 279( 0) :     1.449716 a.u.    39.449 eV
 280( 0) :     1.450360 a.u.    39.466 eV
 281( 0) :     1.457493 a.u.    39.660 eV
 282( 0) :     1.460658 a.u.    39.747 eV
 283( 0) :     1.462936 a.u.    39.809 eV
 284( 0) :     1.468984 a.u.    39.973 eV
 285( 0) :     1.469424 a.u.    39.985 eV
 286( 0) :     1.471540 a.u.    40.043 eV
 287( 0) :     1.479196 a.u.    40.251 eV
 288( 0) :     1.480044 a.u.    40.274 eV
 289( 0) :     1.480111 a.u.    40.276 eV
 290( 0) :     1.482521 a.u.    40.341 eV
 291( 0) :     1.484375 a.u.    40.392 eV
 292( 0) :     1.487138 a.u.    40.467 eV
 293( 0) :     1.490670 a.u.    40.563 eV
 294( 0) :     1.492180 a.u.    40.604 eV
 295( 0) :     1.492437 a.u.    40.611 eV
 296( 0) :     1.495791 a.u.    40.703 eV
 297( 0) :     1.496564 a.u.    40.724 eV
 298( 0) :     1.499113 a.u.    40.793 eV
 299( 0) :     1.501792 a.u.    40.866 eV
 300( 0) :     1.503305 a.u.    40.907 eV
 301( 0) :     1.505683 a.u.    40.972 eV
 302( 0) :     1.506189 a.u.    40.985 eV
 303( 0) :     1.510325 a.u.    41.098 eV
 304( 0) :     1.512051 a.u.    41.145 eV
 305( 0) :     1.512591 a.u.    41.160 eV
 306( 0) :     1.515754 a.u.    41.246 eV
 307( 0) :     1.516879 a.u.    41.276 eV
 308( 0) :     1.521188 a.u.    41.394 eV
 309( 0) :     1.522285 a.u.    41.423 eV
 310( 0) :     1.525178 a.u.    41.502 eV
 311( 0) :     1.525474 a.u.    41.510 eV
 312( 0) :     1.529166 a.u.    41.611 eV
 313( 0) :     1.530434 a.u.    41.645 eV
 314( 0) :     1.532597 a.u.    41.704 eV
 315( 0) :     1.532817 a.u.    41.710 eV
 316( 0) :     1.537845 a.u.    41.847 eV
 317( 0) :     1.539572 a.u.    41.894 eV
 318( 0) :     1.539901 a.u.    41.903 eV
 319( 0) :     1.544277 a.u.    42.022 eV
 320( 0) :     1.546186 a.u.    42.074 eV
 321( 0) :     1.549007 a.u.    42.151 eV
 322( 0) :     1.549205 a.u.    42.156 eV
 323( 0) :     1.550601 a.u.    42.194 eV
 324( 0) :     1.555276 a.u.    42.321 eV
 325( 0) :     1.555595 a.u.    42.330 eV
 326( 0) :     1.557133 a.u.    42.372 eV
 327( 0) :     1.558391 a.u.    42.406 eV
 328( 0) :     1.563917 a.u.    42.556 eV
 329( 0) :     1.564527 a.u.    42.573 eV
 330( 0) :     1.566500 a.u.    42.627 eV
 331( 0) :     1.566647 a.u.    42.631 eV
 332( 0) :     1.568495 a.u.    42.681 eV
 333( 0) :     1.574310 a.u.    42.839 eV
 334( 0) :     1.574845 a.u.    42.854 eV
 335( 0) :     1.578382 a.u.    42.950 eV
 336( 0) :     1.582071 a.u.    43.050 eV
 337( 0) :     1.582369 a.u.    43.058 eV
 338( 0) :     1.589983 a.u.    43.266 eV
 339( 0) :     1.593971 a.u.    43.374 eV
 340( 0) :     1.595195 a.u.    43.407 eV
 341( 0) :     1.598873 a.u.    43.508 eV
 342( 0) :     1.602547 a.u.    43.608 eV
 343( 0) :     1.607674 a.u.    43.747 eV
 344( 0) :     1.608193 a.u.    43.761 eV
 345( 0) :     1.612806 a.u.    43.887 eV
 346( 0) :     1.618863 a.u.    44.051 eV
 347( 0) :     1.620050 a.u.    44.084 eV
 348( 0) :     1.624522 a.u.    44.205 eV
 349( 0) :     1.631433 a.u.    44.394 eV
 350( 0) :     1.639483 a.u.    44.613 eV
 351( 0) :     1.642468 a.u.    44.694 eV
 352( 0) :     1.648760 a.u.    44.865 eV
 353( 0) :     1.657844 a.u.    45.112 eV
 354( 0) :     1.674091 a.u.    45.554 eV
 355( 0) :     1.682454 a.u.    45.782 eV
 356( 0) :     1.717213 a.u.    46.728 eV
 357( 0) :     1.717662 a.u.    46.740 eV
 358( 0) :     1.764117 a.u.    48.004 eV
 359( 0) :     1.778098 a.u.    48.385 eV
 360( 0) :     1.786891 a.u.    48.624 eV
 361( 0) :     1.790363 a.u.    48.718 eV
 362( 0) :     1.807804 a.u.    49.193 eV
 363( 0) :     1.830312 a.u.    49.805 eV
 364( 0) :     1.849951 a.u.    50.340 eV
 365( 0) :     1.870214 a.u.    50.891 eV
 366( 0) :     1.880423 a.u.    51.169 eV
 367( 0) :     1.900238 a.u.    51.708 eV
 368( 0) :     1.912912 a.u.    52.053 eV
 369( 0) :     1.940026 a.u.    52.791 eV
 370( 0) :     1.944514 a.u.    52.913 eV
 371( 0) :     1.957009 a.u.    53.253 eV
 372( 0) :     2.110202 a.u.    57.422 eV
 373( 0) :     2.211693 a.u.    60.183 eV
 374( 0) :     2.270246 a.u.    61.777 eV
 375( 0) :     2.284014 a.u.    62.151 eV
 376( 0) :     2.289678 a.u.    62.305 eV
 377( 0) :     2.293273 a.u.    62.403 eV
 378( 0) :     2.352672 a.u.    64.019 eV
 379( 0) :     2.365383 a.u.    64.365 eV
 380( 0) :     2.442411 a.u.    66.461 eV
 381( 0) :     2.452453 a.u.    66.735 eV
 382( 0) :     2.469416 a.u.    67.196 eV
 383( 0) :     2.478795 a.u.    67.451 eV
 384( 0) :     2.488459 a.u.    67.714 eV
 385( 0) :     2.532741 a.u.    68.919 eV
 386( 0) :     2.561328 a.u.    69.697 eV
 387( 0) :     2.773889 a.u.    75.481 eV
 388( 0) :     2.831579 a.u.    77.051 eV
 389( 0) :     2.841119 a.u.    77.311 eV
 390( 0) :     2.843313 a.u.    77.370 eV
 391( 0) :     2.862772 a.u.    77.900 eV
 392( 0) :     2.872812 a.u.    78.173 eV
 393( 0) :     2.873970 a.u.    78.205 eV
 394( 0) :     2.892753 a.u.    78.716 eV
 395( 0) :    23.250632 a.u.   632.682 eV
 396( 0) :    23.511425 a.u.   639.778 eV
 397( 0) :    23.745181 a.u.   646.139 eV
 398( 0) :    23.996331 a.u.   652.973 eV
 399( 0) :    24.307700 a.u.   661.446 eV
 400( 0) :    24.378790 a.u.   663.381 eV
 401( 0) :    24.470768 a.u.   665.883 eV
 402( 0) :    24.534610 a.u.   667.621 eV
 403( 0) :    24.635615 a.u.   670.369 eV
 404( 0) :    25.004164 a.u.   680.398 eV
 405( 0) :    25.090765 a.u.   682.754 eV
 406( 0) :    25.197502 a.u.   685.659 eV
 407( 0) :    25.333096 a.u.   689.349 eV
 408( 0) :    25.420258 a.u.   691.720 eV
 409( 0) :    25.624312 a.u.   697.273 eV
 410( 0) :    25.955302 a.u.   706.280 eV
 411( 0) :    26.470656 a.u.   720.303 eV
 412( 0) :    26.509119 a.u.   721.350 eV
 413( 0) :    26.559184 a.u.   722.712 eV
 414( 0) :    26.580721 a.u.   723.298 eV
 415( 0) :    26.886666 a.u.   731.623 eV
 416( 0) :    27.012919 a.u.   735.059 eV
 417( 0) :    27.033626 a.u.   735.622 eV
 418( 0) :    27.218560 a.u.   740.655 eV
 419( 0) :    27.294668 a.u.   742.726 eV
 420( 0) :    27.503762 a.u.   748.415 eV
 421( 0) :    27.717521 a.u.   754.232 eV
 422( 0) :    27.781982 a.u.   755.986 eV
 423( 0) :    27.831544 a.u.   757.335 eV
 424( 0) :    28.216669 a.u.   767.815 eV
 425( 0) :    43.878465 a.u.  1193.994 eV
 426( 0) :    43.941919 a.u.  1195.720 eV
 427( 0) :    44.005385 a.u.  1197.447 eV
 428( 0) :    44.016098 a.u.  1197.739 eV
 429( 0) :    44.063511 a.u.  1199.029 eV
 430( 0) :    44.064602 a.u.  1199.059 eV
 431( 0) :    44.124027 a.u.  1200.676 eV
 432( 0) :    44.159198 a.u.  1201.633 eV
 433( 0) :    44.192076 a.u.  1202.528 eV
 434( 0) :    44.206777 a.u.  1202.928 eV
 435( 0) :   205.085778 a.u.  5580.668 eV
 436( 0) :   205.114864 a.u.  5581.459 eV
 437( 0) :   205.135174 a.u.  5582.012 eV
 438( 0) :   205.140223 a.u.  5582.149 eV
 439( 0) :   205.159922 a.u.  5582.685 eV
 440( 0) :   205.161538 a.u.  5582.729 eV
 441( 0) :   205.183574 a.u.  5583.329 eV
 442( 0) :   205.201478 a.u.  5583.816 eV
 443( 0) :   205.213460 a.u.  5584.142 eV
 444( 0) :   205.217066 a.u.  5584.240 eV
-------
TIMINGS
-------

Total SCF time: 0 days 0 hours 2 min 10 sec 

Total time                  ....     130.893 sec
Sum of individual times     ....     129.426 sec  ( 98.9%)

Fock matrix formation       ....     125.567 sec  ( 95.9%)
  Split-RI-J                ....      34.666 sec  ( 27.6% of F)
  XC integration            ....      75.530 sec  ( 60.2% of F)
    Basis function eval.    ....      15.332 sec  ( 20.3% of XC)
    Density eval.           ....      33.765 sec  ( 44.7% of XC)
    XC-Functional eval.     ....       2.731 sec  (  3.6% of XC)
    XC-Potential eval.      ....      20.964 sec  ( 27.8% of XC)
Diagonalization             ....       1.166 sec  (  0.9%)
Density matrix formation    ....       0.215 sec  (  0.2%)
Population analysis         ....       0.330 sec  (  0.3%)
Initial guess               ....       0.094 sec  (  0.1%)
Orbital Transformation      ....       0.048 sec  (  0.0%)
Orbital Orthonormalization  ....       0.077 sec  (  0.1%)
DIIS solution               ....       0.000 sec  (  0.0%)
Grid generation             ....       2.003 sec  (  1.5%)

Maximum memory used throughout the entire SCF-calculation: 357.2 MB

-------------------------   --------------------
FINAL SINGLE POINT ENERGY     -2402.498198916817
-------------------------   --------------------

                                *** OPTIMIZATION RUN DONE ***

                            ***************************************
                            *     ORCA property calculations      *
                            ***************************************

                                    ---------------------
                                    Active property flags
                                    ---------------------
   (+) Dipole Moment


------------------------------------------------------------------------------
                       ORCA ELECTRIC PROPERTIES CALCULATION
------------------------------------------------------------------------------

Dipole Moment Calculation                       ... on
Quadrupole Moment Calculation                   ... off
Polarizability Calculation                      ... off
GBWName                                         ... pbe.gbw
Electron density                                ... pbe.scfp
The origin for moment calculation is the CENTER OF MASS  = (15.237816, 11.193220 17.491113)

-------------
DIPOLE MOMENT
-------------
                                X             Y             Z
Electronic contribution:     -4.92277      -2.66922     -25.91277
Nuclear contribution   :      4.94295       2.51354      25.79589
                        -----------------------------------------
Total Dipole Moment    :      0.02018      -0.15569      -0.11687
                        -----------------------------------------
Magnitude (a.u.)       :      0.19572
Magnitude (Debye)      :      0.49747



--------------------
Rotational spectrum 
--------------------
 
Rotational constants in cm-1:     0.002208     0.001491     0.001173 
Rotational constants in MHz :    66.180446    44.700447    35.173789 

 Dipole components along the rotational axes: 
x,y,z [a.u.] :    -0.062712    -0.000167    -0.185396 
x,y,z [Debye]:    -0.159402    -0.000424    -0.471238 

 

Timings for individual modules:

Sum of individual times         ...    18935.806 sec (= 315.597 min)
GTO integral calculation        ...      465.319 sec (=   7.755 min)   2.5 %
SCF iterations                  ...    14998.885 sec (= 249.981 min)  79.2 %
SCF Gradient evaluation         ...     3453.733 sec (=  57.562 min)  18.2 %
Geometry relaxation             ...       17.870 sec (=   0.298 min)   0.1 %
                             ****ORCA TERMINATED NORMALLY****
TOTAL RUN TIME: 0 days 5 hours 16 minutes 4 seconds 376 msec
