
                                 *****************
                                 * O   R   C   A *
                                 *****************

                                            #,                                       
                                            ###                                      
                                            ####                                     
                                            #####                                    
                                            ######                                   
                                           ########,                                 
                                     ,,################,,,,,                         
                               ,,#################################,,                 
                          ,,##########################################,,             
                       ,#########################################, ''#####,          
                    ,#############################################,,   '####,        
                  ,##################################################,,,,####,       
                ,###########''''           ''''###############################       
              ,#####''   ,,,,##########,,,,          '''####'''          '####       
            ,##' ,,,,###########################,,,                        '##       
           ' ,,###''''                  '''############,,,                           
         ,,##''                                '''############,,,,        ,,,,,,###''
      ,#''                                            '''#######################'''  
     '                                                          ''''####''''         
             ,#######,   #######,   ,#######,      ##                                
            ,#'     '#,  ##    ##  ,#'     '#,    #''#        ######   ,####,        
            ##       ##  ##   ,#'  ##            #'  '#       #        #'  '#        
            ##       ##  #######   ##           ,######,      #####,   #    #        
            '#,     ,#'  ##    ##  '#,     ,#' ,#      #,         ##   #,  ,#        
             '#######'   ##     ##  '#######'  #'      '#     #####' # '####'        



                  #######################################################
                  #                        -***-                        #
                  #          Department of theory and spectroscopy      #
                  #    Directorship and core code : Frank Neese         #
                  #        Max Planck Institute fuer Kohlenforschung    #
                  #                Kaiser Wilhelm Platz 1               #
                  #                 D-45470 Muelheim/Ruhr               #
                  #                      Germany                        #
                  #                                                     #
                  #                  All rights reserved                #
                  #                        -***-                        #
                  #######################################################


                         Program Version 5.0.3 -  RELEASE  -


 With contributions from (in alphabetic order):
   Daniel Aravena         : Magnetic Suceptibility
   Michael Atanasov       : Ab Initio Ligand Field Theory (pilot matlab implementation)
   Alexander A. Auer      : GIAO ZORA, VPT2 properties, NMR spectrum
   Ute Becker             : Parallelization
   Giovanni Bistoni       : ED, misc. LED, open-shell LED, HFLD
   Martin Brehm           : Molecular dynamics
   Dmytro Bykov           : SCF Hessian
   Vijay G. Chilkuri      : MRCI spin determinant printing, contributions to CSF-ICE
   Dipayan Datta          : RHF DLPNO-CCSD density
   Achintya Kumar Dutta   : EOM-CC, STEOM-CC
   Dmitry Ganyushin       : Spin-Orbit,Spin-Spin,Magnetic field MRCI
   Miquel Garcia          : C-PCM and meta-GGA Hessian, CC/C-PCM, Gaussian charge scheme
   Yang Guo               : DLPNO-NEVPT2, F12-NEVPT2, CIM, IAO-localization
   Andreas Hansen         : Spin unrestricted coupled pair/coupled cluster methods
   Benjamin Helmich-Paris : MC-RPA, TRAH-SCF, COSX integrals
   Lee Huntington         : MR-EOM, pCC
   Robert Izsak           : Overlap fitted RIJCOSX, COSX-SCS-MP3, EOM
   Marcus Kettner         : VPT2
   Christian Kollmar      : KDIIS, OOCD, Brueckner-CCSD(T), CCSD density, CASPT2, CASPT2-K
   Simone Kossmann        : Meta GGA functionals, TD-DFT gradient, OOMP2, MP2 Hessian
   Martin Krupicka        : Initial AUTO-CI
   Lucas Lang             : DCDCAS
   Marvin Lechner         : AUTO-CI (C++ implementation), FIC-MRCC
   Dagmar Lenk            : GEPOL surface, SMD
   Dimitrios Liakos       : Extrapolation schemes; Compound Job, initial MDCI parallelization
   Dimitrios Manganas     : Further ROCIS development; embedding schemes
   Dimitrios Pantazis     : SARC Basis sets
   Anastasios Papadopoulos: AUTO-CI, single reference methods and gradients
   Taras Petrenko         : DFT Hessian,TD-DFT gradient, ASA, ECA, R-Raman, ABS, FL, XAS/XES, NRVS
   Peter Pinski           : DLPNO-MP2, DLPNO-MP2 Gradient
   Christoph Reimann      : Effective Core Potentials
   Marius Retegan         : Local ZFS, SOC
   Christoph Riplinger    : Optimizer, TS searches, QM/MM, DLPNO-CCSD(T), (RO)-DLPNO pert. Triples
   Tobias Risthaus        : Range-separated hybrids, TD-DFT gradient, RPA, STAB
   Michael Roemelt        : Original ROCIS implementation
   Masaaki Saitow         : Open-shell DLPNO-CCSD energy and density
   Barbara Sandhoefer     : DKH picture change effects
   Avijit Sen             : IP-ROCIS
   Kantharuban Sivalingam : CASSCF convergence, NEVPT2, FIC-MRCI
   Bernardo de Souza      : ESD, SOC TD-DFT
   Georgi Stoychev        : AutoAux, RI-MP2 NMR, DLPNO-MP2 response
   Willem Van den Heuvel  : Paramagnetic NMR
   Boris Wezisla          : Elementary symmetry handling
   Frank Wennmohs         : Technical directorship


 We gratefully acknowledge several colleagues who have allowed us to
 interface, adapt or use parts of their codes:
   Stefan Grimme, W. Hujo, H. Kruse, P. Pracht,  : VdW corrections, initial TS optimization,
                  C. Bannwarth, S. Ehlert          DFT functionals, gCP, sTDA/sTD-DF
   Ed Valeev, F. Pavosevic, A. Kumar             : LibInt (2-el integral package), F12 methods
   Garnet Chan, S. Sharma, J. Yang, R. Olivares  : DMRG
   Ulf Ekstrom                                   : XCFun DFT Library
   Mihaly Kallay                                 : mrcc  (arbitrary order and MRCC methods)
   Jiri Pittner, Ondrej Demel                    : Mk-CCSD
   Frank Weinhold                                : gennbo (NPA and NBO analysis)
   Christopher J. Cramer and Donald G. Truhlar   : smd solvation model
   Lars Goerigk                                  : TD-DFT with DH, B97 family of functionals
   V. Asgeirsson, H. Jonsson                     : NEB implementation
   FAccTs GmbH                                   : IRC, NEB, NEB-TS, DLPNO-Multilevel, CI-OPT
                                                   MM, QMMM, 2- and 3-layer-ONIOM, Crystal-QMMM,
                                                   LR-CPCM, SF, NACMEs, symmetry and pop. for TD-DFT,
                                                   nearIR, NL-DFT gradient (VV10), updates on ESD,
                                                   ML-optimized integration grids
   S Lehtola, MJT Oliveira, MAL Marques          : LibXC Library
   Liviu Ungur et al                             : ANISO software


 Your calculation uses the libint2 library for the computation of 2-el integrals
 For citations please refer to: http://libint.valeyev.net

 Your ORCA version has been built with support for libXC version: 5.1.0
 For citations please refer to: https://tddft.org/programs/libxc/

 This ORCA versions uses:
   CBLAS   interface :  Fast vector & matrix operations
   LAPACKE interface :  Fast linear algebra routines
   SCALAPACK package :  Parallel linear algebra routines
   Shared memory     :  Shared parallel matrices
   BLAS/LAPACK       :  OpenBLAS 0.3.15  USE64BITINT DYNAMIC_ARCH NO_AFFINITY Sandybridge SINGLE_THREADED
        Core in use  :  Sandybridge
   Copyright (c) 2011-2014, The OpenBLAS Project




***************************************
The coordinates will be read from file: pbe.xyz
***************************************


================================================================================

cite the ECPs for Au [Def2-ECP] as follows:
Ce-Yb(ecp-28): M. Dolg, H. Stoll, H.Preuss, J. Chem. Phys., 1989, 90, 1730-1734.
Y-Cd(ecp-28), Hf-Hg(ecp-46): D. Andrae,U. Haeussermann, M. Dolg, H. Stoll, H. Preuss, Theor. Chim. Acta, 1990, 77, 123-141.
In-Sb(ecp-28), Tl-Bi(ecp-46): B. Metz, H. Stoll, M. Dolg, J. Chem. Phys., 2000, 113, 2563-2569.
Te-Xe(ecp-28), Po-Rn(ecp-46): K. A. Peterson, D. Figgen, E. Goll, H. Stoll, M. Dolg, J. Chem. Phys., 2003, 119, 11113-11123.
Rb(ecp-28), Cs(ecp-46): T. Leininger, A. Nicklass, W. Kuechle, H. Stoll, M. Dolg, A. Bergner, Chem. Phys. Lett., 1996, 255, 274-280.
Sr(ecp-28), Ba(ecp-46): M. Kaupp, P. V. Schleyer, H. Stoll and H. Preuss, J. Chem. Phys., 1991, 94, 1360-1366.
La(ecp-46): M. Dolg, H. Stoll, A. Savin, H. Preuss, Theor. Chim. Acta, 1989, 75, 173-194.
Lu(ecp-28): X. Cao, M. Dolg, J. Chem. Phys., 2001, 115, 7348-7355.

ECP parameters for Au [Def2-ECP] have been obtained from:
TURBOMOLE (7.0.2)

----- Orbital basis set information -----
Your calculation utilizes the basis: def2-TZVP
   F. Weigend and R. Ahlrichs, Phys. Chem. Chem. Phys. 7, 3297 (2005).

----- AuxJ basis set information -----
Your calculation utilizes the auxiliary basis: def2/J
   F. Weigend, Phys. Chem. Chem. Phys. 8, 1057 (2006).

----- AuxC basis set information -----
Your calculation utilizes the auxiliary basis: def2-TZVP/C
  H-La, Hf-Rn : A. Hellweg, C. Hattig, S. Hofener and W. Klopper, Theor. Chem. Acc. 117, 587 (2007).
        Ce-Lu : J. Chmela and M. E. Harding, Mol. Phys. (2018).

================================================================================
                                        WARNINGS
                       Please study these warnings very carefully!
================================================================================


WARNING: your system is open-shell and RHF/RKS was chosen
  ===> : WILL SWITCH to UHF/UKS


WARNING: No MP2 level density has been requested!
         To caclulate MP2 level properties use
         %mp2 Density relaxed end
         or
         %mp2 Density unrelaxed end
         Otherwise for double-hybrid DFT only the energy is correct!

WARNING: The frozen-core approximation is turned on by default for 
         the MP2 part of double-hybrid DFT.

INFO   : the flag for use of the SHARK integral package has been found!



***************************************
The coordinates will be read from file: pbe.xyz
***************************************


================================================================================

cite the ECPs for Au [Def2-ECP] as follows:
Ce-Yb(ecp-28): M. Dolg, H. Stoll, H.Preuss, J. Chem. Phys., 1989, 90, 1730-1734.
Y-Cd(ecp-28), Hf-Hg(ecp-46): D. Andrae,U. Haeussermann, M. Dolg, H. Stoll, H. Preuss, Theor. Chim. Acta, 1990, 77, 123-141.
In-Sb(ecp-28), Tl-Bi(ecp-46): B. Metz, H. Stoll, M. Dolg, J. Chem. Phys., 2000, 113, 2563-2569.
Te-Xe(ecp-28), Po-Rn(ecp-46): K. A. Peterson, D. Figgen, E. Goll, H. Stoll, M. Dolg, J. Chem. Phys., 2003, 119, 11113-11123.
Rb(ecp-28), Cs(ecp-46): T. Leininger, A. Nicklass, W. Kuechle, H. Stoll, M. Dolg, A. Bergner, Chem. Phys. Lett., 1996, 255, 274-280.
Sr(ecp-28), Ba(ecp-46): M. Kaupp, P. V. Schleyer, H. Stoll and H. Preuss, J. Chem. Phys., 1991, 94, 1360-1366.
La(ecp-46): M. Dolg, H. Stoll, A. Savin, H. Preuss, Theor. Chim. Acta, 1989, 75, 173-194.
Lu(ecp-28): X. Cao, M. Dolg, J. Chem. Phys., 2001, 115, 7348-7355.

ECP parameters for Au [Def2-ECP] have been obtained from:
TURBOMOLE (7.0.2)

----- Orbital basis set information -----
Your calculation utilizes the basis: def2-TZVP
   F. Weigend and R. Ahlrichs, Phys. Chem. Chem. Phys. 7, 3297 (2005).

----- AuxJ basis set information -----
Your calculation utilizes the auxiliary basis: def2/J
   F. Weigend, Phys. Chem. Chem. Phys. 8, 1057 (2006).

----- AuxC basis set information -----
Your calculation utilizes the auxiliary basis: def2-TZVP/C
  H-La, Hf-Rn : A. Hellweg, C. Hattig, S. Hofener and W. Klopper, Theor. Chem. Acc. 117, 587 (2007).
        Ce-Lu : J. Chmela and M. E. Harding, Mol. Phys. (2018).

================================================================================
                                        WARNINGS
                       Please study these warnings very carefully!
================================================================================


WARNING: No MP2 level density has been requested!
         To caclulate MP2 level properties use
         %mp2 Density relaxed end
         or
         %mp2 Density unrelaxed end
         Otherwise for double-hybrid DFT only the energy is correct!

WARNING: The frozen-core approximation is turned on by default for 
         the MP2 part of double-hybrid DFT.

INFO   : the flag for use of the SHARK integral package has been found!

================================================================================
                                       INPUT FILE
================================================================================
NAME = b2plyp.inp
|  1> !RI-B2PLYP def2-TZVP def2-TZVP/C
|  2> !RIJCOSX VERYSLOWCONV
|  3> 
|  4> %scf
|  5>   AutoTRAHIter 200
|  6>   maxiter 400
|  7> end
|  8> 
|  9> 
| 10> %pal nprocs 6 end 
| 11> 
| 12> *xyzfile 0 6 pbe.xyz
| 13> 
| 14> $new_job
| 15> 
| 16> !RI-B2PLYP def2-TZVP def2-TZVP/C
| 17> !RIJCOSX VERYSLOWCONV
| 18> 
| 19> %scf
| 20>   AutoTRAHIter 200
| 21>   maxiter 400
| 22> end
| 23> 
| 24> 
| 25> %pal nprocs 6 end 
| 26> 
| 27> *xyzfile 0 4 pbe.xyz
| 28> 
| 29> 
| 30> 
| 31> 
| 32> 
| 33>                          ****END OF INPUT****
================================================================================


                 $$$$$$$$$$$$$$$$$$$$$$$$$$$$$$$$$$$$$$$$$$$$$$ 
                 $ THERE ARE  2 JOBS TO BE PROCESSED THIS RUN $
                 $$$$$$$$$$$$$$$$$$$$$$$$$$$$$$$$$$$$$$$$$$$$$$ 




                 $$$$$$$$$$$$$$$$  JOB NUMBER  1 $$$$$$$$$$$$$$


                       ****************************
                       * Single Point Calculation *
                       ****************************

---------------------------------
CARTESIAN COORDINATES (ANGSTROEM)
---------------------------------
  Au    11.119184   11.817586    8.075427
  Au     9.449470   10.321879    9.774380
  Au    11.648433    9.050670    8.316206
  Au    10.656337   10.086984    5.887123
  Au    10.378977    6.771975    8.829853
  Au     8.808373    8.410803    4.966861
  Au     8.447849   11.369077    7.314056
  Au     8.016954    8.073991    9.993337
  Au     8.158925    5.301611    9.429337
  Au     6.913567    6.948084    7.712689
  Au     6.388810    7.148901    5.087356
  Au     6.660036    9.495621    6.647109
  Mn     9.056088    8.742909    7.606170

----------------------------
CARTESIAN COORDINATES (A.U.)
----------------------------
  NO LB      ZA    FRAG     MASS         X           Y           Z
   0 Au   19.0000*   0   196.966   21.012213   22.332002   15.260346
   1 Au   19.0000*   0   196.966   17.856911   19.505524   18.470901
   2 Au   19.0000*   0   196.966   22.012348   17.103288   15.715352
   3 Au   19.0000*   0   196.966   20.137558   19.061637   11.125051
   4 Au   19.0000*   0   196.966   19.613424   12.797178   16.686004
   5 Au   19.0000*   0   196.966   16.645412   15.894114    9.386007
   6 Au   19.0000*   0   196.966   15.964121   21.484442   13.821563
   7 Au   19.0000*   0   196.966   15.149847   15.257632   18.884671
   8 Au   19.0000*   0   196.966   15.418134   10.018593   17.818864
   9 Au   19.0000*   0   196.966   13.064749   13.129975   14.574870
  10 Au   19.0000*   0   196.966   12.073102   13.509466    9.613710
  11 Au   19.0000*   0   196.966   12.585645   17.944123   12.561215
  12 Mn   25.0000    0    54.940   17.113526   16.521704   14.373577
* core charge reduced due to ECP

--------------------------------
INTERNAL COORDINATES (ANGSTROEM)
--------------------------------
 Au     0   0   0     0.000000000000     0.00000000     0.00000000
 Au     1   0   0     2.812743346561     0.00000000     0.00000000
 Au     1   2   0     2.827349069064    62.56682776     0.00000000
 Au     3   1   2     2.821107146352    60.08951736   111.09787606
 Au     3   1   2     2.658534054014   139.98486004    28.16857131
 Au     4   3   1     2.659217317533   108.10825328   221.99682783
 Au     1   2   3     2.813694729061    60.99346781   110.21136665
 Au     2   1   3     2.674517782701   144.52231180   313.41797803
 Au     5   3   1     2.729465090681   153.19568630   359.59176724
 Au     9   5   3     2.684895915405    84.63455355    39.94531850
 Au    10   9   5     2.684785276332   139.61807959    87.79139454
 Au     7   1   2     2.674122648208   144.47856142   296.17025026
 Mn     5   3   1     2.670583709336    61.01587154    30.85145133

---------------------------
INTERNAL COORDINATES (A.U.)
---------------------------
 Au     0   0   0     0.000000000000     0.00000000     0.00000000
 Au     1   0   0     5.315314610009     0.00000000     0.00000000
 Au     1   2   0     5.342915425528    62.56682776     0.00000000
 Au     3   1   2     5.331119901053    60.08951736   111.09787606
 Au     3   1   2     5.023901279789   139.98486004    28.16857131
 Au     4   3   1     5.025192460719   108.10825328   221.99682783
 Au     1   2   3     5.317112462384    60.99346781   110.21136665
 Au     2   1   3     5.054106149607   144.52231180   313.41797803
 Au     5   3   1     5.157941513486   153.19568630   359.59176724
 Au     9   5   3     5.073717978198    84.63455355    39.94531850
 Au    10   9   5     5.073508900652   139.61807959    87.79139454
 Au     7   1   2     5.053359453629   144.47856142   296.17025026
 Mn     5   3   1     5.046671828356    61.01587154    30.85145133

---------------------
BASIS SET INFORMATION
---------------------
There are 2 groups of distinct atoms

 Group   1 Type Au  : 8s7p6d1f contracted to 6s4p3d1f pattern {311111/4111/411/1}
 Group   2 Type Mn  : 17s11p7d1f contracted to 6s4p4d1f pattern {842111/6311/4111/1}

Atom   0Au   basis set group =>   1
Atom   1Au   basis set group =>   1
Atom   2Au   basis set group =>   1
Atom   3Au   basis set group =>   1
Atom   4Au   basis set group =>   1
Atom   5Au   basis set group =>   1
Atom   6Au   basis set group =>   1
Atom   7Au   basis set group =>   1
Atom   8Au   basis set group =>   1
Atom   9Au   basis set group =>   1
Atom  10Au   basis set group =>   1
Atom  11Au   basis set group =>   1
Atom  12Mn   basis set group =>   2
---------------------------------
AUXILIARY/J BASIS SET INFORMATION
---------------------------------
There are 2 groups of distinct atoms

 Group   1 Type Au  : 11s5p5d3f3g contracted to 8s5p5d2f3g pattern {41111111/11111/11111/21/111}
 Group   2 Type Mn  : 19s5p5d3f3g contracted to 8s5p5d2f3g pattern {121111111/11111/11111/21/111}

Atom   0Au   basis set group =>   1
Atom   1Au   basis set group =>   1
Atom   2Au   basis set group =>   1
Atom   3Au   basis set group =>   1
Atom   4Au   basis set group =>   1
Atom   5Au   basis set group =>   1
Atom   6Au   basis set group =>   1
Atom   7Au   basis set group =>   1
Atom   8Au   basis set group =>   1
Atom   9Au   basis set group =>   1
Atom  10Au   basis set group =>   1
Atom  11Au   basis set group =>   1
Atom  12Mn   basis set group =>   2
---------------------------------
AUXILIARY/C BASIS SET INFORMATION
---------------------------------
There are 2 groups of distinct atoms

 Group   1 Type Au  : 8s8p7d5f3g2h contracted to 8s8p7d5f3g2h pattern {11111111/11111111/1111111/11111/111/11}
 Group   2 Type Mn  : 11s9p8d6f5g2h contracted to 9s8p8d6f5g2h pattern {311111111/21111111/11111111/111111/11111/11}

Atom   0Au   basis set group =>   1
Atom   1Au   basis set group =>   1
Atom   2Au   basis set group =>   1
Atom   3Au   basis set group =>   1
Atom   4Au   basis set group =>   1
Atom   5Au   basis set group =>   1
Atom   6Au   basis set group =>   1
Atom   7Au   basis set group =>   1
Atom   8Au   basis set group =>   1
Atom   9Au   basis set group =>   1
Atom  10Au   basis set group =>   1
Atom  11Au   basis set group =>   1
Atom  12Mn   basis set group =>   2
-------------------------
ECP PARAMETER INFORMATION
-------------------------

 Group 1, Type Au ECP Def2-ECP (replacing 60 core electrons, lmax=3)

Atom   0Au   ECP group =>   1
Atom   1Au   ECP group =>   1
Atom   2Au   ECP group =>   1
Atom   3Au   ECP group =>   1
Atom   4Au   ECP group =>   1
Atom   5Au   ECP group =>   1
Atom   6Au   ECP group =>   1
Atom   7Au   ECP group =>   1
Atom   8Au   ECP group =>   1
Atom   9Au   ECP group =>   1
Atom  10Au   ECP group =>   1
Atom  11Au   ECP group =>   1



           ************************************************************
           *        Program running with 6 parallel MPI-processes     *
           *              working on a common directory               *
           ************************************************************
------------------------------------------------------------------------------
                           ORCA GTO INTEGRAL CALCULATION
                           -- RI-GTO INTEGRALS CHOSEN --
------------------------------------------------------------------------------
------------------------------------------------------------------------------
                   ___                                                        
                  /   \      - P O W E R E D   B Y -                         
                 /     \                                                     
                 |  |  |   _    _      __       _____    __    __             
                 |  |  |  | |  | |    /  \     |  _  \  |  |  /  |          
                  \  \/   | |  | |   /    \    | | | |  |  | /  /          
                 / \  \   | |__| |  /  /\  \   | |_| |  |  |/  /          
                |  |  |   |  __  | /  /__\  \  |    /   |      \           
                |  |  |   | |  | | |   __   |  |    \   |  |\   \          
                \     /   | |  | | |  |  |  |  | |\  \  |  | \   \       
                 \___/    |_|  |_| |__|  |__|  |_| \__\ |__|  \__/        
                                                                              
                      - O R C A' S   B I G   F R I E N D -                    
                                      &                                       
                       - I N T E G R A L  F E E D E R -                       
                                                                              
 v1 FN, 2020, v2 2021                                                         
------------------------------------------------------------------------------


Reading SHARK input file b2plyp.SHARKINP.tmp ... ok
----------------------
SHARK INTEGRAL PACKAGE
----------------------

Number of atoms                             ...     13
Number of basis functions                   ...    525
Number of shells                            ...    183
Maximum angular momentum                    ...      3
Integral batch strategy                     ... SHARK/LIBINT Hybrid
RI-J (if used) integral strategy            ... SPLIT-RIJ (Revised 2003 algorithm where possible)
Printlevel                                  ...      1
Contraction scheme used                     ... SEGMENTED contraction
Coulomb Range Separation                    ... NOT USED
Exchange Range Separation                   ... NOT USED
Finite Nucleus Model                        ... NOT USED
Auxiliary Coulomb fitting basis             ... AVAILABLE
   # of basis functions in Aux-J            ...   1157
   # of shells in Aux-J                     ...    299
   Maximum angular momentum in Aux-J        ...      4
Auxiliary J/K fitting basis                 ... NOT available
Auxiliary Correlation fitting basis         ... AVAILABLE
   # of basis functions in Aux-C            ...   1994
   # of shells in Aux-C                     ...    434
   Maximum angular momentum in Aux-C        ...      5
Auxiliary 'external' fitting basis          ... NOT available
Integral threshold                          ...     1.000000e-10
Primitive cut-off                           ...     1.000000e-11
Primitive pair pre-selection threshold      ...     1.000000e-11

Calculating pre-screening integrals         ... done (  0.2 sec) Dimension = 183
Organizing shell pair data                  ... done (  0.4 sec)
Shell pair information
Total number of shell pairs                 ...     16836
Shell pairs after pre-screening             ...     13327
Total number of primitive shell pairs       ...     45389
Primitive shell pairs kept                  ...     26026
          la=0 lb=0:   2104 shell pairs
          la=1 lb=0:   3036 shell pairs
          la=1 lb=1:   1164 shell pairs
          la=2 lb=0:   2627 shell pairs
          la=2 lb=1:   1888 shell pairs
          la=2 lb=2:    773 shell pairs
          la=3 lb=0:    688 shell pairs
          la=3 lb=1:    530 shell pairs
          la=3 lb=2:    450 shell pairs
          la=3 lb=3:     67 shell pairs

Calculating one electron integrals          ... done (  0.1 sec)
Calculating ECP integrals                   ... done ( 10.4 sec)
Calculating RI/J V-Matrix + Cholesky decomp.... done (  0.1 sec)
Calculating RI/C V-Matrix + Cholesky decomp.... done (  0.3 sec)
Calculating Nuclear repulsion               ... done (  0.0 sec) ENN=   4246.502024252103 Eh

SHARK setup successfully completed in  12.0 seconds

Maximum memory used throughout the entire GTOINT-calculation: 38.7 MB


           ************************************************************
           *        Program running with 6 parallel MPI-processes     *
           *              working on a common directory               *
           ************************************************************
-------------------------------------------------------------------------------
                                 ORCA SCF
-------------------------------------------------------------------------------

------------
SCF SETTINGS
------------
Hamiltonian:
 Density Functional     Method          .... DFT(GTOs)
 Exchange Functional    Exchange        .... B88
   X-Alpha parameter    XAlpha          ....  0.666667
   Becke's b parameter  XBeta           ....  0.004200
 Correlation Functional Correlation     .... LYP
 LDA part of GGA corr.  LDAOpt          .... VWN-3
 Gradients option       PostSCFGGA      .... off
 Hybrid DFT is turned on
   Fraction HF Exchange ScalHFX         ....  0.530000
   Scaling of DF-GGA-X  ScalDFX         ....  0.470000
   Scaling of DF-GGA-C  ScalDFC         ....  0.730000
   Scaling of DF-LDA-C  ScalLDAC        ....  0.730000
   Perturbative correction              ....  0.270000
   Density functional embedding theory  .... OFF
   NL short-range parameter             ....  7.800000
 RI-approximation to the Coulomb term is turned on
   Number of AuxJ basis functions       .... 1157
   RIJ-COSX (HFX calculated with COS-X)).... on


General Settings:
 Integral files         IntName         .... b2plyp
 Hartree-Fock type      HFTyp           .... UHF
 Total Charge           Charge          ....    0
 Multiplicity           Mult            ....    6
 Number of Electrons    NEL             ....  253
 Basis Dimension        Dim             ....  525
 Nuclear Repulsion      ENuc            ....   4246.5020242521 Eh

Convergence Acceleration:
 DIIS                   CNVDIIS         .... on
   Start iteration      DIISMaxIt       ....     0
   Startup error        DIISStart       ....  0.200000
   # of expansion vecs  DIISMaxEq       ....     5
   Bias factor          DIISBfac        ....   1.050
   Max. coefficient     DIISMaxC        ....  10.000
 Trust-Rad. Augm. Hess. CNVTRAH         .... auto
   Auto Start mean grad. ratio tolernc. ....  1.125000
   Auto Start start iteration           ....   200
   Auto Start num. interpolation iter.  ....    10
   Max. Number of Micro iterations      ....    16
   Max. Number of Macro iterations      .... Maxiter - #DIIS iter
   Number of Davidson start vectors     ....     2
   Converg. threshold I  (grad. norm)   ....   5.000e-05
   Converg. threshold II (energy diff.) ....   1.000e-06
   Grad. Scal. Fac. for Micro threshold ....   0.100
   Minimum threshold for Micro iter.    ....   0.010
   NR start threshold (gradient norm)   ....   0.001
   Initial trust radius                 ....   0.400
   Minimum AH scaling param. (alpha)    ....   1.000
   Maximum AH scaling param. (alpha)    .... 1000.000
   Orbital update algorithm             .... Taylor
   White noise on init. David. guess    .... on
   Maximum white noise                  ....   0.010
   Quad. conv. algorithm                .... NR
 SOSCF                  CNVSOSCF        .... off
 Level Shifting         CNVShift        .... on
   Level shift para.    LevelShift      ....    0.2500
   Turn off err/grad.   ShiftErr        ....    0.0000
 Zerner damping         CNVZerner       .... off
 Static damping         CNVDamp         .... on
   Fraction old density DampFac         ....    0.9200
   Max. Damping (<1)    DampMax         ....    0.9800
   Min. Damping (>=0)   DampMin         ....    0.0000
   Turn off err/grad.   DampErr         ....    0.0030
 Fernandez-Rico         CNVRico         .... off

SCF Procedure:
 Maximum # iterations   MaxIter         ....   400
 SCF integral mode      SCFMode         .... Direct
   Integral package                     .... SHARK and LIBINT hybrid scheme
 Reset frequency        DirectResetFreq ....    20
 Integral Threshold     Thresh          ....  1.000e-10 Eh
 Primitive CutOff       TCut            ....  1.000e-11 Eh

Convergence Tolerance:
 Convergence Check Mode ConvCheckMode   .... Total+1el-Energy
 Convergence forced     ConvForced      .... 0
 Energy Change          TolE            ....  1.000e-06 Eh
 1-El. energy change                    ....  1.000e-03 Eh
 DIIS Error             TolErr          ....  1.000e-06


Diagonalization of the overlap matrix:
Smallest eigenvalue                        ... 3.825e-04
Time for diagonalization                   ...    0.077 sec
Threshold for overlap eigenvalues          ... 1.000e-08
Number of eigenvalues below threshold      ... 0
Time for construction of square roots      ...    0.080 sec
Total time needed                          ...    0.159 sec

Time for model grid setup =    0.786 sec

------------------------------
INITIAL GUESS: MODEL POTENTIAL
------------------------------
Loading Hartree-Fock densities                     ... done
  calling /home/ehlert/src/miniconda3/envs/orca500/Programs/ORCA501/orca b2plyp_atom79.inp > b2plyp_atom79.out in order to generate an atomic fitting density for atom 0 (Au with ECP) on-the-fly... 
    atom 0 (Au), assumed electronic state with S=2: 1s2 2s2 2p6 3s2 3p6 4s2 3d10 4p6 5s2 4d10 5p6 6s1 4f14 5d10           ... done
Calculating cut-offs                               ... done
Initializing the effective Hamiltonian             ... done
Setting up the integral package (SHARK)            ... done
Starting the Coulomb interaction                   ... done (   0.7 sec)
Reading the grid                                   ... done
Mapping shells                                     ... done
Starting the XC term evaluation                    ... done (   0.7 sec)
  promolecular density results
     # of electrons  =    973.013207174
     EX              =  -4459.326283825
     EC              =    -19.747013900
     EX+EC           =  -4479.073297725
Transforming the Hamiltonian                       ... done (   0.1 sec)
Diagonalizing the Hamiltonian                      ... done (   0.1 sec)
Back transforming the eigenvectors                 ... done (   0.0 sec)
Now organizing SCF variables                       ... done
                      ------------------
                      INITIAL GUESS DONE (   3.5 sec)
                      ------------------
-------------------
DFT GRID GENERATION
-------------------

General Integration Accuracy     IntAcc      ... 4.388
Radial Grid Type                 RadialGrid  ... OptM3 with GC (2021)
Angular Grid (max. ang.)         AngularGrid ... 4 (Lebedev-302)
Angular grid pruning method      GridPruning ... 4 (adaptive)
Weight generation scheme         WeightScheme... Becke
Basis function cutoff            BFCut       ... 1.0000e-10
Integration weight cutoff        WCut        ... 1.0000e-14
Angular grids for H and He will be reduced by one unit
Partially contracted basis set               ... off
Rotationally invariant grid construction     ... off

Total number of grid points                  ...   145087
Total number of batches                      ...     2274
Average number of points per batch           ...       63
Average number of grid points per atom       ...    11161
Time for grid setup =    2.440 sec

--------------------
COSX GRID GENERATION
--------------------

GRIDX 1
-------
General Integration Accuracy     IntAcc      ... 3.816
Radial Grid Type                 RadialGrid  ... OptM3 with GC (2021)
Angular Grid (max. ang.)         AngularGrid ... 1 (Lebedev-50)
Angular grid pruning method      GridPruning ... 4 (adaptive)
Weight generation scheme         WeightScheme... Becke
Basis function cutoff            BFCut       ... 1.0000e-10
Integration weight cutoff        WCut        ... 1.0000e-14
Angular grids for H and He will be reduced by one unit
Partially contracted basis set               ... on
Rotationally invariant grid construction     ... off

Total number of grid points                  ...    15249
Total number of batches                      ...      246
Average number of points per batch           ...       61
Average number of grid points per atom       ...     1173
UseSFitting                                  ... on

GRIDX 2
-------
General Integration Accuracy     IntAcc      ... 4.020
Radial Grid Type                 RadialGrid  ... OptM3 with GC (2021)
Angular Grid (max. ang.)         AngularGrid ... 2 (Lebedev-110)
Angular grid pruning method      GridPruning ... 4 (adaptive)
Weight generation scheme         WeightScheme... Becke
Basis function cutoff            BFCut       ... 1.0000e-10
Integration weight cutoff        WCut        ... 1.0000e-14
Angular grids for H and He will be reduced by one unit
Partially contracted basis set               ... on
Rotationally invariant grid construction     ... off

Total number of grid points                  ...    46182
Total number of batches                      ...      730
Average number of points per batch           ...       63
Average number of grid points per atom       ...     3552
UseSFitting                                  ... on

GRIDX 3
-------
General Integration Accuracy     IntAcc      ... 4.338
Radial Grid Type                 RadialGrid  ... OptM3 with GC (2021)
Angular Grid (max. ang.)         AngularGrid ... 3 (Lebedev-194)
Angular grid pruning method      GridPruning ... 4 (adaptive)
Weight generation scheme         WeightScheme... Becke
Basis function cutoff            BFCut       ... 1.0000e-10
Integration weight cutoff        WCut        ... 1.0000e-14
Angular grids for H and He will be reduced by one unit
Partially contracted basis set               ... on
Rotationally invariant grid construction     ... off

Total number of grid points                  ...    84554
Total number of batches                      ...     1329
Average number of points per batch           ...       63
Average number of grid points per atom       ...     6504
UseSFitting                                  ... on

Time for X-Grid setup             =    2.327 sec

--------------
SCF ITERATIONS
--------------
ITER       Energy         Delta-E        Max-DP      RMS-DP      [F,P]     Damp
               ***  Starting incremental Fock matrix formation  ***
  0  -2773.7108174852   0.000000000000 0.08599541  0.00061183  0.3107686 0.9200
  1  -2774.2319291410  -0.521111655778 0.07728553  0.00056770  0.2514064 0.9200
                               ***Turning on DIIS***
  2  -2774.4972634060  -0.265334264945 0.05900155  0.00049127  0.2313785 0.9200
  3  -2774.5833279968  -0.086064590810 0.02602500  0.00027904  0.2129217 0.9200
  4  -2774.6519353169  -0.068607320113 0.02476828  0.00025387  0.1958042 0.9200
  5  -2774.7226391178  -0.070703800916 0.02326997  0.00023883  0.1800392 0.9200
  6  -2774.7851496463  -0.062510528511 0.02176449  0.00022109  0.1656258 0.9200
  7  -2774.8466750739  -0.061525427598 0.01951587  0.00021171  0.1524305 0.9200
  8  -2774.9136385959  -0.066963521948 0.01824021  0.00020320  0.1403103 0.9200
  9  -2774.9747129426  -0.061074346781 0.01733030  0.00018474  0.1291296 0.9200
 10  -2775.0322841805  -0.057571237870 0.01611563  0.00017168  0.1187947 0.9200
 11  -2775.0854594508  -0.053175270269 0.01495329  0.00016081  0.1092588 0.9200
 12  -2775.1358245789  -0.050365128081 0.01380279  0.00015212  0.1005013 0.9200
 13  -2775.1846058531  -0.048781274236 0.01478310  0.00014519  0.0924709 0.9200
 14  -2775.2307264511  -0.046120598023 0.01510974  0.00013628  0.0850936 0.9200
 15  -2775.2740422377  -0.043315786543 0.01536668  0.00012766  0.0782943 0.9200
 16  -2775.3146845719  -0.040642334243 0.01524719  0.00012019  0.0720265 0.9200
 17  -2775.3529862097  -0.038301637815 0.01478574  0.00011361  0.0662595 0.9200
 18  -2775.3892685731  -0.036282363395 0.01429553  0.00010752  0.0609607 0.9200
 19  -2775.4235493049  -0.034280731803 0.01387749  0.00010139  0.0560905 0.9200
               *** Restarting incremental Fock matrix formation ***
                                   *** Resetting DIIS ***
 20  -2775.4548312886  -0.031281983723 0.01255619  0.00008861  0.0516076 0.9200
 21  -2775.4856211962  -0.030789907571 0.01059955  0.00008086  0.0474796 0.9200
 22  -2775.5144525126  -0.028831316409 0.00954346  0.00007619  0.0436828 0.9200
 23  -2775.5413628425  -0.026910329871 0.00936286  0.00007350  0.0401948 0.9200
 24  -2775.5664511199  -0.025088277362 0.00960269  0.00007129  0.0369891 0.9200
 25  -2775.5898632938  -0.023412173932 0.00993823  0.00006840  0.0340398 0.9200
 26  -2775.6117677965  -0.021904502686 0.01013443  0.00006532  0.0313228 0.9200
 27  -2775.6322355784  -0.020467781898 0.01017695  0.00006211  0.0288240 0.9200
 28  -2775.6513423578  -0.019106779436 0.01003328  0.00005886  0.0265249 0.9200
 29  -2775.6691736472  -0.017831289422 0.00969018  0.00005561  0.0244080 0.9200
 30  -2775.6858135878  -0.016639940529 0.00924967  0.00005242  0.0224595 0.9200
 31  -2775.7013369872  -0.015523399485 0.00882730  0.00004935  0.0206669 0.9200
 32  -2775.7158085269  -0.014471539661 0.00845674  0.00004641  0.0190177 0.9200
 33  -2775.7292887669  -0.013480240009 0.00809845  0.00004361  0.0175004 0.9200
 34  -2775.7418370201  -0.012548253173 0.00771401  0.00004093  0.0161040 0.9200
 35  -2775.7535108173  -0.011673797184 0.00731212  0.00003839  0.0148189 0.9200
 36  -2775.7643647390  -0.010853921756 0.00691787  0.00003598  0.0136364 0.9200
 37  -2775.7744501659  -0.010085426877 0.00654950  0.00003371  0.0125482 0.9200
 38  -2775.7838157491  -0.009365583158 0.00621303  0.00003159  0.0115470 0.9200
 39  -2775.7925078655  -0.008692116432 0.00611596  0.00002979  0.0106257 0.9200
               *** Restarting incremental Fock matrix formation ***
                                   *** Resetting DIIS ***
 40  -2775.8005737647  -0.008065899161 0.00495990  0.00002433  0.0097780 0.9200
 41  -2775.8080949016  -0.007521136946 0.00410871  0.00002152  0.0090047 0.9200
 42  -2775.8150579719  -0.006963070275 0.00373456  0.00002030  0.0082913 0.9200
 43  -2775.8214949729  -0.006437001036 0.00367548  0.00001987  0.0076320 0.9200
 44  -2775.8274412229  -0.005946250008 0.00375432  0.00001964  0.0070237 0.9200
 45  -2775.8329329828  -0.005491759848 0.00383418  0.00001903  0.0064634 0.9200
 46  -2775.8380088194  -0.005075836587 0.00386531  0.00001832  0.0059485 0.9200
 47  -2775.8426998779  -0.004691058495 0.00385225  0.00001757  0.0054748 0.9200
 48  -2775.8470347808  -0.004334902984 0.00378062  0.00001678  0.0050385 0.9200
 49  -2775.8510403359  -0.004005555029 0.00364556  0.00001595  0.0046367 0.9200
 50  -2775.8547414081  -0.003701072247 0.00348169  0.00001513  0.0042669 0.9200
 51  -2775.8581608600  -0.003419451842 0.00331274  0.00001432  0.0039266 0.9200
 52  -2775.8613196117  -0.003158751717 0.00315085  0.00001354  0.0036136 0.9200
 53  -2775.8642370318  -0.002917420152 0.00298745  0.00001279  0.0033257 0.9200
 54  -2775.8669310971  -0.002694065290 0.00282548  0.00001208  0.0030608 0.9200
 55  -2775.8694185023  -0.002487405186 0.03331302  0.00014249  0.0028170 0.0000
 56  -2775.8987620040  -0.029343501728 0.00225238  0.00001471  0.0004631 0.0000
               *** Restarting incremental Fock matrix formation ***
                                   *** Resetting DIIS ***
 57  -2775.8995615082  -0.000799504214 0.00456864  0.00010395  0.0006291 0.0000
 58  -2775.8997091285  -0.000147620294 0.00176183  0.00003667  0.0002325 0.0000
 59  -2775.8997372046  -0.000028076104 0.00082535  0.00001430  0.0002174 0.0000
 60  -2775.8997483244  -0.000011119741 0.00085201  0.00000929  0.0001858 0.0000
 61  -2775.8997565085  -0.000008184141 0.00068489  0.00000776  0.0001816 0.0000
 62  -2775.8997634865  -0.000006977986 0.00073998  0.00000759  0.0001628 0.0000
 63  -2775.8997702224  -0.000006735905 0.00068564  0.00000658  0.0001598 0.0000
 64  -2775.8997762381  -0.000006015650 0.00052167  0.00000481  0.0001523 0.0000
 65  -2775.8997808344  -0.000004596353 0.00032068  0.00000294  0.0001538 0.0000
 66  -2775.8997836201  -0.000002785659 0.00023357  0.00000216  0.0001535 0.0000
 67  -2775.8997856693  -0.000002049195 0.00029370  0.00000277  0.0001515 0.0000
 68  -2775.8997884442  -0.000002774950 0.00033392  0.00000313  0.0001544 0.0000
 69  -2775.8997915895  -0.000003145232 0.00029177  0.00000273  0.0001589 0.0000
 70  -2775.8997944410  -0.000002851528 0.00029461  0.00000313  0.0001628 0.0000
 71  -2775.8997978263  -0.000003385369 0.00043043  0.00000482  0.0001688 0.0000
 72  -2775.8998028991  -0.000005072722 0.00054273  0.00000550  0.0001834 0.0000
 73  -2775.8998089254  -0.000006026326 0.00043718  0.00000435  0.0001922 0.0000
 74  -2775.8998137486  -0.000004823228 0.00032803  0.00000325  0.0001998 0.0000
 75  -2775.8998173390  -0.000003590369 0.00034160  0.00000321  0.0002039 0.0000
 76  -2775.8998209259  -0.000003586908 0.00037080  0.00000350  0.0002047 0.0000
               *** Restarting incremental Fock matrix formation ***
                                   *** Resetting DIIS ***
 77  -2775.8998252589  -0.000004333034 0.00169183  0.00000978  0.0002014 0.0000
 78  -2775.8998357313  -0.000010472375 0.00082327  0.00000784  0.0002209 0.0000
 79  -2775.8998455542  -0.000009822928 0.00039949  0.00000384  0.0002309 0.0000
 80  -2775.8998502925  -0.000004738237 0.00022525  0.00000246  0.0002307 0.0000
 81  -2775.8998485061   0.000001786408 0.00013637  0.00000132  0.0002200 0.0000
 82  -2775.8998474286   0.000001077466 0.00083127  0.00000875  0.0002188 0.0000
 83  -2775.8998590234  -0.000011594770 0.00068562  0.00000656  0.0002338 0.0000
 84  -2775.8998679921  -0.000008968742 0.00043800  0.00000444  0.0002398 0.0000
 85  -2775.8998743037  -0.000006311606 0.00049891  0.00000538  0.0002461 0.0000
 86  -2775.8998823916  -0.000008087904 0.00055096  0.00000554  0.0002557 0.0000
 87  -2775.8998909312  -0.000008539548 0.00049644  0.00000467  0.0002616 0.0000
 88  -2775.8998981418  -0.000007210631 0.00062112  0.00000597  0.0002658 0.0000
 89  -2775.8999074624  -0.000009320554 0.00059947  0.00000571  0.0002756 0.0000
 90  -2775.8999164274  -0.000008965077 0.00065048  0.00000615  0.0002844 0.0000
 91  -2775.8999263071  -0.000009879652 0.00059369  0.00000562  0.0002888 0.0000
 92  -2775.8999356047  -0.000009297613 0.00059209  0.00000601  0.0002918 0.0000
 93  -2775.8999458941  -0.000010289406 0.00064206  0.00000650  0.0002977 0.0000
 94  -2775.8999576331  -0.000011738971 0.00066220  0.00000686  0.0003052 0.0000
 95  -2775.8999702945  -0.000012661465 0.00075769  0.00000783  0.0003159 0.0000
 96  -2775.8999851811  -0.000014886531 0.00084220  0.00000857  0.0003265 0.0000
               *** Restarting incremental Fock matrix formation ***
                                   *** Resetting DIIS ***
 97  -2775.9000014998  -0.000016318704 0.00142985  0.00001434  0.0003359 0.0000
 98  -2775.9000288794  -0.000027379577 0.00123838  0.00001200  0.0003620 0.0000
 99  -2775.9000535330  -0.000024653667 0.00057396  0.00000553  0.0003695 0.0000
100  -2775.9000636881  -0.000010155094 0.00054920  0.00000509  0.0003616 0.0000
101  -2775.9000739876  -0.000010299490 0.00045142  0.00000420  0.0003650 0.0000
102  -2775.9000826717  -0.000008684108 0.00077694  0.00000804  0.0003685 0.0000
103  -2775.9001007522  -0.000018080448 0.00084903  0.00000912  0.0003815 0.0000
104  -2775.9001221070  -0.000021354835 0.00085557  0.00000977  0.0003952 0.0000
105  -2775.9001453225  -0.000023215554 0.00116132  0.00001250  0.0004109 0.0000
106  -2775.9001756797  -0.000030357190 0.00108924  0.00001133  0.0004257 0.0000
107  -2775.9002039593  -0.000028279539 0.00095467  0.00000960  0.0004481 0.0000
108  -2775.9002282306  -0.000024271317 0.00084232  0.00000817  0.0004677 0.0000
109  -2775.9002493021  -0.000021071502 0.00078285  0.00000730  0.0004738 0.0000
110  -2775.9002678809  -0.000018578844 0.00093973  0.00000893  0.0004668 0.0000
111  -2775.9002917877  -0.000023906736 0.00103318  0.00001018  0.0004633 0.0000
112  -2775.9003198907  -0.000028103055 0.00113336  0.00001191  0.0004756 0.0000
113  -2775.9003543767  -0.000034485939 0.00116913  0.00001256  0.0004934 0.0000
114  -2775.9003918164  -0.000037439690 0.00116465  0.00001276  0.0005107 0.0000
115  -2775.9004306938  -0.000038877453 0.00119513  0.00001285  0.0005281 0.0000
116  -2775.9004707188  -0.000040024946 0.00122368  0.00001301  0.0005422 0.0000
               *** Restarting incremental Fock matrix formation ***
                                   *** Resetting DIIS ***
117  -2775.9005125332  -0.000041814450 0.00225409  0.00002346  0.0005661 0.0000
118  -2775.9005867687  -0.000074235532 0.00192033  0.00001974  0.0005753 0.0000
119  -2775.9006535734  -0.000066804696 0.00096934  0.00000968  0.0005941 0.0000
120  -2775.9006837079  -0.000030134416 0.00085926  0.00000844  0.0005975 0.0000
121  -2775.9007116143  -0.000027906403 0.00070435  0.00000700  0.0006034 0.0000
122  -2775.9007352147  -0.000023600433 0.00136578  0.00001219  0.0006093 0.0000
123  -2775.9007802651  -0.000045050458 0.00123040  0.00001398  0.0006244 0.0000
124  -2775.9008333670  -0.000053101841 0.00141538  0.00001670  0.0006427 0.0000
125  -2775.9008976565  -0.000064289528 0.00189800  0.00002131  0.0006661 0.0000
126  -2775.9009810606  -0.000083404130 0.00168870  0.00001844  0.0006884 0.0000
127  -2775.9010554333  -0.000074372627 0.00126083  0.00001339  0.0007062 0.0000
128  -2775.9011098723  -0.000054439070 0.00112269  0.00001173  0.0007168 0.0000
129  -2775.9011583881  -0.000048515799 0.00114157  0.00001179  0.0007254 0.0000
130  -2775.9012071968  -0.000048808672 0.00142069  0.00001524  0.0007325 0.0000
131  -2775.9012726338  -0.000065436948 0.00151113  0.00001631  0.0007456 0.0000
132  -2775.9013440685  -0.000071434712 0.00172106  0.00001848  0.0007608 0.0000
133  -2775.9014285199  -0.000084451398 0.00174862  0.00002053  0.0007815 0.0000
134  -2775.9015245361  -0.000096016256 0.00181771  0.00002146  0.0008039 0.0000
135  -2775.9016264933  -0.000101957182 0.00176216  0.00002064  0.0008259 0.0000
136  -2775.9017265987  -0.000100105428 0.00168338  0.00001966  0.0008444 0.0000
               *** Restarting incremental Fock matrix formation ***
                                   *** Resetting DIIS ***
137  -2775.9018243894  -0.000097790643 0.00402540  0.00003587  0.0008605 0.0000
138  -2775.9020008256  -0.000176436192 0.00256914  0.00003057  0.0008884 0.0000
139  -2775.9021597984  -0.000158972804 0.00146047  0.00001682  0.0009109 0.0000
140  -2775.9022450718  -0.000085273421 0.00099841  0.00001156  0.0009181 0.0000
141  -2775.9023007675  -0.000055695713 0.00090660  0.00001063  0.0009229 0.0000
142  -2775.9023566799  -0.000055912402 0.00163379  0.00002096  0.0009311 0.0000
143  -2775.9024736163  -0.000116936369 0.00179538  0.00002109  0.0009522 0.0000
144  -2775.9025931632  -0.000119546920 0.00242883  0.00002396  0.0009707 0.0000
145  -2775.9027302920  -0.000137128826 0.00358038  0.00003303  0.0009930 0.0000
146  -2775.9029204714  -0.000190179339 0.00293049  0.00003001  0.0010172 0.0000
147  -2775.9030975808  -0.000177109428 0.00189938  0.00002197  0.0010350 0.0000
148  -2775.9032290119  -0.000131431107 0.00127837  0.00001562  0.0010451 0.0000
149  -2775.9033214894  -0.000092477538 0.00117720  0.00001545  0.0010507 0.0000
150  -2775.9034144808  -0.000092991331 0.00188033  0.00002181  0.0010572 0.0000
151  -2775.9035499683  -0.000135487491 0.00217647  0.00002514  0.0010716 0.0000
152  -2775.9037085790  -0.000158610694 0.00266459  0.00002789  0.0010893 0.0000
153  -2775.9038874852  -0.000178906292 0.00345846  0.00003078  0.0011082 0.0000
154  -2775.9040866404  -0.000199155142 0.00398758  0.00003282  0.0011258 0.0000
155  -2775.9043006031  -0.000213962689 0.00378147  0.00003151  0.0011407 0.0000
156  -2775.9045086711  -0.000208068065 0.00325713  0.00002780  0.0011522 0.0000
               *** Restarting incremental Fock matrix formation ***
                                   *** Resetting DIIS ***
157  -2775.9046945777  -0.000185906593 0.00605040  0.00004693  0.0011601 0.0000
158  -2775.9050050928  -0.000310515089 0.00562311  0.00004147  0.0011836 0.0000
159  -2775.9052869338  -0.000281840955 0.00382680  0.00003521  0.0011903 0.0000
160  -2775.9055303129  -0.000243379143 0.00171165  0.00002015  0.0011980 0.0000
161  -2775.9056654466  -0.000135133682 0.00106123  0.00001182  0.0011971 0.0000
162  -2775.9057345817  -0.000069135049 0.00450122  0.00002658  0.0011951 0.0000
163  -2775.9059220581  -0.000187476477 0.00327655  0.00002565  0.0012049 0.0000
164  -2775.9061025415  -0.000180483341 0.00496000  0.00003405  0.0012124 0.0000
165  -2775.9063412374  -0.000238695953 0.00751034  0.00004889  0.0012221 0.0000
166  -2775.9066792894  -0.000338051942 0.00714859  0.00004768  0.0012287 0.0000
167  -2775.9070106825  -0.000331393178 0.00707134  0.00004878  0.0012266 0.0000
168  -2775.9073504536  -0.000339771075 0.00792694  0.00005072  0.0012256 0.0000
169  -2775.9077020951  -0.000351641494 0.00846122  0.00005575  0.0012197 0.0000
170  -2775.9080845977  -0.000382502599 0.01045365  0.00006035  0.0012145 0.0000
171  -2775.9084914025  -0.000406804788 0.00833743  0.00005790  0.0011997 0.0000
172  -2775.9088798122  -0.000388409685 0.01317179  0.00007073  0.0011849 0.0000
173  -2775.9093343415  -0.000454529356 0.01001605  0.00006487  0.0011648 0.0000
174  -2775.9097495014  -0.000415159858 0.02356124  0.00011509  0.0011315 0.0000
175  -2775.9103882573  -0.000638755934 0.00264431  0.00003214  0.0011069 0.0000
176  -2775.9105766607  -0.000188403388 0.02303573  0.00011072  0.0010419 0.0000
               *** Restarting incremental Fock matrix formation ***
                                   *** Resetting DIIS ***
177  -2775.9111355056  -0.000558844868 0.00350389  0.00004046  0.0010277 0.0000
178  -2775.9113580910  -0.000222585387 0.00256812  0.00003140  0.0009286 0.0000
179  -2775.9115451949  -0.000187103954 0.00505816  0.00003781  0.0009264 0.0000
180  -2775.9117464961  -0.000201301200 0.00569390  0.00004558  0.0009011 0.0000
181  -2775.9119718318  -0.000225335695 0.01102129  0.00005892  0.0008657 0.0000
182  -2775.9122365526  -0.000264720765 0.00472284  0.00003622  0.0008187 0.0000
183  -2775.9123971401  -0.000160587508 0.02488973  0.00011974  0.0007602 0.0000
184  -2775.9127844025  -0.000387262381 0.00375327  0.00003970  0.0009408 0.0000
185  -2775.9129555340  -0.000171131548 0.01581466  0.00008414  0.0006211 0.0000
186  -2775.9131725815  -0.000217047461 0.00366081  0.00003724  0.0006144 0.0000
187  -2775.9132928163  -0.000120234795 0.00899780  0.00006031  0.0005287 0.0000
188  -2775.9134159768  -0.000123160564 0.00555783  0.00004238  0.0005135 0.0000
189  -2775.9135064012  -0.000090424352 0.00489230  0.00004385  0.0004393 0.0000
190  -2775.9135808368  -0.000074435612 0.00374421  0.00003362  0.0003831 0.0000
191  -2775.9136303584  -0.000049521547 0.00475295  0.00004110  0.0003448 0.0000
192  -2775.9136733822  -0.000043023880 0.00381403  0.00003359  0.0003033 0.0000
193  -2775.9137026088  -0.000029226549 0.00316584  0.00002739  0.0002627 0.0000
194  -2775.9137221400  -0.000019531215 0.00123322  0.00001243  0.0002181 0.0000
195  -2775.9137344493  -0.000012309257 0.00094665  0.00000955  0.0001778 0.0000
196  -2775.9137417028  -0.000007253535 0.00084591  0.00001005  0.0001457 0.0000
               *** Restarting incremental Fock matrix formation ***
                                   *** Resetting DIIS ***
197  -2775.9137477168  -0.000006014030 0.00056539  0.00000496  0.0001155 0.0000
198  -2775.9137503700  -0.000002653152 0.00059912  0.00000324  0.0000908 0.0000
199  -2775.9137519117  -0.000001541708 0.00053647  0.00000344  0.0000774 0.0000
200  -2775.9137530563  -0.000001144595 0.00034352  0.00000303  0.0000651 0.0000
201  -2775.9137539540  -0.000000897769 0.00025598  0.00000286  0.0000542 0.0000
202  -2775.9137547201  -0.000000766013 0.00025294  0.00000264  0.0000460 0.0000
203  -2775.9137553367  -0.000000616669 0.00024293  0.00000253  0.0000407 0.0000
204  -2775.9137558924  -0.000000555644 0.00024704  0.00000269  0.0000387 0.0000
                 **** Energy Check signals convergence ****

               *****************************************************
               *                     SUCCESS                       *
               *           SCF CONVERGED AFTER 205 CYCLES          *
               *****************************************************

Old exchange energy                            =   -102.884033244 Eh
New exchange energy                            =   -102.883773291 Eh
Exchange energy change after final integration =      0.000259953 Eh
Total energy after final integration           =  -2775.913496472 Eh
Final COS-X integration done in                =    37.168 sec

----------------
TOTAL SCF ENERGY
----------------

Total Energy       :        -2775.91349647 Eh          -75536.44644 eV

Components:
Nuclear Repulsion  :         4246.50202425 Eh          115553.19469 eV
Electronic Energy  :        -7022.41552072 Eh         -191089.64113 eV
One Electron Energy:       -12938.55904873 Eh         -352076.09092 eV
Two Electron Energy:         5916.14352800 Eh          160986.44979 eV
Max COSX asymmetry :            0.00000579 Eh               0.00016 eV

Virial components:
Potential Energy   :        -4476.91842911 Eh         -121823.14383 eV
Kinetic Energy     :         1701.00493264 Eh           46286.69739 eV
Virial Ratio       :            2.63192560


DFT components:
N(Alpha)           :      128.999991565927 electrons
N(Beta)            :      123.999992602711 electrons
N(Total)           :      252.999984168638 electrons
E(X)               :      -92.650319199399 Eh       
E(C)               :       -6.962927526552 Eh       
E(XC)              :      -99.613246725951 Eh       
DFET-embed. en.    :        0.000000000000 Eh       

---------------
SCF CONVERGENCE
---------------

  Last Energy change         ...   -5.3292e-07  Tolerance :   1.0000e-06
  Last MAX-Density change    ...    0.0000e+00  Tolerance :   1.0000e-05
  Last RMS-Density change    ...    0.0000e+00  Tolerance :   1.0000e-06
  Last DIIS Error            ...    3.6016e-05  Tolerance :   1.0000e-06

             **** THE GBW FILE WAS UPDATED (b2plyp.gbw) ****
             **** DENSITY b2plyp.scfp WAS UPDATED ****
             **** ENERGY FILE WAS UPDATED (b2plyp.en.tmp) ****
----------------------
UHF SPIN CONTAMINATION
----------------------

Warning: in a DFT calculation there is little theoretical justification to 
         calculate <S**2> as in Hartree-Fock theory. We will do it anyways
         but you should keep in mind that the values have only limited relevance

Expectation value of <S**2>     :     9.047801
Ideal value S*(S+1) for S=2.5   :     8.750000
Deviation                       :     0.297801

             **** THE GBW FILE WAS UPDATED (b2plyp.gbw) ****
             **** DENSITY b2plyp.scfp WAS UPDATED ****
----------------
ORBITAL ENERGIES
----------------
                 SPIN UP ORBITALS
  NO   OCC          E(Eh)            E(eV) 
   0   1.0000    -237.616010     -6465.8603 
   1   1.0000     -28.119547      -765.1718 
   2   1.0000     -24.037868      -654.1036 
   3   1.0000     -24.037140      -654.0838 
   4   1.0000     -24.036339      -654.0620 
   5   1.0000      -4.413552      -120.0989 
   6   1.0000      -4.400514      -119.7441 
   7   1.0000      -4.399965      -119.7291 
   8   1.0000      -4.397547      -119.6633 
   9   1.0000      -4.395765      -119.6149 
  10   1.0000      -4.395110      -119.5970 
  11   1.0000      -4.395058      -119.5956 
  12   1.0000      -4.393585      -119.5555 
  13   1.0000      -4.393425      -119.5512 
  14   1.0000      -4.392437      -119.5243 
  15   1.0000      -4.390127      -119.4614 
  16   1.0000      -4.389425      -119.4423 
  17   1.0000      -3.599213       -97.9396 
  18   1.0000      -2.535511       -68.9948 
  19   1.0000      -2.531919       -68.8970 
  20   1.0000      -2.526618       -68.7528 
  21   1.0000      -2.520894       -68.5970 
  22   1.0000      -2.520035       -68.5737 
  23   1.0000      -2.519557       -68.5606 
  24   1.0000      -2.518813       -68.5404 
  25   1.0000      -2.518728       -68.5381 
  26   1.0000      -2.517779       -68.5122 
  27   1.0000      -2.516578       -68.4796 
  28   1.0000      -2.515822       -68.4590 
  29   1.0000      -2.515119       -68.4399 
  30   1.0000      -2.514801       -68.4312 
  31   1.0000      -2.513507       -68.3960 
  32   1.0000      -2.513133       -68.3858 
  33   1.0000      -2.512897       -68.3794 
  34   1.0000      -2.512595       -68.3712 
  35   1.0000      -2.512446       -68.3671 
  36   1.0000      -2.512424       -68.3665 
  37   1.0000      -2.511837       -68.3506 
  38   1.0000      -2.511337       -68.3370 
  39   1.0000      -2.510632       -68.3178 
  40   1.0000      -2.510130       -68.3041 
  41   1.0000      -2.509383       -68.2838 
  42   1.0000      -2.509257       -68.2804 
  43   1.0000      -2.508601       -68.2625 
  44   1.0000      -2.508504       -68.2599 
  45   1.0000      -2.508275       -68.2536 
  46   1.0000      -2.507757       -68.2395 
  47   1.0000      -2.507700       -68.2380 
  48   1.0000      -2.506432       -68.2035 
  49   1.0000      -2.505538       -68.1791 
  50   1.0000      -2.505417       -68.1759 
  51   1.0000      -2.505169       -68.1691 
  52   1.0000      -2.502532       -68.0974 
  53   1.0000      -2.500836       -68.0512 
  54   1.0000      -2.402171       -65.3664 
  55   1.0000      -2.400031       -65.3082 
  56   1.0000      -2.399804       -65.3020 
  57   1.0000      -0.514447       -13.9988 
  58   1.0000      -0.513806       -13.9814 
  59   1.0000      -0.508684       -13.8420 
  60   1.0000      -0.508287       -13.8312 
  61   1.0000      -0.503194       -13.6926 
  62   1.0000      -0.485056       -13.1990 
  63   1.0000      -0.483632       -13.1603 
  64   1.0000      -0.466722       -12.7001 
  65   1.0000      -0.460276       -12.5248 
  66   1.0000      -0.458833       -12.4855 
  67   1.0000      -0.455439       -12.3931 
  68   1.0000      -0.449237       -12.2244 
  69   1.0000      -0.447781       -12.1848 
  70   1.0000      -0.447356       -12.1732 
  71   1.0000      -0.444192       -12.0871 
  72   1.0000      -0.444022       -12.0824 
  73   1.0000      -0.441182       -12.0052 
  74   1.0000      -0.437586       -11.9073 
  75   1.0000      -0.436128       -11.8676 
  76   1.0000      -0.433200       -11.7880 
  77   1.0000      -0.429554       -11.6888 
  78   1.0000      -0.422347       -11.4927 
  79   1.0000      -0.419377       -11.4118 
  80   1.0000      -0.416526       -11.3342 
  81   1.0000      -0.414915       -11.2904 
  82   1.0000      -0.411218       -11.1898 
  83   1.0000      -0.409597       -11.1457 
  84   1.0000      -0.408999       -11.1294 
  85   1.0000      -0.406889       -11.0720 
  86   1.0000      -0.405306       -11.0289 
  87   1.0000      -0.404320       -11.0021 
  88   1.0000      -0.402104       -10.9418 
  89   1.0000      -0.396949       -10.8015 
  90   1.0000      -0.395802       -10.7703 
  91   1.0000      -0.391593       -10.6558 
  92   1.0000      -0.389015       -10.5856 
  93   1.0000      -0.383068       -10.4238 
  94   1.0000      -0.382037       -10.3958 
  95   1.0000      -0.379701       -10.3322 
  96   1.0000      -0.376486       -10.2447 
  97   1.0000      -0.374806       -10.1990 
  98   1.0000      -0.374715       -10.1965 
  99   1.0000      -0.372600       -10.1390 
 100   1.0000      -0.371577       -10.1111 
 101   1.0000      -0.370830       -10.0908 
 102   1.0000      -0.368724       -10.0335 
 103   1.0000      -0.367883       -10.0106 
 104   1.0000      -0.366594        -9.9755 
 105   1.0000      -0.363961        -9.9039 
 106   1.0000      -0.362970        -9.8769 
 107   1.0000      -0.362226        -9.8567 
 108   1.0000      -0.359792        -9.7904 
 109   1.0000      -0.357460        -9.7270 
 110   1.0000      -0.355249        -9.6668 
 111   1.0000      -0.354379        -9.6431 
 112   1.0000      -0.353135        -9.6093 
 113   1.0000      -0.350060        -9.5256 
 114   1.0000      -0.347284        -9.4501 
 115   1.0000      -0.347002        -9.4424 
 116   1.0000      -0.345942        -9.4136 
 117   1.0000      -0.342955        -9.3323 
 118   1.0000      -0.338968        -9.2238 
 119   1.0000      -0.333592        -9.0775 
 120   1.0000      -0.328977        -8.9519 
 121   1.0000      -0.323857        -8.8126 
 122   1.0000      -0.323659        -8.8072 
 123   1.0000      -0.322559        -8.7773 
 124   1.0000      -0.316204        -8.6043 
 125   1.0000      -0.263925        -7.1818 
 126   1.0000      -0.240166        -6.5353 
 127   1.0000      -0.235801        -6.4165 
 128   1.0000      -0.196289        -5.3413 
 129   0.0000      -0.116330        -3.1655 
 130   0.0000      -0.083431        -2.2703 
 131   0.0000      -0.071192        -1.9372 
 132   0.0000      -0.070023        -1.9054 
 133   0.0000      -0.043669        -1.1883 
 134   0.0000      -0.041034        -1.1166 
 135   0.0000      -0.019808        -0.5390 
 136   0.0000      -0.008033        -0.2186 
 137   0.0000      -0.007350        -0.2000 
 138   0.0000       0.002039         0.0555 
 139   0.0000       0.013708         0.3730 
 140   0.0000       0.015208         0.4138 
 141   0.0000       0.023186         0.6309 
 142   0.0000       0.028988         0.7888 
 143   0.0000       0.052754         1.4355 
 144   0.0000       0.053701         1.4613 
 145   0.0000       0.069377         1.8878 
 146   0.0000       0.072065         1.9610 
 147   0.0000       0.077993         2.1223 
 148   0.0000       0.079393         2.1604 
 149   0.0000       0.082073         2.2333 
 150   0.0000       0.086144         2.3441 
 151   0.0000       0.089991         2.4488 
 152   0.0000       0.091520         2.4904 
 153   0.0000       0.096450         2.6245 
 154   0.0000       0.098925         2.6919 
 155   0.0000       0.110568         3.0087 
 156   0.0000       0.113289         3.0827 
 157   0.0000       0.115180         3.1342 
 158   0.0000       0.121591         3.3086 
 159   0.0000       0.131624         3.5817 
 160   0.0000       0.136546         3.7156 
 161   0.0000       0.136937         3.7262 
 162   0.0000       0.140559         3.8248 
 163   0.0000       0.148726         4.0470 
 164   0.0000       0.152492         4.1495 
 165   0.0000       0.158652         4.3171 
 166   0.0000       0.164076         4.4647 
 167   0.0000       0.176773         4.8102 
 168   0.0000       0.196187         5.3385 
 169   0.0000       0.200120         5.4455 
 170   0.0000       0.203536         5.5385 
 171   0.0000       0.207327         5.6417 
 172   0.0000       0.218848         5.9552 
 173   0.0000       0.221394         6.0244 
 174   0.0000       0.223530         6.0826 
 175   0.0000       0.235537         6.4093 
 176   0.0000       0.239539         6.5182 
 177   0.0000       0.241734         6.5779 
 178   0.0000       0.251407         6.8411 
 179   0.0000       0.269223         7.3259 
 180   0.0000       0.273541         7.4434 
 181   0.0000       0.283385         7.7113 
 182   0.0000       0.287017         7.8101 
 183   0.0000       0.293027         7.9737 
 184   0.0000       0.302494         8.2313 
 185   0.0000       0.308921         8.4062 
 186   0.0000       0.318200         8.6587 
 187   0.0000       0.329574         8.9682 
 188   0.0000       0.331292         9.0149 
 189   0.0000       0.333049         9.0627 
 190   0.0000       0.337660         9.1882 
 191   0.0000       0.343646         9.3511 
 192   0.0000       0.352913         9.6033 
 193   0.0000       0.361833         9.8460 
 194   0.0000       0.362588         9.8665 
 195   0.0000       0.366499         9.9730 
 196   0.0000       0.373033        10.1507 
 197   0.0000       0.373669        10.1681 
 198   0.0000       0.378143        10.2898 
 199   0.0000       0.382715        10.4142 
 200   0.0000       0.384103        10.4520 
 201   0.0000       0.396422        10.7872 
 202   0.0000       0.399619        10.8742 
 203   0.0000       0.400490        10.8979 
 204   0.0000       0.405055        11.0221 
 205   0.0000       0.408676        11.1207 
 206   0.0000       0.415329        11.3017 
 207   0.0000       0.423677        11.5288 
 208   0.0000       0.424788        11.5591 
 209   0.0000       0.433622        11.7995 
 210   0.0000       0.437457        11.9038 
 211   0.0000       0.445377        12.1193 
 212   0.0000       0.452143        12.3034 
 213   0.0000       0.453474        12.3396 
 214   0.0000       0.461996        12.5715 
 215   0.0000       0.463350        12.6084 
 216   0.0000       0.467431        12.7194 
 217   0.0000       0.476130        12.9561 
 218   0.0000       0.476792        12.9742 
 219   0.0000       0.480175        13.0662 
 220   0.0000       0.487945        13.2777 
 221   0.0000       0.495709        13.4889 
 222   0.0000       0.497866        13.5476 
 223   0.0000       0.498950        13.5771 
 224   0.0000       0.501465        13.6456 
 225   0.0000       0.505726        13.7615 
 226   0.0000       0.516515        14.0551 
 227   0.0000       0.518308        14.1039 
 228   0.0000       0.526611        14.3298 
 229   0.0000       0.529824        14.4172 
 230   0.0000       0.539400        14.6778 
 231   0.0000       0.548227        14.9180 
 232   0.0000       0.549221        14.9451 
 233   0.0000       0.559373        15.2213 
 234   0.0000       0.564270        15.3546 
 235   0.0000       0.566877        15.4255 
 236   0.0000       0.573716        15.6116 
 237   0.0000       0.576027        15.6745 
 238   0.0000       0.576979        15.7004 
 239   0.0000       0.581189        15.8150 
 240   0.0000       0.600976        16.3534 
 241   0.0000       0.605721        16.4825 
 242   0.0000       0.607720        16.5369 
 243   0.0000       0.614625        16.7248 
 244   0.0000       0.615048        16.7363 
 245   0.0000       0.623005        16.9528 
 246   0.0000       0.625670        17.0253 
 247   0.0000       0.626920        17.0594 
 248   0.0000       0.635763        17.3000 
 249   0.0000       0.649165        17.6647 
 250   0.0000       0.665889        18.1198 
 251   0.0000       0.667360        18.1598 
 252   0.0000       0.692659        18.8482 
 253   0.0000       0.728670        19.8281 
 254   0.0000       0.764235        20.7959 
 255   0.0000       0.767580        20.8869 
 256   0.0000       0.807865        21.9831 
 257   0.0000       0.812385        22.1061 
 258   0.0000       0.822288        22.3756 
 259   0.0000       0.827169        22.5084 
 260   0.0000       0.855311        23.2742 
 261   0.0000       0.881254        23.9802 
 262   0.0000       0.883784        24.0490 
 263   0.0000       0.888740        24.1838 
 264   0.0000       0.899255        24.4700 
 265   0.0000       0.909217        24.7411 
 266   0.0000       0.914601        24.8876 
 267   0.0000       0.923389        25.1267 
 268   0.0000       0.927241        25.2315 
 269   0.0000       0.945074        25.7168 
 270   0.0000       0.949768        25.8445 
 271   0.0000       0.959557        26.1109 
 272   0.0000       0.961452        26.1624 
 273   0.0000       0.976014        26.5587 
 274   0.0000       0.989051        26.9135 
 275   0.0000       0.993704        27.0400 
 276   0.0000       1.002039        27.2669 
 277   0.0000       1.007122        27.4052 
 278   0.0000       1.026383        27.9293 
 279   0.0000       1.037976        28.2448 
 280   0.0000       1.041528        28.3414 
 281   0.0000       1.044728        28.4285 
 282   0.0000       1.055798        28.7297 
 283   0.0000       1.072187        29.1757 
 284   0.0000       1.099135        29.9090 
 285   0.0000       1.099956        29.9313 
 286   0.0000       1.126479        30.6531 
 287   0.0000       1.186703        32.2918 
 288   0.0000       1.203660        32.7533 
 289   0.0000       1.222082        33.2545 
 290   0.0000       1.222271        33.2597 
 291   0.0000       1.272489        34.6262 
 292   0.0000       1.309640        35.6371 
 293   0.0000       1.365610        37.1601 
 294   0.0000       1.373512        37.3752 
 295   0.0000       1.402467        38.1631 
 296   0.0000       1.417948        38.5843 
 297   0.0000       1.421096        38.6700 
 298   0.0000       1.463896        39.8346 
 299   0.0000       1.467134        39.9228 
 300   0.0000       1.495937        40.7065 
 301   0.0000       1.497859        40.7588 
 302   0.0000       1.498466        40.7753 
 303   0.0000       1.504314        40.9345 
 304   0.0000       1.508892        41.0590 
 305   0.0000       1.528031        41.5798 
 306   0.0000       1.528830        41.6016 
 307   0.0000       1.544577        42.0301 
 308   0.0000       1.549632        42.1676 
 309   0.0000       1.556538        42.3555 
 310   0.0000       1.563204        42.5369 
 311   0.0000       1.569551        42.7096 
 312   0.0000       1.575700        42.8770 
 313   0.0000       1.580069        42.9959 
 314   0.0000       1.581564        43.0365 
 315   0.0000       1.583643        43.0931 
 316   0.0000       1.590489        43.2794 
 317   0.0000       1.591146        43.2973 
 318   0.0000       1.598315        43.4924 
 319   0.0000       1.599163        43.5154 
 320   0.0000       1.607890        43.7529 
 321   0.0000       1.608531        43.7704 
 322   0.0000       1.618231        44.0343 
 323   0.0000       1.620213        44.0882 
 324   0.0000       1.623742        44.1843 
 325   0.0000       1.629863        44.3508 
 326   0.0000       1.634571        44.4789 
 327   0.0000       1.640838        44.6495 
 328   0.0000       1.641582        44.6697 
 329   0.0000       1.647287        44.8250 
 330   0.0000       1.651620        44.9429 
 331   0.0000       1.657190        45.0944 
 332   0.0000       1.658069        45.1184 
 333   0.0000       1.661935        45.2236 
 334   0.0000       1.662893        45.2496 
 335   0.0000       1.667624        45.3784 
 336   0.0000       1.668675        45.4069 
 337   0.0000       1.675202        45.5846 
 338   0.0000       1.676224        45.6124 
 339   0.0000       1.676809        45.6283 
 340   0.0000       1.680899        45.7396 
 341   0.0000       1.681133        45.7460 
 342   0.0000       1.683223        45.8028 
 343   0.0000       1.684558        45.8392 
 344   0.0000       1.686306        45.8867 
 345   0.0000       1.686601        45.8947 
 346   0.0000       1.689197        45.9654 
 347   0.0000       1.689493        45.9734 
 348   0.0000       1.694078        46.0982 
 349   0.0000       1.694607        46.1126 
 350   0.0000       1.695865        46.1468 
 351   0.0000       1.697971        46.2041 
 352   0.0000       1.698128        46.2084 
 353   0.0000       1.699877        46.2560 
 354   0.0000       1.701328        46.2955 
 355   0.0000       1.704783        46.3895 
 356   0.0000       1.705275        46.4029 
 357   0.0000       1.706605        46.4391 
 358   0.0000       1.707198        46.4552 
 359   0.0000       1.709121        46.5075 
 360   0.0000       1.713556        46.6282 
 361   0.0000       1.714193        46.6456 
 362   0.0000       1.715786        46.6889 
 363   0.0000       1.716935        46.7202 
 364   0.0000       1.719012        46.7767 
 365   0.0000       1.720555        46.8187 
 366   0.0000       1.720937        46.8291 
 367   0.0000       1.722217        46.8639 
 368   0.0000       1.726803        46.9887 
 369   0.0000       1.730056        47.0772 
 370   0.0000       1.730252        47.0825 
 371   0.0000       1.733125        47.1607 
 372   0.0000       1.734628        47.2016 
 373   0.0000       1.735882        47.2357 
 374   0.0000       1.738551        47.3084 
 375   0.0000       1.739171        47.3252 
 376   0.0000       1.742535        47.4168 
 377   0.0000       1.745152        47.4880 
 378   0.0000       1.746386        47.5216 
 379   0.0000       1.749630        47.6098 
 380   0.0000       1.750854        47.6432 
 381   0.0000       1.756502        47.7969 
 382   0.0000       1.757230        47.8167 
 383   0.0000       1.761447        47.9314 
 384   0.0000       1.761619        47.9361 
 385   0.0000       1.762438        47.9584 
 386   0.0000       1.763589        47.9897 
 387   0.0000       1.766333        48.0644 
 388   0.0000       1.768703        48.1289 
 389   0.0000       1.772681        48.2371 
 390   0.0000       1.774476        48.2860 
 391   0.0000       1.777471        48.3674 
 392   0.0000       1.780458        48.4487 
 393   0.0000       1.783072        48.5199 
 394   0.0000       1.784047        48.5464 
 395   0.0000       1.793297        48.7981 
 396   0.0000       1.793517        48.8041 
 397   0.0000       1.796223        48.8777 
 398   0.0000       1.800208        48.9861 
 399   0.0000       1.800474        48.9934 
 400   0.0000       1.806922        49.1688 
 401   0.0000       1.808238        49.2047 
 402   0.0000       1.815889        49.4128 
 403   0.0000       1.819141        49.5014 
 404   0.0000       1.820973        49.5512 
 405   0.0000       1.823202        49.6118 
 406   0.0000       1.831820        49.8464 
 407   0.0000       1.834866        49.9292 
 408   0.0000       1.839192        50.0470 
 409   0.0000       1.847733        50.2794 
 410   0.0000       1.851117        50.3714 
 411   0.0000       1.857746        50.5518 
 412   0.0000       1.858207        50.5644 
 413   0.0000       1.859421        50.5974 
 414   0.0000       1.896488        51.6061 
 415   0.0000       1.912851        52.0513 
 416   0.0000       1.915085        52.1121 
 417   0.0000       1.925077        52.3840 
 418   0.0000       1.931288        52.5530 
 419   0.0000       1.946446        52.9655 
 420   0.0000       1.951663        53.1074 
 421   0.0000       1.973772        53.7091 
 422   0.0000       1.974332        53.7243 
 423   0.0000       1.993132        54.2359 
 424   0.0000       2.001615        54.4667 
 425   0.0000       2.014112        54.8068 
 426   0.0000       2.020705        54.9862 
 427   0.0000       2.021136        54.9979 
 428   0.0000       2.026122        55.1336 
 429   0.0000       2.064035        56.1653 
 430   0.0000       2.066655        56.2366 
 431   0.0000       2.088736        56.8374 
 432   0.0000       2.116576        57.5950 
 433   0.0000       2.131282        57.9951 
 434   0.0000       2.143116        58.3171 
 435   0.0000       2.160522        58.7908 
 436   0.0000       2.171137        59.0796 
 437   0.0000       2.187459        59.5238 
 438   0.0000       2.360757        64.2395 
 439   0.0000       2.441196        66.4283 
 440   0.0000       2.461423        66.9787 
 441   0.0000       2.492802        67.8326 
 442   0.0000       2.516368        68.4739 
 443   0.0000       2.548323        69.3434 
 444   0.0000       2.604999        70.8856 
 445   0.0000       2.619100        71.2693 
 446   0.0000       2.675715        72.8099 
 447   0.0000       2.717667        73.9515 
 448   0.0000       2.732768        74.3624 
 449   0.0000       2.746852        74.7456 
 450   0.0000       2.785285        75.7915 
 451   0.0000       2.789615        75.9093 
 452   0.0000       3.235919        88.0538 
 453   0.0000       3.441625        93.6514 
 454   0.0000       3.448600        93.8412 
 455   0.0000       3.451782        93.9278 
 456   0.0000       3.455496        94.0288 
 457   0.0000       3.464532        94.2747 
 458   0.0000       3.472450        94.4902 
 459   0.0000       3.484184        94.8095 
 460   0.0000       3.508377        95.4678 
 461   0.0000       3.606031        98.1251 
 462   0.0000       3.698221       100.6337 
 463   0.0000       3.699363       100.6648 
 464   0.0000       3.834109       104.3314 
 465   0.0000      23.468415       638.6080 
 466   0.0000      23.808322       647.8574 
 467   0.0000      23.896786       650.2646 
 468   0.0000      24.129080       656.5856 
 469   0.0000      24.169838       657.6947 
 470   0.0000      24.334446       662.1739 
 471   0.0000      24.735965       673.0998 
 472   0.0000      24.850489       676.2162 
 473   0.0000      25.272776       687.7072 
 474   0.0000      25.448420       692.4867 
 475   0.0000      25.673592       698.6140 
 476   0.0000      25.719948       699.8754 
 477   0.0000      25.843199       703.2292 
 478   0.0000      25.851017       703.4419 
 479   0.0000      26.100241       710.2237 
 480   0.0000      26.113855       710.5941 
 481   0.0000      26.215096       713.3490 
 482   0.0000      26.346385       716.9216 
 483   0.0000      26.411643       718.6973 
 484   0.0000      26.440361       719.4788 
 485   0.0000      26.504239       721.2170 
 486   0.0000      26.636537       724.8170 
 487   0.0000      26.738639       727.5954 
 488   0.0000      26.740277       727.6399 
 489   0.0000      26.883435       731.5355 
 490   0.0000      26.942058       733.1307 
 491   0.0000      27.006030       734.8714 
 492   0.0000      27.063829       736.4442 
 493   0.0000      27.415783       746.0214 
 494   0.0000      27.610033       751.3072 
 495   0.0000      27.853004       757.9188 
 496   0.0000      27.935220       760.1560 
 497   0.0000      28.156589       766.1797 
 498   0.0000      28.434089       773.7309 
 499   0.0000      28.640285       779.3418 
 500   0.0000      29.341003       798.4093 
 501   0.0000      44.095086      1199.8883 
 502   0.0000      44.159175      1201.6322 
 503   0.0000      44.170954      1201.9528 
 504   0.0000      44.204171      1202.8566 
 505   0.0000      44.272176      1204.7072 
 506   0.0000      44.276191      1204.8164 
 507   0.0000      44.358089      1207.0450 
 508   0.0000      44.363159      1207.1829 
 509   0.0000      44.374421      1207.4894 
[...]
      dyz     :    -0.004244
      dx2y2   :    -0.007292
      dxy     :     0.000304
      f0      :    -0.000004  f :    -0.000022
      f+1     :     0.000004
      f-1     :     0.000003
      f+2     :    -0.000019
      f-2     :    -0.000007
      f+3     :     0.000007
      f-3     :    -0.000006
  1 Aus       :    -0.092915  s :    -0.092915
      pz      :    -0.026271  p :    -0.044269
      px      :     0.000089
      py      :    -0.018088
      dz2     :     0.004471  d :    -0.003978
      dxz     :    -0.000033
      dyz     :     0.005731
      dx2y2   :    -0.001604
      dxy     :    -0.012543
      f0      :     0.000012  f :     0.000114
      f+1     :    -0.000032
      f-1     :     0.000127
      f+2     :     0.000051
      f-2     :     0.000012
      f+3     :    -0.000031
      f-3     :    -0.000025
  2 Aus       :    -0.052397  s :    -0.052397
      pz      :    -0.013225  p :    -0.037470
      px      :    -0.004975
      py      :    -0.019270
      dz2     :    -0.006575  d :     0.000649
      dxz     :     0.002910
      dyz     :    -0.000928
      dx2y2   :     0.003983
      dxy     :     0.001259
      f0      :     0.000017  f :     0.000192
      f+1     :     0.000005
      f-1     :     0.000004
      f+2     :     0.000044
      f-2     :    -0.000001
      f+3     :     0.000087
      f-3     :     0.000035
  3 Aus       :    -0.052391  s :    -0.052391
      pz      :    -0.023125  p :    -0.037514
      px      :    -0.016245
      py      :     0.001857
      dz2     :     0.002651  d :     0.000413
      dxz     :     0.005220
      dyz     :    -0.003400
      dx2y2   :     0.002332
      dxy     :    -0.006390
      f0      :     0.000015  f :     0.000191
      f+1     :     0.000039
      f-1     :     0.000008
      f+2     :     0.000024
      f-2     :     0.000103
      f+3     :     0.000001
      f-3     :     0.000000
  4 Aus       :    -0.137624  s :    -0.137624
      pz      :    -0.000995  p :    -0.052765
      px      :    -0.020593
      py      :    -0.031176
      dz2     :     0.003188  d :     0.015564
      dxz     :     0.003422
      dyz     :     0.002644
      dx2y2   :     0.002218
      dxy     :     0.004092
      f0      :     0.000025  f :     0.000229
      f+1     :     0.000018
      f-1     :     0.000037
      f+2     :     0.000021
      f-2     :     0.000052
      f+3     :     0.000049
      f-3     :     0.000027
  5 Aus       :    -0.137854  s :    -0.137854
      pz      :    -0.021184  p :    -0.052737
      px      :    -0.020612
      py      :    -0.010941
      dz2     :     0.011828  d :     0.015480
      dxz     :     0.002257
      dyz     :     0.004744
      dx2y2   :    -0.000052
      dxy     :    -0.003297
      f0      :     0.000170  f :     0.000228
      f+1     :     0.000059
      f-1     :     0.000079
      f+2     :    -0.000012
      f-2     :    -0.000036
      f+3     :    -0.000008
      f-3     :    -0.000024
  6 Aus       :    -0.093075  s :    -0.093075
      pz      :    -0.003604  p :    -0.044495
      px      :    -0.032095
      py      :    -0.008796
      dz2     :    -0.011561  d :    -0.004039
      dxz     :    -0.004691
      dyz     :     0.004447
      dx2y2   :     0.007780
      dxy     :    -0.000013
      f0      :     0.000011  f :     0.000113
      f+1     :     0.000002
      f-1     :    -0.000012
      f+2     :     0.000023
      f-2     :    -0.000016
      f+3     :     0.000045
      f-3     :     0.000061
  7 Aus       :    -0.094310  s :    -0.094310
      pz      :    -0.021572  p :    -0.062002
      px      :    -0.027432
      py      :    -0.012997
      dz2     :    -0.003806  d :    -0.007215
      dxz     :     0.001051
      dyz     :     0.004973
      dx2y2   :    -0.001753
      dxy     :    -0.007680
      f0      :     0.000026  f :     0.000212
      f+1     :     0.000110
      f-1     :     0.000072
      f+2     :     0.000028
      f-2     :    -0.000014
      f+3     :    -0.000009
      f-3     :    -0.000002
  8 Aus       :    -0.032616  s :    -0.032616
      pz      :    -0.000913  p :    -0.062754
      px      :    -0.046140
      py      :    -0.015701
      dz2     :     0.000006  d :    -0.030508
      dxz     :    -0.003146
      dyz     :    -0.002122
      dx2y2   :    -0.010195
      dxy     :    -0.015050
      f0      :    -0.000005  f :    -0.000126
      f+1     :    -0.000007
      f-1     :    -0.000001
      f+2     :    -0.000001
      f-2     :    -0.000038
      f+3     :    -0.000010
      f-3     :    -0.000064
  9 Aus       :    -0.040661  s :    -0.040661
      pz      :     0.000874  p :    -0.012749
      px      :    -0.003587
      py      :    -0.010036
      dz2     :    -0.005265  d :     0.004544
      dxz     :     0.002847
      dyz     :    -0.002275
      dx2y2   :     0.004827
      dxy     :     0.004411
      f0      :    -0.000055  f :     0.000066
      f+1     :     0.000048
      f-1     :     0.000002
      f+2     :    -0.000006
      f-2     :    -0.000008
      f+3     :     0.000035
      f-3     :     0.000049
 10 Aus       :    -0.032280  s :    -0.032280
      pz      :    -0.045043  p :    -0.062602
      px      :    -0.016136
      py      :    -0.001424
      dz2     :    -0.018069  d :    -0.030335
      dxz     :    -0.000378
      dyz     :    -0.004735
      dx2y2   :    -0.005675
      dxy     :    -0.001477
      f0      :    -0.000008  f :    -0.000126
      f+1     :    -0.000031
      f-1     :    -0.000021
      f+2     :    -0.000005
      f-2     :    -0.000000
      f+3     :     0.000001
      f-3     :    -0.000062
 11 Aus       :    -0.094370  s :    -0.094370
      pz      :    -0.024032  p :    -0.062181
      px      :     0.000848
      py      :    -0.038997
      dz2     :     0.000862  d :    -0.007369
      dxz     :     0.003791
      dyz     :    -0.018749
      dx2y2   :     0.006105
      dxy     :     0.000622
      f0      :     0.000014  f :     0.000211
      f+1     :     0.000032
      f-1     :     0.000000
      f+2     :     0.000039
      f-2     :    -0.000003
      f+3     :     0.000047
      f-3     :     0.000081
 12 Mns       :     0.026235  s :     0.026235
      pz      :     0.020572  p :     0.048537
      px      :     0.012415
      py      :     0.015551
      dz2     :     0.814464  d :     4.394159
      dxz     :     0.891209
      dyz     :     0.924426
      dx2y2   :     0.880172
      dxy     :     0.883888
      f0      :    -0.000002  f :     0.000010
      f+1     :     0.000001
      f-1     :     0.000002
      f+2     :     0.000003
      f-2     :     0.000001
      f+3     :     0.000002
      f-3     :     0.000003


                      *****************************
                      * MAYER POPULATION ANALYSIS *
                      *****************************

  NA   - Mulliken gross atomic population
  ZA   - Total nuclear charge
  QA   - Mulliken gross atomic charge
  VA   - Mayer's total valence
  BVA  - Mayer's bonded valence
  FA   - Mayer's free valence

  ATOM       NA         ZA         QA         VA         BVA        FA
  0 Au    18.7483    19.0000     0.2517     1.2921     1.2884     0.0038
  1 Au    18.9192    19.0000     0.0808     1.5800     1.5378     0.0422
  2 Au    18.8395    19.0000     0.1605     1.5591     1.5440     0.0151
  3 Au    18.8405    19.0000     0.1595     1.5616     1.5464     0.0152
  4 Au    18.9196    19.0000     0.0804     1.5946     1.5003     0.0943
  5 Au    18.9172    19.0000     0.0828     1.5906     1.4960     0.0945
  6 Au    18.9184    19.0000     0.0816     1.5803     1.5379     0.0424
  7 Au    18.7863    19.0000     0.2137     1.5708     1.5215     0.0493
  8 Au    18.7056    19.0000     0.2944     1.2673     1.2422     0.0251
  9 Au    19.2352    19.0000    -0.2352     1.9139     1.8862     0.0277
 10 Au    18.7048    19.0000     0.2952     1.2660     1.2411     0.0249
 11 Au    18.7871    19.0000     0.2129     1.5727     1.5230     0.0497
 12 Mn    26.6783    25.0000    -1.6783     8.7390     4.2500     4.4890

  Mayer bond orders larger than 0.100000
B(  0-Au,  1-Au) :   0.2620 B(  0-Au,  2-Au) :   0.2184 B(  0-Au,  3-Au) :   0.2188 
B(  0-Au,  6-Au) :   0.2619 B(  1-Au,  2-Au) :   0.1248 B(  1-Au,  6-Au) :   0.1681 
B(  1-Au,  7-Au) :   0.3155 B(  1-Au, 12-Mn) :   0.4281 B(  2-Au,  3-Au) :   0.1681 
B(  2-Au,  4-Au) :   0.3339 B(  2-Au, 12-Mn) :   0.4838 B(  3-Au,  5-Au) :   0.3335 
B(  3-Au,  6-Au) :   0.1261 B(  3-Au, 12-Mn) :   0.4846 B(  4-Au,  7-Au) :   0.1086 
B(  4-Au,  8-Au) :   0.3509 B(  4-Au, 12-Mn) :   0.4703 B(  5-Au, 10-Au) :   0.3486 
B(  5-Au, 11-Au) :   0.1094 B(  5-Au, 12-Mn) :   0.4684 B(  6-Au, 11-Au) :   0.3158 
B(  6-Au, 12-Mn) :   0.4273 B(  7-Au,  8-Au) :   0.2044 B(  7-Au,  9-Au) :   0.2460 
B(  7-Au, 12-Mn) :   0.4732 B(  8-Au,  9-Au) :   0.4168 B(  9-Au, 10-Au) :   0.4171 
B(  9-Au, 11-Au) :   0.2458 B(  9-Au, 12-Mn) :   0.3032 B( 10-Au, 11-Au) :   0.2057 
B( 11-Au, 12-Mn) :   0.4727 

-------
TIMINGS
-------

Total SCF time: 0 days 0 hours 8 min 0 sec 

Total time                  ....     480.507 sec
Sum of individual times     ....     478.202 sec  ( 99.5%)

Fock matrix formation       ....     462.180 sec  ( 96.2%)
  Split-RI-J                ....      30.467 sec  (  6.6% of F)
  Chain of spheres X        ....     381.748 sec  ( 82.6% of F)
  XC integration            ....      49.002 sec  ( 10.6% of F)
    Basis function eval.    ....       5.774 sec  ( 11.8% of XC)
    Density eval.           ....      18.524 sec  ( 37.8% of XC)
    XC-Functional eval.     ....       0.684 sec  (  1.4% of XC)
    XC-Potential eval.      ....      11.748 sec  ( 24.0% of XC)
Diagonalization             ....       7.454 sec  (  1.6%)
Density matrix formation    ....       0.272 sec  (  0.1%)
Population analysis         ....       0.240 sec  (  0.0%)
Initial guess               ....       0.465 sec  (  0.1%)
Orbital Transformation      ....       0.000 sec  (  0.0%)
Orbital Orthonormalization  ....       0.415 sec  (  0.1%)
DIIS solution               ....       2.775 sec  (  0.6%)
Grid generation             ....       4.816 sec  (  1.0%)

Maximum memory used throughout the entire SCF-calculation: 126.7 MB


           ************************************************************
           *        Program running with 6 parallel MPI-processes     *
           *              working on a common directory               *
           ************************************************************

------------------------------------------------------------------------------
                                ORCA  MP2 
------------------------------------------------------------------------------

Freezing NCore=10 chemical core electrons

   <<< Use J-auxbasis for calculation of Separable RI-J derivative contributions (Dim=1157) >>> 


-------------
RI-MP2 ENERGY
-------------
Dimension of the basis                    ...  525
Memory devoted to MP2                     ...  256 MB   
Data format for buffers                   ... DOUBLE
Compression type for matrix containers    ... UNCOMPRESSED
Overall scaling of the MP2 energy         ...   2.700e-01
Calculating two index integrals           ... done (    0.052 sec)
Cholesky decomposition of V**-1           ... done (    0.679 sec)

-----------------
RI-TRANSFORMATION (AUX index driven)
-----------------

Dimension of the orbital-basis         ... 525
Dimension of the aux-basis             ... 1994
Transformation of internal/external MOs...    5- 127 to  128- 524
Number Format for Storage              ... Double (8 Byte)
Integral mode                          ... Direct

First Phase: integral generation and transformation of MO indices
  Aux angular momentum 0               ... done (    0.260 sec)
  Aux angular momentum 1               ... done (    0.660 sec)
  Aux angular momentum 2               ... done (    0.988 sec)
  Aux angular momentum 3               ... done (    0.955 sec)
  Aux angular momentum 4               ... done (    0.821 sec)
  Aux angular momentum 5               ... done (    0.808 sec)
Closing buffer VIA ( 0.73 GB; CompressionRatio= 1.00)
  Phase 1 completed in     7.109 sec
Second Phase: sorting and transformation of aux index

IA-Transformation
Memory available                       ... 177 MB 
Max. # MO pairs treated in a batch     ... 21    
# of internal orbitals                 ... 123
# batches for internal orbitals        ... 1
Closing buffer IAV ( 0.73 GB; CompressionRatio= 1.00)
(ia|v) transformation done in     6.956 sec

  Phase 2 completed in     7.088 sec
RI-Integral transformation completed in    14.197 sec

-----------------
RI-TRANSFORMATION (AUX index driven)
-----------------

Dimension of the orbital-basis         ... 525
Dimension of the aux-basis             ... 1994
Transformation of internal/external MOs...    5- 124 to  125- 524
Number Format for Storage              ... Double (8 Byte)
Integral mode                          ... Direct

First Phase: integral generation and transformation of MO indices
  Aux angular momentum 0               ... done (    0.237 sec)
  Aux angular momentum 1               ... done (    0.602 sec)
  Aux angular momentum 2               ... done (    0.921 sec)
  Aux angular momentum 3               ... done (    0.902 sec)
  Aux angular momentum 4               ... done (    0.765 sec)
  Aux angular momentum 5               ... done (    0.778 sec)
Closing buffer VIA ( 0.71 GB; CompressionRatio= 1.00)
  Phase 1 completed in     6.656 sec
Second Phase: sorting and transformation of aux index

IA-Transformation
Memory available                       ... 177 MB 
Max. # MO pairs treated in a batch     ... 20    
# of internal orbitals                 ... 120
# batches for internal orbitals        ... 1
Closing buffer IAV ( 0.71 GB; CompressionRatio= 1.00)
(ia|v) transformation done in     6.791 sec

  Phase 2 completed in     6.920 sec
RI-Integral transformation completed in    13.576 sec
Opening buffers                              ... done

Starting loop over batches of integrals:

Operator 0  - window                       ... (  5-127)x(128-524)
Operator 0  - Memory available             ...   256 MB
Operator 0  - Memory needed per MO         ...   6.0 MB
Operator 0  - Number of orbitals per batch ... 21
Operator 0  - Number of batches            ... 1

OPERATOR  0   PASS   0:  MOs     5 ...   25 +   26 ...   46 +   47 ...   67 +   68 ...   88
                            +   89 ...  109 +  110 ...  127
  Reading integrals       ... ok
  Internal MO   7
  Internal MO  10
  Internal MO  13
  Internal MO  16
  Internal MO  19
  Internal MO  22
  Internal MO  25

Operator 1  - window                       ... (  5-124)x(125-524)
Operator 1  - Memory available             ...   256 MB
Operator 1  - Memory needed per MO         ...   6.1 MB
Operator 1  - Number of orbitals per batch ... 20
Operator 1  - Number of batches            ... 1

OPERATOR  1   PASS   0:  MOs     5 ...   24 +   25 ...   44 +   45 ...   64 +   65 ...   84
                            +   85 ...  104 +  105 ...  124
  Reading integrals       ... ok
  Internal MO   7
  Internal MO  10
  Internal MO  13
  Internal MO  16
  Internal MO  19
  Internal MO  22
Time spent in pair loops =   247.396 sec
Deleting buffer (Ka|jb)[aa] ...done
Deleting buffer (Ka|jb)[ba] ...done
Deleting buffer (Ka|jb)[ab] ...done
Deleting buffer (Ka|jb)[bb] ...done

Correlation energy components}
 E2 and T2 for alpha/alpha pairs :     -0.362799582 Eh      0.000000000
 E2 and T2 for beta/beta   pairs :     -0.353679682 Eh      0.000000000
 E2 and T2 for alpha/beta  pairs :     -1.219497791 Eh      0.000000000


-----------------------------------------------
 RI-MP2 CORRELATION ENERGY:     -1.935977055 Eh
-----------------------------------------------


-------
TIMINGS
-------

Total time                :  344.270 sec
Integral trafo            :   27.802 sec (  8.1%)
I/O of integrals          :    0.148 sec (  0.0%)
K(i,j) Operators          :  175.910 sec ( 51.1%)
T(i,j) pair energies      :    2.831 sec (  0.8%)
V-calculation             :    0.052 sec (  0.0%)
V**(-1/2)                 :    0.679 sec (  0.2%)
Gamma(ia|P)               :    0.000 sec (  0.0%)
Gamma-Trafo               :    0.000 sec (  0.0%)
D(virtual)                :    0.000 sec (  0.0%)
D(internal)               :    0.000 sec (  0.0%)
W(virtual)                :    0.000 sec (  0.0%)
W(internal)               :    0.000 sec (  0.0%)
L(virtual)                :    0.000 sec (  0.0%)
L(internal)               :    0.000 sec (  0.0%)
G(D)                      :    0.000 sec (  0.0%)
G(Z)                      :    0.000 sec (  0.0%)
Z-Vector Solution         :    0.000 sec (  0.0%)
3-Index Derivative        :    0.000 sec (  0.0%)
2-Index Derivative        :    0.000 sec (  0.0%)
Separable Gradient (RIJ)  :    0.000 sec (  0.0%)
Separable Gradient (COSX) :    0.000 sec (  0.0%)


---------------------------------------
MP2 TOTAL ENERGY:    -2777.852486006 Eh
---------------------------------------

Maximum memory used throughout the entire MP2-calculation: 257.2 MB

-------------------------   --------------------
FINAL SINGLE POINT ENERGY     -2777.852486005592
-------------------------   --------------------


                            ***************************************
                            *     ORCA property calculations      *
                            ***************************************


  WARNING: The energy has been calculated at the MP2 level but the densities
           used in the property calculations are still SCF densities
           MP2 response densities have not been calculated 
           use %mp2 Density relaxed end
           or  %mp2 Density unrelaxed end

                                    ---------------------
                                    Active property flags
                                    ---------------------
   (+) Dipole Moment


------------------------------------------------------------------------------
                       ORCA ELECTRIC PROPERTIES CALCULATION
------------------------------------------------------------------------------

Dipole Moment Calculation                       ... on
Quadrupole Moment Calculation                   ... off
Polarizability Calculation                      ... off
GBWName                                         ... b2plyp_job2.gbw
Electron density                                ... b2plyp_job2.scfp
The origin for moment calculation is the CENTER OF MASS  = (16.801703, 16.503586 14.490495)

-------------
DIPOLE MOMENT
-------------
                                X             Y             Z
Electronic contribution:     -6.31651      -0.39813       2.35320
Nuclear contribution   :      6.14300       0.35693      -2.30332
                        -----------------------------------------
Total Dipole Moment    :     -0.17351      -0.04120       0.04988
                        -----------------------------------------
Magnitude (a.u.)       :      0.18518
Magnitude (Debye)      :      0.47069



--------------------
Rotational spectrum 
--------------------
 
Rotational constants in cm-1:     0.001535     0.001171     0.000911 
Rotational constants in MHz :    46.010758    35.107292    27.306238 

 Dipole components along the rotational axes: 
x,y,z [a.u.] :    -0.136393     0.002606     0.125229 
x,y,z [Debye]:    -0.346683     0.006623     0.318307 

 

Timings for individual modules:

Sum of individual times         ...      841.441 sec (=  14.024 min)
GTO integral calculation        ...       15.822 sec (=   0.264 min)   1.9 %
SCF iterations                  ...      480.781 sec (=   8.013 min)  57.1 %
MP2 module                      ...      344.838 sec (=   5.747 min)  41.0 %



                             ****ORCA TERMINATED NORMALLY****
TOTAL RUN TIME: 0 days 1 hours 13 minutes 35 seconds 549 msec
