
                                 *****************
                                 * O   R   C   A *
                                 *****************

                                            #,                                       
                                            ###                                      
                                            ####                                     
                                            #####                                    
                                            ######                                   
                                           ########,                                 
                                     ,,################,,,,,                         
                               ,,#################################,,                 
                          ,,##########################################,,             
                       ,#########################################, ''#####,          
                    ,#############################################,,   '####,        
                  ,##################################################,,,,####,       
                ,###########''''           ''''###############################       
              ,#####''   ,,,,##########,,,,          '''####'''          '####       
            ,##' ,,,,###########################,,,                        '##       
           ' ,,###''''                  '''############,,,                           
         ,,##''                                '''############,,,,        ,,,,,,###''
      ,#''                                            '''#######################'''  
     '                                                          ''''####''''         
             ,#######,   #######,   ,#######,      ##                                
            ,#'     '#,  ##    ##  ,#'     '#,    #''#        ######   ,####,        
            ##       ##  ##   ,#'  ##            #'  '#       #        #'  '#        
            ##       ##  #######   ##           ,######,      #####,   #    #        
            '#,     ,#'  ##    ##  '#,     ,#' ,#      #,         ##   #,  ,#        
             '#######'   ##     ##  '#######'  #'      '#     #####' # '####'        



                  #######################################################
                  #                        -***-                        #
                  #          Department of theory and spectroscopy      #
                  #    Directorship and core code : Frank Neese         #
                  #        Max Planck Institute fuer Kohlenforschung    #
                  #                Kaiser Wilhelm Platz 1               #
                  #                 D-45470 Muelheim/Ruhr               #
                  #                      Germany                        #
                  #                                                     #
                  #                  All rights reserved                #
                  #                        -***-                        #
                  #######################################################


                         Program Version 5.0.3 -  RELEASE  -


 With contributions from (in alphabetic order):
   Daniel Aravena         : Magnetic Suceptibility
   Michael Atanasov       : Ab Initio Ligand Field Theory (pilot matlab implementation)
   Alexander A. Auer      : GIAO ZORA, VPT2 properties, NMR spectrum
   Ute Becker             : Parallelization
   Giovanni Bistoni       : ED, misc. LED, open-shell LED, HFLD
   Martin Brehm           : Molecular dynamics
   Dmytro Bykov           : SCF Hessian
   Vijay G. Chilkuri      : MRCI spin determinant printing, contributions to CSF-ICE
   Dipayan Datta          : RHF DLPNO-CCSD density
   Achintya Kumar Dutta   : EOM-CC, STEOM-CC
   Dmitry Ganyushin       : Spin-Orbit,Spin-Spin,Magnetic field MRCI
   Miquel Garcia          : C-PCM and meta-GGA Hessian, CC/C-PCM, Gaussian charge scheme
   Yang Guo               : DLPNO-NEVPT2, F12-NEVPT2, CIM, IAO-localization
   Andreas Hansen         : Spin unrestricted coupled pair/coupled cluster methods
   Benjamin Helmich-Paris : MC-RPA, TRAH-SCF, COSX integrals
   Lee Huntington         : MR-EOM, pCC
   Robert Izsak           : Overlap fitted RIJCOSX, COSX-SCS-MP3, EOM
   Marcus Kettner         : VPT2
   Christian Kollmar      : KDIIS, OOCD, Brueckner-CCSD(T), CCSD density, CASPT2, CASPT2-K
   Simone Kossmann        : Meta GGA functionals, TD-DFT gradient, OOMP2, MP2 Hessian
   Martin Krupicka        : Initial AUTO-CI
   Lucas Lang             : DCDCAS
   Marvin Lechner         : AUTO-CI (C++ implementation), FIC-MRCC
   Dagmar Lenk            : GEPOL surface, SMD
   Dimitrios Liakos       : Extrapolation schemes; Compound Job, initial MDCI parallelization
   Dimitrios Manganas     : Further ROCIS development; embedding schemes
   Dimitrios Pantazis     : SARC Basis sets
   Anastasios Papadopoulos: AUTO-CI, single reference methods and gradients
   Taras Petrenko         : DFT Hessian,TD-DFT gradient, ASA, ECA, R-Raman, ABS, FL, XAS/XES, NRVS
   Peter Pinski           : DLPNO-MP2, DLPNO-MP2 Gradient
   Christoph Reimann      : Effective Core Potentials
   Marius Retegan         : Local ZFS, SOC
   Christoph Riplinger    : Optimizer, TS searches, QM/MM, DLPNO-CCSD(T), (RO)-DLPNO pert. Triples
   Tobias Risthaus        : Range-separated hybrids, TD-DFT gradient, RPA, STAB
   Michael Roemelt        : Original ROCIS implementation
   Masaaki Saitow         : Open-shell DLPNO-CCSD energy and density
   Barbara Sandhoefer     : DKH picture change effects
   Avijit Sen             : IP-ROCIS
   Kantharuban Sivalingam : CASSCF convergence, NEVPT2, FIC-MRCI
   Bernardo de Souza      : ESD, SOC TD-DFT
   Georgi Stoychev        : AutoAux, RI-MP2 NMR, DLPNO-MP2 response
   Willem Van den Heuvel  : Paramagnetic NMR
   Boris Wezisla          : Elementary symmetry handling
   Frank Wennmohs         : Technical directorship


 We gratefully acknowledge several colleagues who have allowed us to
 interface, adapt or use parts of their codes:
   Stefan Grimme, W. Hujo, H. Kruse, P. Pracht,  : VdW corrections, initial TS optimization,
                  C. Bannwarth, S. Ehlert          DFT functionals, gCP, sTDA/sTD-DF
   Ed Valeev, F. Pavosevic, A. Kumar             : LibInt (2-el integral package), F12 methods
   Garnet Chan, S. Sharma, J. Yang, R. Olivares  : DMRG
   Ulf Ekstrom                                   : XCFun DFT Library
   Mihaly Kallay                                 : mrcc  (arbitrary order and MRCC methods)
   Jiri Pittner, Ondrej Demel                    : Mk-CCSD
   Frank Weinhold                                : gennbo (NPA and NBO analysis)
   Christopher J. Cramer and Donald G. Truhlar   : smd solvation model
   Lars Goerigk                                  : TD-DFT with DH, B97 family of functionals
   V. Asgeirsson, H. Jonsson                     : NEB implementation
   FAccTs GmbH                                   : IRC, NEB, NEB-TS, DLPNO-Multilevel, CI-OPT
                                                   MM, QMMM, 2- and 3-layer-ONIOM, Crystal-QMMM,
                                                   LR-CPCM, SF, NACMEs, symmetry and pop. for TD-DFT,
                                                   nearIR, NL-DFT gradient (VV10), updates on ESD,
                                                   ML-optimized integration grids
   S Lehtola, MJT Oliveira, MAL Marques          : LibXC Library
   Liviu Ungur et al                             : ANISO software


 Your calculation uses the libint2 library for the computation of 2-el integrals
 For citations please refer to: http://libint.valeyev.net

 Your ORCA version has been built with support for libXC version: 5.1.0
 For citations please refer to: https://tddft.org/programs/libxc/

 This ORCA versions uses:
   CBLAS   interface :  Fast vector & matrix operations
   LAPACKE interface :  Fast linear algebra routines
   SCALAPACK package :  Parallel linear algebra routines
   Shared memory     :  Shared parallel matrices
   BLAS/LAPACK       :  OpenBLAS 0.3.15  USE64BITINT DYNAMIC_ARCH NO_AFFINITY Sandybridge SINGLE_THREADED
        Core in use  :  Sandybridge
   Copyright (c) 2011-2014, The OpenBLAS Project




***************************************
The coordinates will be read from file: pbe.xyz
***************************************


================================================================================

cite the ECPs for Au [Def2-ECP] as follows:
Ce-Yb(ecp-28): M. Dolg, H. Stoll, H.Preuss, J. Chem. Phys., 1989, 90, 1730-1734.
Y-Cd(ecp-28), Hf-Hg(ecp-46): D. Andrae,U. Haeussermann, M. Dolg, H. Stoll, H. Preuss, Theor. Chim. Acta, 1990, 77, 123-141.
In-Sb(ecp-28), Tl-Bi(ecp-46): B. Metz, H. Stoll, M. Dolg, J. Chem. Phys., 2000, 113, 2563-2569.
Te-Xe(ecp-28), Po-Rn(ecp-46): K. A. Peterson, D. Figgen, E. Goll, H. Stoll, M. Dolg, J. Chem. Phys., 2003, 119, 11113-11123.
Rb(ecp-28), Cs(ecp-46): T. Leininger, A. Nicklass, W. Kuechle, H. Stoll, M. Dolg, A. Bergner, Chem. Phys. Lett., 1996, 255, 274-280.
Sr(ecp-28), Ba(ecp-46): M. Kaupp, P. V. Schleyer, H. Stoll and H. Preuss, J. Chem. Phys., 1991, 94, 1360-1366.
La(ecp-46): M. Dolg, H. Stoll, A. Savin, H. Preuss, Theor. Chim. Acta, 1989, 75, 173-194.
Lu(ecp-28): X. Cao, M. Dolg, J. Chem. Phys., 2001, 115, 7348-7355.

ECP parameters for Au [Def2-ECP] have been obtained from:
TURBOMOLE (7.0.2)

----- Orbital basis set information -----
Your calculation utilizes the basis: def2-TZVP
   F. Weigend and R. Ahlrichs, Phys. Chem. Chem. Phys. 7, 3297 (2005).

----- AuxJ basis set information -----
Your calculation utilizes the auxiliary basis: def2/J
   F. Weigend, Phys. Chem. Chem. Phys. 8, 1057 (2006).

================================================================================
                                        WARNINGS
                       Please study these warnings very carefully!
================================================================================

Using LibXC functional ID 497 : Re-regularized SCAN exchange by Furness et al
[ 1]  J. W. Furness, A. D. Kaplan, J. Ning, J. P. Perdew, and J. Sun, J. Phys. Chem. Lett. 11, 8208 (2020)
[ 2]  J. W. Furness, A. D. Kaplan, J. Ning, J. P. Perdew, and J. Sun, J. Phys. Chem. Lett. 11, 9248 (2020)
Using LibXC functional ID 498 : Re-regularized SCAN correlation by Furness et al
[ 1]  J. W. Furness, A. D. Kaplan, J. Ning, J. P. Perdew, and J. Sun, J. Phys. Chem. Lett. 11, 8208 (2020)
[ 2]  J. W. Furness, A. D. Kaplan, J. Ning, J. P. Perdew, and J. Sun, J. Phys. Chem. Lett. 11, 9248 (2020)
Using LibXC functional ID 497 : Re-regularized SCAN exchange by Furness et al
[ 1]  J. W. Furness, A. D. Kaplan, J. Ning, J. P. Perdew, and J. Sun, J. Phys. Chem. Lett. 11, 8208 (2020)
[ 2]  J. W. Furness, A. D. Kaplan, J. Ning, J. P. Perdew, and J. Sun, J. Phys. Chem. Lett. 11, 9248 (2020)
Using LibXC functional ID 498 : Re-regularized SCAN correlation by Furness et al
[ 1]  J. W. Furness, A. D. Kaplan, J. Ning, J. P. Perdew, and J. Sun, J. Phys. Chem. Lett. 11, 8208 (2020)
[ 2]  J. W. Furness, A. D. Kaplan, J. Ning, J. P. Perdew, and J. Sun, J. Phys. Chem. Lett. 11, 9248 (2020)

WARNING: your system is open-shell and RHF/RKS was chosen
  ===> : WILL SWITCH to UHF/UKS


INFO   : the flag for use of the SHARK integral package has been found!



***************************************
The coordinates will be read from file: pbe.xyz
***************************************


================================================================================

cite the ECPs for Au [Def2-ECP] as follows:
Ce-Yb(ecp-28): M. Dolg, H. Stoll, H.Preuss, J. Chem. Phys., 1989, 90, 1730-1734.
Y-Cd(ecp-28), Hf-Hg(ecp-46): D. Andrae,U. Haeussermann, M. Dolg, H. Stoll, H. Preuss, Theor. Chim. Acta, 1990, 77, 123-141.
In-Sb(ecp-28), Tl-Bi(ecp-46): B. Metz, H. Stoll, M. Dolg, J. Chem. Phys., 2000, 113, 2563-2569.
Te-Xe(ecp-28), Po-Rn(ecp-46): K. A. Peterson, D. Figgen, E. Goll, H. Stoll, M. Dolg, J. Chem. Phys., 2003, 119, 11113-11123.
Rb(ecp-28), Cs(ecp-46): T. Leininger, A. Nicklass, W. Kuechle, H. Stoll, M. Dolg, A. Bergner, Chem. Phys. Lett., 1996, 255, 274-280.
Sr(ecp-28), Ba(ecp-46): M. Kaupp, P. V. Schleyer, H. Stoll and H. Preuss, J. Chem. Phys., 1991, 94, 1360-1366.
La(ecp-46): M. Dolg, H. Stoll, A. Savin, H. Preuss, Theor. Chim. Acta, 1989, 75, 173-194.
Lu(ecp-28): X. Cao, M. Dolg, J. Chem. Phys., 2001, 115, 7348-7355.

ECP parameters for Au [Def2-ECP] have been obtained from:
TURBOMOLE (7.0.2)

----- Orbital basis set information -----
Your calculation utilizes the basis: def2-TZVP
   F. Weigend and R. Ahlrichs, Phys. Chem. Chem. Phys. 7, 3297 (2005).

----- AuxJ basis set information -----
Your calculation utilizes the auxiliary basis: def2/J
   F. Weigend, Phys. Chem. Chem. Phys. 8, 1057 (2006).

================================================================================
                                        WARNINGS
                       Please study these warnings very carefully!
================================================================================

Using LibXC functional ID 497 : Re-regularized SCAN exchange by Furness et al
[ 1]  J. W. Furness, A. D. Kaplan, J. Ning, J. P. Perdew, and J. Sun, J. Phys. Chem. Lett. 11, 8208 (2020)
[ 2]  J. W. Furness, A. D. Kaplan, J. Ning, J. P. Perdew, and J. Sun, J. Phys. Chem. Lett. 11, 9248 (2020)
Using LibXC functional ID 498 : Re-regularized SCAN correlation by Furness et al
[ 1]  J. W. Furness, A. D. Kaplan, J. Ning, J. P. Perdew, and J. Sun, J. Phys. Chem. Lett. 11, 8208 (2020)
[ 2]  J. W. Furness, A. D. Kaplan, J. Ning, J. P. Perdew, and J. Sun, J. Phys. Chem. Lett. 11, 9248 (2020)
Using LibXC functional ID 497 : Re-regularized SCAN exchange by Furness et al
[ 1]  J. W. Furness, A. D. Kaplan, J. Ning, J. P. Perdew, and J. Sun, J. Phys. Chem. Lett. 11, 8208 (2020)
[ 2]  J. W. Furness, A. D. Kaplan, J. Ning, J. P. Perdew, and J. Sun, J. Phys. Chem. Lett. 11, 9248 (2020)
Using LibXC functional ID 498 : Re-regularized SCAN correlation by Furness et al
[ 1]  J. W. Furness, A. D. Kaplan, J. Ning, J. P. Perdew, and J. Sun, J. Phys. Chem. Lett. 11, 8208 (2020)
[ 2]  J. W. Furness, A. D. Kaplan, J. Ning, J. P. Perdew, and J. Sun, J. Phys. Chem. Lett. 11, 9248 (2020)

INFO   : the flag for use of the SHARK integral package has been found!

================================================================================
                                       INPUT FILE
================================================================================
NAME = scan.inp
|  1> !R2SCAN def2-TZVP VERYSLOWCONV
|  2> !KDIIS
|  3> %scf
|  4>   AutoTRAHIter 200
|  5>   maxiter 400
|  6> end
|  7> 
|  8> %pal nprocs 6 end 
|  9> 
| 10> *xyzfile 0 6 pbe.xyz
| 11> 
| 12> $new_job
| 13> 
| 14> !R2SCAN def2-TZVP VERYSLOWCONV
| 15> !KDIIS
| 16> %scf
| 17>   AutoTRAHIter 200
| 18>   maxiter 400
| 19> end
| 20> 
| 21> 
| 22> %pal nprocs 6 end 
| 23> 
| 24> *xyzfile 0 4 pbe.xyz
| 25> 
| 26> 
| 27> 
| 28> 
| 29> 
| 30>                          ****END OF INPUT****
================================================================================


                 $$$$$$$$$$$$$$$$$$$$$$$$$$$$$$$$$$$$$$$$$$$$$$ 
                 $ THERE ARE  2 JOBS TO BE PROCESSED THIS RUN $
                 $$$$$$$$$$$$$$$$$$$$$$$$$$$$$$$$$$$$$$$$$$$$$$ 




                 $$$$$$$$$$$$$$$$  JOB NUMBER  1 $$$$$$$$$$$$$$


                       ****************************
                       * Single Point Calculation *
                       ****************************

---------------------------------
CARTESIAN COORDINATES (ANGSTROEM)
---------------------------------
  Au     6.531918    8.513357   10.389200
  Au     5.471411    6.137117    9.409247
  Au     8.312957    6.527592    9.576977
  Au     8.820095    9.277332    9.003073
  Au     7.071139    4.679719    7.728604
  Au     9.562478    5.851850    7.169757
  Au    10.051020    8.453865    6.631444
  Au     8.182857   10.549972    6.491465
  Au     7.966843    8.430450    4.656095
  Au     5.657369    9.244186    6.006392
  Au     7.475939    5.829903    5.198494
  Au     5.137424    6.496080    6.576824
  Au     4.410467    8.493217    8.377623
  Au     6.297945   10.535470    8.488475
  Mn     7.420597    7.696756    7.329469

----------------------------
CARTESIAN COORDINATES (A.U.)
----------------------------
  NO LB      ZA    FRAG     MASS         X           Y           Z
   0 Au   19.0000*   0   196.966   12.343535   16.087913   19.632743
   1 Au   19.0000*   0   196.966   10.339469   11.597471   17.780900
   2 Au   19.0000*   0   196.966   15.709211   12.335362   18.097864
   3 Au   19.0000*   0   196.966   16.667564   17.531616   17.013342
   4 Au   19.0000*   0   196.966   13.362516    8.843388   14.604946
   5 Au   19.0000*   0   196.966   18.070465   11.058394   13.548877
   6 Au   19.0000*   0   196.966   18.993675   15.975490   12.531614
   7 Au   19.0000*   0   196.966   15.463360   19.936558   12.267092
   8 Au   19.0000*   0   196.966   15.055152   15.931242    8.798745
   9 Au   19.0000*   0   196.966   10.690877   17.468980   11.350436
  10 Au   19.0000*   0   196.966   14.127477   11.016921    9.823730
  11 Au   19.0000*   0   196.966    9.708325   12.275813   12.428397
  12 Au   19.0000*   0   196.966    8.334575   16.049853   15.831413
  13 Au   19.0000*   0   196.966   11.901392   19.909153   16.040893
  14 Mn   25.0000    0    54.940   14.022896   14.544761   13.850688
* core charge reduced due to ECP

--------------------------------
INTERNAL COORDINATES (ANGSTROEM)
--------------------------------
 Au     0   0   0     0.000000000000     0.00000000     0.00000000
 Au     1   0   0     2.780556707929     0.00000000     0.00000000
 Au     1   2   0     2.788380804750    62.11829228     0.00000000
 Au     1   2   3     2.782222511162   111.88557359    37.67354819
 Au     2   1   3     2.740018064024   116.61833746   335.81169248
 Au     3   1   2     2.795110240300   135.11907070    89.24093220
 Au     6   3   1     2.701654360198    91.12292004    41.76323772
 Au     7   6   3     2.811278878166   127.43510688   304.21071338
 Au     8   7   6     2.812048721539    61.41645970   297.22118086
 Au     9   8   7     2.796272883567    61.89620106   131.81046727
 Au     9   8   7     2.701486005854   127.47976699    63.04567105
 Au    11   9   8     2.795037736228    91.23823035    55.41173030
 Au     2   1   3     2.782274868428    63.41169343   227.95927549
 Au     8   7   6     2.746115856973   114.58087527    43.13183448
 Mn     3   1   2     2.685990305410    73.83177581    77.76990461

---------------------------
INTERNAL COORDINATES (A.U.)
---------------------------
 Au     0   0   0     0.000000000000     0.00000000     0.00000000
 Au     1   0   0     5.254490677823     0.00000000     0.00000000
 Au     1   2   0     5.269276078061    62.11829228     0.00000000
 Au     1   2   3     5.257638589727   111.88557359    37.67354819
 Au     2   1   3     5.177883743002   116.61833746   335.81169248
 Au     3   1   2     5.281992868286   135.11907070    89.24093220
 Au     6   3   1     5.105386849288    91.12292004    41.76323772
 Au     7   6   3     5.312547165810   127.43510688   304.21071338
 Au     8   7   6     5.314001958951    61.41645970   297.22118086
 Au     9   8   7     5.284189945653    61.89620106   131.81046727
 Au     9   8   7     5.105068705684   127.47976699    63.04567105
 Au    11   9   8     5.281855855446    91.23823035    55.41173030
 Au     2   1   3     5.257737530620    63.41169343   227.95927549
 Au     8   7   6     5.189406901698   114.58087527    43.13183448
 Mn     3   1   2     5.075786075592    73.83177581    77.76990461

---------------------
BASIS SET INFORMATION
---------------------
There are 2 groups of distinct atoms

 Group   1 Type Au  : 8s7p6d1f contracted to 6s4p3d1f pattern {311111/4111/411/1}
 Group   2 Type Mn  : 17s11p7d1f contracted to 6s4p4d1f pattern {842111/6311/4111/1}

Atom   0Au   basis set group =>   1
Atom   1Au   basis set group =>   1
Atom   2Au   basis set group =>   1
Atom   3Au   basis set group =>   1
Atom   4Au   basis set group =>   1
Atom   5Au   basis set group =>   1
Atom   6Au   basis set group =>   1
Atom   7Au   basis set group =>   1
Atom   8Au   basis set group =>   1
Atom   9Au   basis set group =>   1
Atom  10Au   basis set group =>   1
Atom  11Au   basis set group =>   1
Atom  12Au   basis set group =>   1
Atom  13Au   basis set group =>   1
Atom  14Mn   basis set group =>   2
---------------------------------
AUXILIARY/J BASIS SET INFORMATION
---------------------------------
There are 2 groups of distinct atoms

 Group   1 Type Au  : 11s5p5d3f3g contracted to 8s5p5d2f3g pattern {41111111/11111/11111/21/111}
 Group   2 Type Mn  : 19s5p5d3f3g contracted to 8s5p5d2f3g pattern {121111111/11111/11111/21/111}

Atom   0Au   basis set group =>   1
Atom   1Au   basis set group =>   1
Atom   2Au   basis set group =>   1
Atom   3Au   basis set group =>   1
Atom   4Au   basis set group =>   1
Atom   5Au   basis set group =>   1
Atom   6Au   basis set group =>   1
Atom   7Au   basis set group =>   1
Atom   8Au   basis set group =>   1
Atom   9Au   basis set group =>   1
Atom  10Au   basis set group =>   1
Atom  11Au   basis set group =>   1
Atom  12Au   basis set group =>   1
Atom  13Au   basis set group =>   1
Atom  14Mn   basis set group =>   2
-------------------------
ECP PARAMETER INFORMATION
-------------------------

 Group 1, Type Au ECP Def2-ECP (replacing 60 core electrons, lmax=3)

Atom   0Au   ECP group =>   1
Atom   1Au   ECP group =>   1
Atom   2Au   ECP group =>   1
Atom   3Au   ECP group =>   1
Atom   4Au   ECP group =>   1
Atom   5Au   ECP group =>   1
Atom   6Au   ECP group =>   1
Atom   7Au   ECP group =>   1
Atom   8Au   ECP group =>   1
Atom   9Au   ECP group =>   1
Atom  10Au   ECP group =>   1
Atom  11Au   ECP group =>   1
Atom  12Au   ECP group =>   1
Atom  13Au   ECP group =>   1



           ************************************************************
           *        Program running with 6 parallel MPI-processes     *
           *              working on a common directory               *
           ************************************************************
------------------------------------------------------------------------------
                           ORCA GTO INTEGRAL CALCULATION
                           -- RI-GTO INTEGRALS CHOSEN --
------------------------------------------------------------------------------
------------------------------------------------------------------------------
                   ___                                                        
                  /   \      - P O W E R E D   B Y -                         
                 /     \                                                     
                 |  |  |   _    _      __       _____    __    __             
                 |  |  |  | |  | |    /  \     |  _  \  |  |  /  |          
                  \  \/   | |  | |   /    \    | | | |  |  | /  /          
                 / \  \   | |__| |  /  /\  \   | |_| |  |  |/  /          
                |  |  |   |  __  | /  /__\  \  |    /   |      \           
                |  |  |   | |  | | |   __   |  |    \   |  |\   \          
                \     /   | |  | | |  |  |  |  | |\  \  |  | \   \       
                 \___/    |_|  |_| |__|  |__|  |_| \__\ |__|  \__/        
                                                                              
                      - O R C A' S   B I G   F R I E N D -                    
                                      &                                       
                       - I N T E G R A L  F E E D E R -                       
                                                                              
 v1 FN, 2020, v2 2021                                                         
------------------------------------------------------------------------------


Reading SHARK input file scan.SHARKINP.tmp ... ok
----------------------
SHARK INTEGRAL PACKAGE
----------------------

Number of atoms                             ...     15
Number of basis functions                   ...    605
Number of shells                            ...    211
Maximum angular momentum                    ...      3
Integral batch strategy                     ... SHARK/LIBINT Hybrid
RI-J (if used) integral strategy            ... SPLIT-RIJ (Revised 2003 algorithm where possible)
Printlevel                                  ...      1
Contraction scheme used                     ... SEGMENTED contraction
Coulomb Range Separation                    ... NOT USED
Exchange Range Separation                   ... NOT USED
Finite Nucleus Model                        ... NOT USED
Auxiliary Coulomb fitting basis             ... AVAILABLE
   # of basis functions in Aux-J            ...   1335
   # of shells in Aux-J                     ...    345
   Maximum angular momentum in Aux-J        ...      4
Auxiliary J/K fitting basis                 ... NOT available
Auxiliary Correlation fitting basis         ... NOT available
Auxiliary 'external' fitting basis          ... NOT available
Integral threshold                          ...     1.000000e-10
Primitive cut-off                           ...     1.000000e-11
Primitive pair pre-selection threshold      ...     1.000000e-11

Calculating pre-screening integrals         ... done (  0.3 sec) Dimension = 211
Organizing shell pair data                  ... done (  0.8 sec)
Shell pair information
Total number of shell pairs                 ...     22366
Shell pairs after pre-screening             ...     18004
Total number of primitive shell pairs       ...     59609
Primitive shell pairs kept                  ...     34665
          la=0 lb=0:   2824 shell pairs
          la=1 lb=0:   4094 shell pairs
          la=1 lb=1:   1542 shell pairs
          la=2 lb=0:   3569 shell pairs
          la=2 lb=1:   2522 shell pairs
          la=2 lb=2:   1042 shell pairs
          la=3 lb=0:    940 shell pairs
          la=3 lb=1:    736 shell pairs
          la=3 lb=2:    632 shell pairs
          la=3 lb=3:    103 shell pairs

Calculating one electron integrals          ... done (  0.1 sec)
Calculating ECP integrals                   ... done ( 21.4 sec)
Calculating RI/J V-Matrix + Cholesky decomp.... done (  0.2 sec)
Calculating Nuclear repulsion               ... done (  0.0 sec) ENN=   5714.959598579414 Eh

SHARK setup successfully completed in  23.5 seconds

Maximum memory used throughout the entire GTOINT-calculation: 34.7 MB


           ************************************************************
           *        Program running with 6 parallel MPI-processes     *
           *              working on a common directory               *
           ************************************************************
-------------------------------------------------------------------------------
                                 ORCA SCF
-------------------------------------------------------------------------------

------------
SCF SETTINGS
------------
Hamiltonian:
 Density Functional     Method          .... DFT(GTOs)
  Functional kind                       .... Exchange
  Functional name                       .... Re-regularized SCAN exchange by Furness et al
  Functional family                     .... MGGA
  Functional refs                              
    [ 0] J. W. Furness, A. D. Kaplan, J. Ning, J. P. Perdew, and J. Sun, J. Phys. Chem. Lett. 11, 8208 (2020)
    [ 1] J. W. Furness, A. D. Kaplan, J. Ning, J. P. Perdew, and J. Sun, J. Phys. Chem. Lett. 11, 9248 (2020)
  Functional external parameters         .... 8
 Parameter  0 :         c1 parameter
 Parameter  1 :         c2 parameter
 Parameter  2 :          d parameter
 Parameter  3 :         k1 parameter
 Parameter  4 :       taur parameter
 Parameter  5 :     alphar parameter
 Parameter  6 :        eta parameter
 Parameter  7 :        dp2 parameter
  Functional kind                       .... Correlation
  Functional name                       .... Re-regularized SCAN correlation by Furness et al
  Functional family                     .... MGGA
  Functional refs                              
    [ 0] J. W. Furness, A. D. Kaplan, J. Ning, J. P. Perdew, and J. Sun, J. Phys. Chem. Lett. 11, 8208 (2020)
    [ 1] J. W. Furness, A. D. Kaplan, J. Ning, J. P. Perdew, and J. Sun, J. Phys. Chem. Lett. 11, 9248 (2020)
  Functional external parameters         .... 0
 Gradients option       PostSCFGGA      .... off
   Density functional embedding theory  .... OFF
   NL short-range parameter             .... 12.300000
 RI-approximation to the Coulomb term is turned on
   Number of AuxJ basis functions       .... 1335


General Settings:
 Integral files         IntName         .... scan
 Hartree-Fock type      HFTyp           .... UHF
 Total Charge           Charge          ....    0
 Multiplicity           Mult            ....    6
 Number of Electrons    NEL             ....  291
 Basis Dimension        Dim             ....  605
 Nuclear Repulsion      ENuc            ....   5714.9595985794 Eh

Convergence Acceleration:
 DIIS                   CNVDIIS         .... off
 Trust-Rad. Augm. Hess. CNVTRAH         .... auto
   Auto Start mean grad. ratio tolernc. ....  1.125000
   Auto Start start iteration           ....   200
   Auto Start num. interpolation iter.  ....    10
   Max. Number of Micro iterations      ....    16
   Max. Number of Macro iterations      .... Maxiter - #DIIS iter
   Number of Davidson start vectors     ....     2
   Converg. threshold I  (grad. norm)   ....   5.000e-05
   Converg. threshold II (energy diff.) ....   1.000e-06
   Grad. Scal. Fac. for Micro threshold ....   0.100
   Minimum threshold for Micro iter.    ....   0.010
   NR start threshold (gradient norm)   ....   0.001
   Initial trust radius                 ....   0.400
   Minimum AH scaling param. (alpha)    ....   1.000
   Maximum AH scaling param. (alpha)    .... 1000.000
   Orbital update algorithm             .... Taylor
   White noise on init. David. guess    .... on
   Maximum white noise                  ....   0.010
   Quad. conv. algorithm                .... NR
 SOSCF                  CNVSOSCF        .... off
 Level Shifting         CNVShift        .... off
 Zerner damping         CNVZerner       .... off
 Static damping         CNVDamp         .... off
 Fernandez-Rico         CNVRico         .... off

SCF Procedure:
 Maximum # iterations   MaxIter         ....   400
 SCF integral mode      SCFMode         .... Direct
   Integral package                     .... SHARK and LIBINT hybrid scheme
 Reset frequency        DirectResetFreq ....    20
 Integral Threshold     Thresh          ....  1.000e-10 Eh
 Primitive CutOff       TCut            ....  1.000e-11 Eh

Convergence Tolerance:
 Convergence Check Mode ConvCheckMode   .... All-Criteria
 Convergence forced     ConvForced      .... 0
 Energy Change          TolE            ....  1.000e-06 Eh
 Max Density Change     TolMaxP         ....  1.000e-05
 RMS Density Change     TolRMSP         ....  1.000e-06


Diagonalization of the overlap matrix:
Smallest eigenvalue                        ... 3.404e-04
Time for diagonalization                   ...    0.151 sec
Threshold for overlap eigenvalues          ... 1.000e-08
Number of eigenvalues below threshold      ... 0
Time for construction of square roots      ...    0.115 sec
Total time needed                          ...    0.269 sec

Time for model grid setup =    0.977 sec

------------------------------
INITIAL GUESS: MODEL POTENTIAL
------------------------------
Loading Hartree-Fock densities                     ... done
  calling /home/ehlert/src/miniconda3/envs/orca500/Programs/ORCA501/orca scan_atom79.inp > scan_atom79.out in order to generate an atomic fitting density for atom 0 (Au with ECP) on-the-fly... 
    atom 0 (Au), assumed electronic state with S=2: 1s2 2s2 2p6 3s2 3p6 4s2 3d10 4p6 5s2 4d10 5p6 6s1 4f14 5d10           ... done
Calculating cut-offs                               ... done
Initializing the effective Hamiltonian             ... done
Setting up the integral package (SHARK)            ... done
Starting the Coulomb interaction                   ... done (   1.1 sec)
Reading the grid                                   ... done
Mapping shells                                     ... done
Starting the XC term evaluation                    ... done (   1.0 sec)
  promolecular density results
     # of electrons  =   1131.014107213
     EX              =  -5172.158356581
     EC              =    -68.927816680
     EX+EC           =  -5241.086173261
Transforming the Hamiltonian                       ... done (   0.1 sec)
Diagonalizing the Hamiltonian                      ... done (   0.2 sec)
Back transforming the eigenvectors                 ... done (   0.0 sec)
Now organizing SCF variables                       ... done
                      ------------------
                      INITIAL GUESS DONE (   4.5 sec)
                      ------------------
-------------------
DFT GRID GENERATION
-------------------

General Integration Accuracy     IntAcc      ... 4.388
Radial Grid Type                 RadialGrid  ... OptM3 with GC (2021)
Angular Grid (max. ang.)         AngularGrid ... 4 (Lebedev-302)
Angular grid pruning method      GridPruning ... 4 (adaptive)
Weight generation scheme         WeightScheme... Becke
Basis function cutoff            BFCut       ... 1.0000e-10
Integration weight cutoff        WCut        ... 1.0000e-14
Angular grids for H and He will be reduced by one unit
Partially contracted basis set               ... off
Rotationally invariant grid construction     ... off

Total number of grid points                  ...   165581
Total number of batches                      ...     2595
Average number of points per batch           ...       63
Average number of grid points per atom       ...    11039
Time for grid setup =    2.886 sec

--------------
SCF ITERATIONS
--------------
ITER       Energy         Delta-E        Max-DP      RMS-DP      [F,P]   Gradient Norm
               ***  Starting incremental Fock matrix formation  ***
                             ****Resetting KDIIS****
                             ****Turning on KDIIS(Cayley)****
  0  -3050.4709755223   0.000000000000 0.44858595  0.00142746  0.5055955   0.227752830
  1  -3051.6547438274  -1.183768305042 0.62546255  0.00191422  0.3153572   0.174136996
  2  -3052.2573848486  -0.602641021272 0.23429103  0.00137496  0.2497020   0.129454190
  3  -3052.5605114002  -0.303126551601 0.30718755  0.00152189  0.1462255   0.075767942
  4  -3052.6721841606  -0.111672760383 0.06186694  0.00043340  0.0665876   0.023295163
  5  -3052.7268377547  -0.054653594070 0.21808951  0.00058798  0.0326078   0.009074788
  6  -3052.7621601478  -0.035322393072 0.16251894  0.00105946  0.0319761   0.007865159
  7  -3052.8011037529  -0.038943605149 0.15093174  0.00057458  0.0399268   0.013822235
  8  -3052.8335353651  -0.032431612153 0.04904487  0.00026863  0.0159339   0.005367339
  9  -3052.8395250544  -0.005989689337 0.03481311  0.00014210  0.0174842   0.004594323
 10  -3052.8427190879  -0.003194033537 0.01387327  0.00018124  0.0103897   0.001993702
 11  -3052.8458981075  -0.003179019574 0.00865433  0.00010476  0.0070081   0.002573245
 12  -3052.8472268252  -0.001328717687 0.00873626  0.00012723  0.0061374   0.002150403
 13  -3052.8482049288  -0.000978103617 0.02466404  0.00007085  0.0057480   0.002552865
 14  -3052.8484630516  -0.000258122749 0.01973765  0.00005738  0.0026080   0.002055220
 15  -3052.8487867164  -0.000323664799 0.00504797  0.00002953  0.0029092   0.001094206
 16  -3052.8487707931   0.000015923216 0.00665209  0.00002608  0.0017477   0.000910828
 17  -3052.8489270051  -0.000156211963 0.00088995  0.00001197  0.0013852   0.000401361
 18  -3052.8489613653  -0.000034360208 0.00128851  0.00001406  0.0017262   0.000241542
 19  -3052.8489880702  -0.000026704914 0.00275426  0.00001243  0.0007647   0.000257873
               *** Restarting incremental Fock matrix formation ***
                             ****Resetting KDIIS****
 20  -3052.8490166026  -0.000028532378 0.00105310  0.00000291  0.0011340   0.000371205
 21  -3052.8490230321  -0.000006429448 0.00084495  0.00000232  0.0009500   0.000241898
 22  -3052.8490310171  -0.000007984997 0.00079551  0.00000335  0.0009247   0.000178130
 23  -3052.8490389869  -0.000007969870 0.00298325  0.00001454  0.0007505   0.000127650
 24  -3052.8490713869  -0.000032399960 0.00099774  0.00000905  0.0003242   0.000134958
 25  -3052.8490850129  -0.000013626038 0.00108825  0.00000338  0.0000922   0.000039190
 26  -3052.8490812033   0.000003809608 0.00042311  0.00000265  0.0000933   0.000080622
                           ***RMSP convergence achieved***
 27  -3052.8490851952  -0.000003991886 0.00005931  0.00000068  0.0000833   0.000012486
                          ***Energy convergence achieved***
 28  -3052.8490858211  -0.000000625909 0.00021981  0.00000136  0.0000694   0.000010441
 29  -3052.8490865967  -0.000000775637 0.00022135  0.00000114  0.0000614   0.000011065
                           ***RMSP convergence achieved***
 30  -3052.8490865549   0.000000041819 0.00020003  0.00000069  0.0000442   0.000011457
 31  -3052.8490870894  -0.000000534439 0.00014971  0.00000137  0.0000452   0.000015273
                           ***RMSP convergence achieved***
 32  -3052.8490873742  -0.000000284808 0.00026431  0.00000059  0.0000490   0.000007815

            ***Energy convergence in two consecutive cycles with***
                    ***'reasonable' density convergence***
                       *** signaling convergence ***

                    *** KDIIS BlockDiag ( 0.465 sec) ***

               *****************************************************
               *                     SUCCESS                       *
               *           SCF CONVERGED AFTER  33 CYCLES          *
               *****************************************************


----------------
TOTAL SCF ENERGY
----------------

Total Energy       :        -3052.84908704 Eh          -83072.24697 eV

Components:
Nuclear Repulsion  :         5714.95959858 Eh          155511.95675 eV
Electronic Energy  :        -8767.80868562 Eh         -238584.20372 eV
One Electron Energy:       -16347.70177355 Eh         -444843.58067 eV
Two Electron Energy:         7579.89308793 Eh          206259.37695 eV

Virial components:
Potential Energy   :        -4844.30253510 Eh         -131820.17359 eV
Kinetic Energy     :         1791.45344806 Eh           48747.92662 eV
Virial Ratio       :            2.70411857


DFT components:
N(Alpha)           :      148.000082981069 electrons
N(Beta)            :      143.000092260928 electrons
N(Total)           :      291.000175241996 electrons
E(X)               :     -221.084786721633 Eh       
E(C)               :      -12.072722508127 Eh       
E(XC)              :     -233.157509229760 Eh       
DFET-embed. en.    :        0.000000000000 Eh       

---------------
SCF CONVERGENCE
---------------

  Last Energy change         ...    3.3739e-07  Tolerance :   1.0000e-06
  Last MAX-Density change    ...    8.6390e-05  Tolerance :   1.0000e-05
  Last RMS-Density change    ...    7.0643e-07  Tolerance :   1.0000e-06

             **** THE GBW FILE WAS UPDATED (scan.gbw) ****
             **** DENSITY scan.scfp WAS UPDATED ****
             **** ENERGY FILE WAS UPDATED (scan.en.tmp) ****
----------------------
UHF SPIN CONTAMINATION
----------------------

Warning: in a DFT calculation there is little theoretical justification to 
         calculate <S**2> as in Hartree-Fock theory. We will do it anyways
         but you should keep in mind that the values have only limited relevance

Expectation value of <S**2>     :     8.778303
Ideal value S*(S+1) for S=2.5   :     8.750000
Deviation                       :     0.028303

             **** THE GBW FILE WAS UPDATED (scan.gbw) ****
             **** DENSITY scan.scfp WAS UPDATED ****
----------------
ORBITAL ENERGIES
----------------
                 SPIN UP ORBITALS
  NO   OCC          E(Eh)            E(eV) 
   0   1.0000    -235.056739     -6396.2190 
   1   1.0000     -27.234285      -741.0826 
   2   1.0000     -23.282220      -633.5414 
   3   1.0000     -23.280451      -633.4933 
   4   1.0000     -23.280075      -633.4831 
   5   1.0000      -4.131162      -112.4146 
   6   1.0000      -4.131151      -112.4143 
   7   1.0000      -4.131050      -112.4116 
   8   1.0000      -4.131036      -112.4112 
   9   1.0000      -4.126049      -112.2755 
  10   1.0000      -4.125743      -112.2672 
  11   1.0000      -4.122408      -112.1764 
  12   1.0000      -4.122313      -112.1738 
  13   1.0000      -4.121991      -112.1651 
  14   1.0000      -4.121877      -112.1620 
  15   1.0000      -4.115756      -111.9954 
  16   1.0000      -4.115584      -111.9907 
  17   1.0000      -4.112235      -111.8996 
  18   1.0000      -4.112075      -111.8953 
  19   1.0000      -3.257575       -88.6431 
  20   1.0000      -2.320235       -63.1368 
  21   1.0000      -2.320204       -63.1360 
  22   1.0000      -2.318946       -63.1017 
  23   1.0000      -2.318907       -63.1007 
  24   1.0000      -2.317935       -63.0742 
  25   1.0000      -2.317835       -63.0715 
  26   1.0000      -2.316858       -63.0449 
  27   1.0000      -2.316752       -63.0420 
  28   1.0000      -2.315153       -62.9985 
  29   1.0000      -2.315150       -62.9984 
  30   1.0000      -2.314433       -62.9789 
  31   1.0000      -2.314367       -62.9771 
  32   1.0000      -2.312984       -62.9395 
  33   1.0000      -2.312420       -62.9242 
  34   1.0000      -2.312242       -62.9193 
  35   1.0000      -2.311870       -62.9092 
  36   1.0000      -2.310934       -62.8837 
  37   1.0000      -2.310746       -62.8786 
  38   1.0000      -2.310505       -62.8720 
  39   1.0000      -2.310154       -62.8625 
  40   1.0000      -2.308544       -62.8187 
  41   1.0000      -2.308436       -62.8157 
  42   1.0000      -2.308031       -62.8047 
  43   1.0000      -2.307967       -62.8030 
  44   1.0000      -2.306432       -62.7612 
  45   1.0000      -2.306236       -62.7559 
  46   1.0000      -2.305950       -62.7481 
  47   1.0000      -2.305495       -62.7357 
  48   1.0000      -2.304380       -62.7054 
  49   1.0000      -2.303731       -62.6877 
  50   1.0000      -2.303112       -62.6709 
  51   1.0000      -2.302396       -62.6514 
  52   1.0000      -2.302358       -62.6503 
  53   1.0000      -2.301610       -62.6300 
  54   1.0000      -2.300658       -62.6041 
  55   1.0000      -2.299888       -62.5831 
  56   1.0000      -2.298850       -62.5549 
  57   1.0000      -2.298174       -62.5365 
  58   1.0000      -2.297653       -62.5223 
  59   1.0000      -2.297593       -62.5207 
  60   1.0000      -2.295142       -62.4540 
  61   1.0000      -2.294233       -62.4292 
  62   1.0000      -2.116677       -57.5977 
  63   1.0000      -2.113217       -57.5036 
  64   1.0000      -2.112575       -57.4861 
  65   1.0000      -0.444155       -12.0861 
  66   1.0000      -0.400268       -10.8918 
  67   1.0000      -0.395848       -10.7716 
  68   1.0000      -0.391793       -10.6612 
  69   1.0000      -0.390785       -10.6338 
  70   1.0000      -0.386565       -10.5190 
  71   1.0000      -0.385523       -10.4906 
  72   1.0000      -0.384122       -10.4525 
  73   1.0000      -0.378869       -10.3095 
  74   1.0000      -0.376920       -10.2565 
  75   1.0000      -0.369320       -10.0497 
  76   1.0000      -0.367444        -9.9987 
  77   1.0000      -0.367078        -9.9887 
  78   1.0000      -0.366292        -9.9673 
  79   1.0000      -0.366038        -9.9604 
  80   1.0000      -0.363183        -9.8827 
  81   1.0000      -0.362280        -9.8582 
  82   1.0000      -0.361074        -9.8253 
  83   1.0000      -0.360558        -9.8113 
  84   1.0000      -0.354787        -9.6543 
  85   1.0000      -0.353496        -9.6191 
  86   1.0000      -0.351427        -9.5628 
  87   1.0000      -0.349772        -9.5178 
  88   1.0000      -0.349554        -9.5118 
  89   1.0000      -0.348647        -9.4872 
  90   1.0000      -0.347222        -9.4484 
  91   1.0000      -0.346170        -9.4198 
  92   1.0000      -0.336079        -9.1452 
  93   1.0000      -0.335609        -9.1324 
  94   1.0000      -0.332574        -9.0498 
  95   1.0000      -0.330130        -8.9833 
  96   1.0000      -0.328416        -8.9366 
  97   1.0000      -0.326628        -8.8880 
  98   1.0000      -0.326286        -8.8787 
  99   1.0000      -0.324267        -8.8238 
 100   1.0000      -0.319806        -8.7024 
 101   1.0000      -0.314833        -8.5670 
 102   1.0000      -0.313302        -8.5254 
 103   1.0000      -0.310746        -8.4558 
 104   1.0000      -0.308254        -8.3880 
 105   1.0000      -0.307194        -8.3592 
 106   1.0000      -0.305306        -8.3078 
 107   1.0000      -0.304542        -8.2870 
 108   1.0000      -0.299022        -8.1368 
 109   1.0000      -0.293737        -7.9930 
 110   1.0000      -0.291152        -7.9226 
 111   1.0000      -0.288116        -7.8400 
 112   1.0000      -0.286543        -7.7972 
 113   1.0000      -0.284995        -7.7551 
 114   1.0000      -0.281583        -7.6623 
 115   1.0000      -0.281450        -7.6586 
 116   1.0000      -0.281340        -7.6557 
 117   1.0000      -0.280677        -7.6376 
 118   1.0000      -0.278796        -7.5864 
 119   1.0000      -0.277315        -7.5461 
 120   1.0000      -0.276950        -7.5362 
 121   1.0000      -0.276497        -7.5239 
 122   1.0000      -0.275026        -7.4839 
 123   1.0000      -0.274909        -7.4806 
 124   1.0000      -0.273516        -7.4427 
 125   1.0000      -0.270777        -7.3682 
 126   1.0000      -0.270723        -7.3668 
 127   1.0000      -0.269500        -7.3335 
 128   1.0000      -0.269250        -7.3267 
 129   1.0000      -0.267868        -7.2891 
 130   1.0000      -0.266696        -7.2572 
 131   1.0000      -0.264266        -7.1910 
 132   1.0000      -0.263409        -7.1677 
 133   1.0000      -0.263126        -7.1600 
 134   1.0000      -0.262120        -7.1326 
 135   1.0000      -0.258005        -7.0207 
 136   1.0000      -0.256918        -6.9911 
 137   1.0000      -0.256434        -6.9779 
 138   1.0000      -0.253534        -6.8990 
 139   1.0000      -0.252503        -6.8710 
 140   1.0000      -0.251666        -6.8482 
 141   1.0000      -0.251440        -6.8420 
 142   1.0000      -0.249852        -6.7988 
 143   1.0000      -0.242500        -6.5988 
 144   1.0000      -0.213402        -5.8070 
 145   1.0000      -0.213007        -5.7962 
 146   1.0000      -0.205486        -5.5916 
 147   1.0000      -0.192720        -5.2442 
 148   0.0000      -0.198868        -5.4115 
 149   0.0000      -0.134502        -3.6600 
 150   0.0000      -0.124155        -3.3784 
 151   0.0000      -0.123027        -3.3477 
 152   0.0000      -0.121440        -3.3045 
 153   0.0000      -0.119200        -3.2436 
 154   0.0000      -0.115242        -3.1359 
 155   0.0000      -0.075834        -2.0635 
 156   0.0000      -0.072389        -1.9698 
 157   0.0000      -0.067848        -1.8462 
 158   0.0000      -0.061020        -1.6604 
 159   0.0000      -0.049620        -1.3502 
 160   0.0000      -0.026219        -0.7134 
 161   0.0000      -0.014513        -0.3949 
 162   0.0000      -0.012502        -0.3402 
 163   0.0000      -0.007168        -0.1950 
 164   0.0000      -0.005557        -0.1512 
 165   0.0000       0.009230         0.2512 
 166   0.0000       0.011076         0.3014 
 167   0.0000       0.016388         0.4459 
 168   0.0000       0.025639         0.6977 
 169   0.0000       0.028067         0.7637 
 170   0.0000       0.038305         1.0423 
 171   0.0000       0.041978         1.1423 
 172   0.0000       0.049882         1.3573 
 173   0.0000       0.057892         1.5753 
 174   0.0000       0.059011         1.6058 
 175   0.0000       0.073247         1.9932 
 176   0.0000       0.080616         2.1937 
 177   0.0000       0.080850         2.2000 
 178   0.0000       0.084159         2.2901 
 179   0.0000       0.086828         2.3627 
 180   0.0000       0.088911         2.4194 
 181   0.0000       0.091215         2.4821 
 182   0.0000       0.091846         2.4992 
 183   0.0000       0.093780         2.5519 
 184   0.0000       0.097909         2.6642 
 185   0.0000       0.101942         2.7740 
 186   0.0000       0.105494         2.8706 
 187   0.0000       0.121501         3.3062 
 188   0.0000       0.121540         3.3073 
 189   0.0000       0.123153         3.3512 
 190   0.0000       0.133976         3.6457 
 191   0.0000       0.136100         3.7035 
 192   0.0000       0.140535         3.8241 
 193   0.0000       0.156366         4.2549 
 194   0.0000       0.159633         4.3438 
 195   0.0000       0.166337         4.5263 
 196   0.0000       0.168702         4.5906 
 197   0.0000       0.169272         4.6061 
 198   0.0000       0.177097         4.8190 
 199   0.0000       0.177334         4.8255 
 200   0.0000       0.180105         4.9009 
 201   0.0000       0.182732         4.9724 
 202   0.0000       0.184110         5.0099 
 203   0.0000       0.184438         5.0188 
 204   0.0000       0.190065         5.1719 
 205   0.0000       0.207389         5.6433 
 206   0.0000       0.212464         5.7814 
 207   0.0000       0.213352         5.8056 
 208   0.0000       0.214233         5.8296 
 209   0.0000       0.224519         6.1095 
 210   0.0000       0.231957         6.3119 
 211   0.0000       0.238156         6.4805 
 212   0.0000       0.244950         6.6654 
 213   0.0000       0.246774         6.7151 
 214   0.0000       0.248627         6.7655 
 215   0.0000       0.248887         6.7726 
 216   0.0000       0.251632         6.8472 
 217   0.0000       0.257842         7.0162 
 218   0.0000       0.268748         7.3130 
 219   0.0000       0.275063         7.4849 
 220   0.0000       0.282638         7.6910 
 221   0.0000       0.284488         7.7413 
 222   0.0000       0.288686         7.8555 
 223   0.0000       0.289993         7.8911 
 224   0.0000       0.293672         7.9912 
 225   0.0000       0.297141         8.0856 
 226   0.0000       0.299093         8.1387 
 227   0.0000       0.303834         8.2678 
 228   0.0000       0.306369         8.3367 
 229   0.0000       0.310608         8.4521 
 230   0.0000       0.312176         8.4947 
 231   0.0000       0.315952         8.5975 
 232   0.0000       0.329699         8.9716 
 233   0.0000       0.333641         9.0788 
 234   0.0000       0.340160         9.2562 
 235   0.0000       0.343978         9.3601 
 236   0.0000       0.345331         9.3969 
 237   0.0000       0.358436         9.7535 
 238   0.0000       0.361325         9.8322 
 239   0.0000       0.368142        10.0177 
 240   0.0000       0.370740        10.0883 
 241   0.0000       0.371139        10.0992 
 242   0.0000       0.378712        10.3053 
 243   0.0000       0.379608        10.3297 
 244   0.0000       0.385716        10.4959 
 245   0.0000       0.395789        10.7700 
 246   0.0000       0.411122        11.1872 
 247   0.0000       0.412078        11.2132 
 248   0.0000       0.420961        11.4549 
 249   0.0000       0.422695        11.5021 
 250   0.0000       0.431387        11.7386 
 251   0.0000       0.435280        11.8446 
 252   0.0000       0.439860        11.9692 
 253   0.0000       0.440081        11.9752 
 254   0.0000       0.443861        12.0781 
 255   0.0000       0.446615        12.1530 
 256   0.0000       0.449470        12.2307 
 257   0.0000       0.459614        12.5067 
 258   0.0000       0.461855        12.5677 
 259   0.0000       0.463097        12.6015 
 260   0.0000       0.467224        12.7138 
 261   0.0000       0.472090        12.8462 
 262   0.0000       0.472421        12.8552 
 263   0.0000       0.478034        13.0080 
 264   0.0000       0.479884        13.0583 
 265   0.0000       0.488358        13.2889 
 266   0.0000       0.498330        13.5602 
 267   0.0000       0.499293        13.5865 
 268   0.0000       0.499824        13.6009 
 269   0.0000       0.501736        13.6529 
 270   0.0000       0.505637        13.7591 
 271   0.0000       0.511785        13.9264 
 272   0.0000       0.513179        13.9643 
 273   0.0000       0.516989        14.0680 
 274   0.0000       0.526526        14.3275 
 275   0.0000       0.531733        14.4692 
 276   0.0000       0.532997        14.5036 
 277   0.0000       0.534189        14.5360 
 278   0.0000       0.534507        14.5447 
 279   0.0000       0.548898        14.9363 
 280   0.0000       0.563097        15.3227 
 281   0.0000       0.564512        15.3612 
 282   0.0000       0.566765        15.4225 
 283   0.0000       0.570191        15.5157 
 284   0.0000       0.573678        15.6106 
 285   0.0000       0.576499        15.6873 
 286   0.0000       0.593516        16.1504 
 287   0.0000       0.612492        16.6668 
 288   0.0000       0.627660        17.0795 
 289   0.0000       0.653172        17.7737 
 290   0.0000       0.663114        18.0442 
 291   0.0000       0.698725        19.0133 
 292   0.0000       0.701727        19.0950 
 293   0.0000       0.705492        19.1974 
 294   0.0000       0.714970        19.4553 
 295   0.0000       0.732137        19.9225 
 296   0.0000       0.732955        19.9447 
 297   0.0000       0.734482        19.9863 
 298   0.0000       0.739752        20.1297 
 299   0.0000       0.740354        20.1461 
 300   0.0000       0.769277        20.9331 
 301   0.0000       0.772215        21.0130 
 302   0.0000       0.785462        21.3735 
 303   0.0000       0.789194        21.4750 
 304   0.0000       0.796979        21.6869 
 305   0.0000       0.807672        21.9779 
 306   0.0000       0.811036        22.0694 
 307   0.0000       0.813773        22.1439 
 308   0.0000       0.819622        22.3030 
 309   0.0000       0.822612        22.3844 
 310   0.0000       0.836415        22.7600 
 311   0.0000       0.848302        23.0835 
 312   0.0000       0.858940        23.3730 
 313   0.0000       0.869907        23.6714 
 314   0.0000       0.871542        23.7159 
 315   0.0000       0.881476        23.9862 
 316   0.0000       0.886989        24.1362 
 317   0.0000       0.894710        24.3463 
 318   0.0000       0.898831        24.4584 
 319   0.0000       0.912247        24.8235 
 320   0.0000       0.916827        24.9481 
 321   0.0000       0.932058        25.3626 
 322   0.0000       0.933731        25.4081 
 323   0.0000       0.945762        25.7355 
 324   0.0000       0.948110        25.7994 
 325   0.0000       0.954687        25.9784 
 326   0.0000       0.958336        26.0776 
 327   0.0000       0.963441        26.2166 
 328   0.0000       0.963961        26.2307 
 329   0.0000       1.007699        27.4209 
 330   0.0000       1.008330        27.4380 
 331   0.0000       1.068901        29.0863 
 332   0.0000       1.177208        32.0334 
 333   0.0000       1.185001        32.2455 
 334   0.0000       1.192375        32.4462 
 335   0.0000       1.258963        34.2581 
 336   0.0000       1.264709        34.4145 
 337   0.0000       1.267811        34.4989 
 338   0.0000       1.298114        35.3235 
 339   0.0000       1.308006        35.5926 
 340   0.0000       1.308780        35.6137 
 341   0.0000       1.310536        35.6615 
 342   0.0000       1.315607        35.7995 
 343   0.0000       1.318464        35.8772 
 344   0.0000       1.320593        35.9352 
 345   0.0000       1.342564        36.5330 
 346   0.0000       1.345199        36.6047 
 347   0.0000       1.346973        36.6530 
 348   0.0000       1.358162        36.9575 
 349   0.0000       1.367512        37.2119 
 350   0.0000       1.381840        37.6018 
 351   0.0000       1.385043        37.6889 
 352   0.0000       1.388872        37.7931 
 353   0.0000       1.391457        37.8635 
 354   0.0000       1.395736        37.9799 
 355   0.0000       1.397295        38.0223 
 356   0.0000       1.404837        38.2276 
 357   0.0000       1.418451        38.5980 
 358   0.0000       1.422074        38.6966 
 359   0.0000       1.429235        38.8915 
 360   0.0000       1.429545        38.8999 
 361   0.0000       1.434154        39.0253 
 362   0.0000       1.458100        39.6769 
 363   0.0000       1.465866        39.8882 
 364   0.0000       1.466785        39.9133 
 365   0.0000       1.467907        39.9438 
 366   0.0000       1.470285        40.0085 
 367   0.0000       1.473264        40.0896 
 368   0.0000       1.476125        40.1674 
 369   0.0000       1.480462        40.2854 
 370   0.0000       1.480912        40.2977 
 371   0.0000       1.491164        40.5766 
 372   0.0000       1.491737        40.5922 
 373   0.0000       1.498451        40.7749 
 374   0.0000       1.498559        40.7779 
 375   0.0000       1.500359        40.8268 
 376   0.0000       1.503762        40.9194 
 377   0.0000       1.508605        41.0512 
 378   0.0000       1.509165        41.0665 
 379   0.0000       1.509719        41.0815 
 380   0.0000       1.514119        41.2013 
 381   0.0000       1.516180        41.2574 
 382   0.0000       1.523439        41.4549 
 383   0.0000       1.523690        41.4617 
 384   0.0000       1.531160        41.6650 
 385   0.0000       1.531603        41.6770 
 386   0.0000       1.532117        41.6910 
 387   0.0000       1.535398        41.7803 
 388   0.0000       1.535447        41.7816 
 389   0.0000       1.540894        41.9299 
 390   0.0000       1.543304        41.9954 
 391   0.0000       1.547691        42.1148 
 392   0.0000       1.548555        42.1383 
 393   0.0000       1.549197        42.1558 
 394   0.0000       1.550658        42.1956 
 395   0.0000       1.550832        42.2003 
 396   0.0000       1.554204        42.2920 
 397   0.0000       1.557228        42.3743 
 398   0.0000       1.558280        42.4029 
 399   0.0000       1.560762        42.4705 
 400   0.0000       1.562005        42.5043 
 401   0.0000       1.562690        42.5229 
 402   0.0000       1.564937        42.5841 
 403   0.0000       1.565202        42.5913 
 404   0.0000       1.567470        42.6530 
 405   0.0000       1.569416        42.7060 
 406   0.0000       1.569984        42.7214 
 407   0.0000       1.571494        42.7625 
 408   0.0000       1.572596        42.7925 
 409   0.0000       1.573207        42.8091 
 410   0.0000       1.576789        42.9066 
 411   0.0000       1.577479        42.9254 
 412   0.0000       1.577724        42.9320 
 413   0.0000       1.579940        42.9923 
 414   0.0000       1.580962        43.0202 
 415   0.0000       1.581278        43.0288 
 416   0.0000       1.585686        43.1487 
 417   0.0000       1.586949        43.1831 
 418   0.0000       1.589967        43.2652 
 419   0.0000       1.590890        43.2903 
 420   0.0000       1.594378        43.3852 
 421   0.0000       1.594780        43.3962 
 422   0.0000       1.595793        43.4237 
 423   0.0000       1.599644        43.5285 
 424   0.0000       1.600610        43.5548 
 425   0.0000       1.604596        43.6633 
 426   0.0000       1.607470        43.7415 
 427   0.0000       1.614602        43.9355 
 428   0.0000       1.615275        43.9539 
 429   0.0000       1.615360        43.9562 
 430   0.0000       1.623550        44.1790 
 431   0.0000       1.626006        44.2459 
 432   0.0000       1.626392        44.2564 
 433   0.0000       1.626929        44.2710 
 434   0.0000       1.629745        44.3476 
 435   0.0000       1.630910        44.3793 
 436   0.0000       1.633259        44.4432 
 437   0.0000       1.634116        44.4665 
 438   0.0000       1.635525        44.5049 
 439   0.0000       1.637069        44.5469 
 440   0.0000       1.638137        44.5760 
 441   0.0000       1.639689        44.6182 
 442   0.0000       1.640018        44.6271 
 443   0.0000       1.647616        44.8339 
 444   0.0000       1.650221        44.9048 
 445   0.0000       1.651613        44.9427 
 446   0.0000       1.652530        44.9676 
 447   0.0000       1.655307        45.0432 
 448   0.0000       1.656048        45.0634 
 449   0.0000       1.658341        45.1257 
 450   0.0000       1.665677        45.3254 
 451   0.0000       1.667440        45.3733 
 452   0.0000       1.669054        45.4173 
 453   0.0000       1.673539        45.5393 
 454   0.0000       1.675802        45.6009 
 455   0.0000       1.679964        45.7141 
 456   0.0000       1.682200        45.7750 
 457   0.0000       1.682850        45.7927 
 458   0.0000       1.688122        45.9361 
 459   0.0000       1.698153        46.2091 
 460   0.0000       1.700663        46.2774 
 461   0.0000       1.701326        46.2954 
 462   0.0000       1.703244        46.3476 
 463   0.0000       1.703477        46.3540 
 464   0.0000       1.704618        46.3850 
 465   0.0000       1.716793        46.7163 
 466   0.0000       1.720493        46.8170 
 467   0.0000       1.724049        46.9138 
 468   0.0000       1.724783        46.9337 
 469   0.0000       1.730647        47.0933 
 470   0.0000       1.731897        47.1273 
 471   0.0000       1.734414        47.1958 
 472   0.0000       1.757337        47.8196 
 473   0.0000       1.765012        48.0284 
 474   0.0000       1.774091        48.2755 
 475   0.0000       1.781932        48.4888 
 476   0.0000       1.786635        48.6168 
 477   0.0000       1.791905        48.7602 
 478   0.0000       1.800122        48.9838 
 479   0.0000       1.809431        49.2371 
 480   0.0000       1.811452        49.2921 
 481   0.0000       1.831934        49.8495 
 482   0.0000       1.837926        50.0125 
 483   0.0000       1.844173        50.1825 
 484   0.0000       1.855909        50.5019 
 485   0.0000       1.859269        50.5933 
 486   0.0000       1.860440        50.6251 
 487   0.0000       1.860751        50.6336 
 488   0.0000       1.874655        51.0120 
 489   0.0000       1.878896        51.1274 
 490   0.0000       1.882793        51.2334 
 491   0.0000       1.897452        51.6323 
 492   0.0000       1.901006        51.7290 
 493   0.0000       1.902792        51.7776 
 494   0.0000       1.908030        51.9201 
 495   0.0000       1.920064        52.2476 
 496   0.0000       1.933526        52.6139 
 497   0.0000       1.934986        52.6537 
 498   0.0000       1.950456        53.0746 
 499   0.0000       1.985056        54.0161 
 500   0.0000       2.023259        55.0557 
 501   0.0000       2.043502        55.6065 
 502   0.0000       2.137144        58.1546 
 503   0.0000       2.158329        58.7311 
 504   0.0000       2.187063        59.5130 
 505   0.0000       2.199264        59.8450 
 506   0.0000       2.313333        62.9490 
 507   0.0000       2.319018        63.1037 
 508   0.0000       2.321244        63.1643 
 509   0.0000       2.399337        65.2893 
 510   0.0000       2.421602        65.8951 
 511   0.0000       2.447313        66.5948 
 512   0.0000       2.506703        68.2109 
 513   0.0000       2.516768        68.4847 
 514   0.0000       2.532705        68.9184 
 515   0.0000       2.557548        69.5944 
 516   0.0000       2.585539        70.3561 
 517   0.0000       2.586879        70.3926 
 518   0.0000       2.592459        70.5444 
 519   0.0000       2.609396        71.0053 
 520   0.0000       2.637176        71.7612 
 521   0.0000       2.646410        72.0125 
 522   0.0000       3.289918        89.5232 
 523   0.0000       3.302352        89.8616 
 524   0.0000       3.314912        90.2033 
 525   0.0000       3.320413        90.3530 
 526   0.0000       3.327162        90.5367 
 527   0.0000       3.328904        90.5841 
 528   0.0000       3.337764        90.8252 
 529   0.0000       3.341489        90.9265 
 530   0.0000       3.445377        93.7535 
 531   0.0000       3.511066        95.5410 
 532   0.0000       3.557043        96.7921 
 533   0.0000       3.625957        98.6673 
 534   0.0000       3.706958       100.8714 
 535   0.0000      24.271034       660.4484 
 536   0.0000      24.405150       664.0979 
 537   0.0000      24.451110       665.3485 
 538   0.0000      24.636597       670.3959 
 539   0.0000      24.684276       671.6933 
 540   0.0000      24.850951       676.2288 
 541   0.0000      24.875095       676.8858 
 542   0.0000      25.281709       687.9503 
 543   0.0000      25.339954       689.5352 
 544   0.0000      25.374720       690.4812 
 545   0.0000      25.551384       695.2885 
 546   0.0000      25.689786       699.0546 
 547   0.0000      25.866582       703.8655 
 548   0.0000      25.921749       705.3667 
 549   0.0000      25.930845       705.6142 
 550   0.0000      26.049024       708.8300 
 551   0.0000      26.100513       710.2311 
 552   0.0000      26.131904       711.0853 
 553   0.0000      26.324051       716.3139 
 554   0.0000      26.346626       716.9281 
 555   0.0000      26.371112       717.5944 
 556   0.0000      26.385025       717.9730 
 557   0.0000      26.446743       719.6525 
 558   0.0000      26.600911       723.8476 
 559   0.0000      26.712213       726.8763 
 560   0.0000      26.834692       730.2091 
 561   0.0000      26.907976       732.2032 
 562   0.0000      27.184529       739.7286 
 563   0.0000      27.479260       747.7487 
 564   0.0000      27.499522       748.3000 
 565   0.0000      27.505093       748.4516 
 566   0.0000      27.551703       749.7200 
 567   0.0000      27.659975       752.6662 
 568   0.0000      27.754998       755.2519 
 569   0.0000      27.789815       756.1993 
 570   0.0000      27.855042       757.9742 
 571   0.0000      28.569600       777.4183 
 572   0.0000      28.845158       784.9167 
 573   0.0000      28.914525       786.8042 
 574   0.0000      29.726083       808.8879 
 575   0.0000      30.677115       834.7667 
 576   0.0000      32.058552       872.3576 
 577   0.0000      44.399178      1208.1631 
 578   0.0000      44.510206      1211.1843 
 579   0.0000      44.526114      1211.6172 
 580   0.0000      44.552268      1212.3288 
 581   0.0000      44.606684      1213.8096 
 582   0.0000      44.610871      1213.9235 
 583   0.0000      44.622982      1214.2531 
 584   0.0000      44.646701      1214.8985 
 585   0.0000      44.650885      1215.0124 
 586   0.0000      44.653910      1215.0947 
 587   0.0000      44.654542      1215.1119 
 588   0.0000      44.692973      1216.1576 
 589   0.0000      44.727174      1217.0883 
 590   0.0000      44.741230      1217.4708 
 591   0.0000     205.250731      5585.1563 
 592   0.0000     205.298009      5586.4428 
 593   0.0000     205.305323      5586.6419 
 594   0.0000     205.313255      5586.8577 
 595   0.0000     205.340505      5587.5992 
 596   0.0000     205.341849      5587.6358 
 597   0.0000     205.347431      5587.7877 
 598   0.0000     205.357387      5588.0586 
 599   0.0000     205.361040      5588.1580 
 600   0.0000     205.361115      5588.1600 
 601   0.0000     205.364701      5588.2576 
 602   0.0000     205.370218      5588.4077 
 603   0.0000     205.388213      5588.8974 
 604   0.0000     205.395788      5589.1035 

                 SPIN DOWN ORBITALS
  NO   OCC          E(Eh)            E(eV) 
   0   1.0000    -235.055721     -6396.1914 
   1   1.0000     -27.145133      -738.6566 
   2   1.0000     -23.213764      -631.6786 
   3   1.0000     -23.212985      -631.6574 
   4   1.0000     -23.210877      -631.6001 
   5   1.0000      -4.130290      -112.3909 
   6   1.0000      -4.130271      -112.3904 
   7   1.0000      -4.130170      -112.3876 
   8   1.0000      -4.130160      -112.3874 
   9   1.0000      -4.125370      -112.2570 
  10   1.0000      -4.125060      -112.2486 
  11   1.0000      -4.121466      -112.1508 
  12   1.0000      -4.121371      -112.1482 
  13   1.0000      -4.121045      -112.1393 
  14   1.0000      -4.120933      -112.1363 
  15   1.0000      -4.115263      -111.9820 
  16   1.0000      -4.115090      -111.9773 
  17   1.0000      -4.111881      -111.8900 
  18   1.0000      -4.111728      -111.8858 
  19   1.0000      -3.044851       -82.8546 
  20   1.0000      -2.318897       -63.1004 
  21   1.0000      -2.318868       -63.0996 
  22   1.0000      -2.317445       -63.0609 
  23   1.0000      -2.317416       -63.0601 
  24   1.0000      -2.316959       -63.0477 
  25   1.0000      -2.316862       -63.0450 
  26   1.0000      -2.316135       -63.0252 
  27   1.0000      -2.316034       -63.0225 
  28   1.0000      -2.314404       -62.9781 
  29   1.0000      -2.314393       -62.9778 
  30   1.0000      -2.313595       -62.9561 
  31   1.0000      -2.313514       -62.9539 
  32   1.0000      -2.312144       -62.9166 
  33   1.0000      -2.311555       -62.9006 
  34   1.0000      -2.311492       -62.8989 
  35   1.0000      -2.311031       -62.8864 
  36   1.0000      -2.310109       -62.8613 
  37   1.0000      -2.309898       -62.8555 
  38   1.0000      -2.309534       -62.8456 
  39   1.0000      -2.309198       -62.8365 
  40   1.0000      -2.307266       -62.7839 
  41   1.0000      -2.307075       -62.7787 
  42   1.0000      -2.306769       -62.7704 
  43   1.0000      -2.306679       -62.7679 
  44   1.0000      -2.305551       -62.7372 
  45   1.0000      -2.305123       -62.7256 
  46   1.0000      -2.304783       -62.7163 
  47   1.0000      -2.304699       -62.7140 
  48   1.0000      -2.303553       -62.6829 
  49   1.0000      -2.302931       -62.6659 
  50   1.0000      -2.302709       -62.6599 
  51   1.0000      -2.301917       -62.6384 
  52   1.0000      -2.301892       -62.6377 
  53   1.0000      -2.301078       -62.6155 
  54   1.0000      -2.300033       -62.5871 
  55   1.0000      -2.299316       -62.5676 
  56   1.0000      -2.298418       -62.5431 
  57   1.0000      -2.297796       -62.5262 
  58   1.0000      -2.297233       -62.5109 
  59   1.0000      -2.297189       -62.5097 
  60   1.0000      -2.294800       -62.4447 
  61   1.0000      -2.293948       -62.4215 
  62   1.0000      -1.904926       -51.8357 
  63   1.0000      -1.903665       -51.8013 
  64   1.0000      -1.899572       -51.6900 
  65   1.0000      -0.436572       -11.8797 
  66   1.0000      -0.398402       -10.8411 
  67   1.0000      -0.391642       -10.6571 
  68   1.0000      -0.389396       -10.5960 
  69   1.0000      -0.379767       -10.3340 
  70   1.0000      -0.375429       -10.2159 
  71   1.0000      -0.374776       -10.1982 
  72   1.0000      -0.374262       -10.1842 
  73   1.0000      -0.373452       -10.1621 
  74   1.0000      -0.368615       -10.0305 
  75   1.0000      -0.366490        -9.9727 
  76   1.0000      -0.366254        -9.9663 
  77   1.0000      -0.366190        -9.9645 
  78   1.0000      -0.364828        -9.9275 
  79   1.0000      -0.364669        -9.9231 
  80   1.0000      -0.360462        -9.8087 
  81   1.0000      -0.360109        -9.7991 
  82   1.0000      -0.359743        -9.7891 
  83   1.0000      -0.358189        -9.7468 
  84   1.0000      -0.353648        -9.6233 
  85   1.0000      -0.352873        -9.6022 
  86   1.0000      -0.350299        -9.5321 
  87   1.0000      -0.348278        -9.4771 
  88   1.0000      -0.348005        -9.4697 
  89   1.0000      -0.345477        -9.4009 
  90   1.0000      -0.341154        -9.2833 
  91   1.0000      -0.334581        -9.1044 
  92   1.0000      -0.333680        -9.0799 
  93   1.0000      -0.331200        -9.0124 
  94   1.0000      -0.329254        -8.9594 
  95   1.0000      -0.325624        -8.8607 
  96   1.0000      -0.324844        -8.8394 
  97   1.0000      -0.322295        -8.7701 
  98   1.0000      -0.321870        -8.7585 
  99   1.0000      -0.319608        -8.6970 
 100   1.0000      -0.318171        -8.6579 
 101   1.0000      -0.306982        -8.3534 
 102   1.0000      -0.305908        -8.3242 
 103   1.0000      -0.305250        -8.3063 
 104   1.0000      -0.305013        -8.2998 
 105   1.0000      -0.304285        -8.2800 
 106   1.0000      -0.302262        -8.2250 
 107   1.0000      -0.296542        -8.0693 
 108   1.0000      -0.292473        -7.9586 
 109   1.0000      -0.291824        -7.9409 
 110   1.0000      -0.288762        -7.8576 
 111   1.0000      -0.287053        -7.8111 
 112   1.0000      -0.281282        -7.6541 
 113   1.0000      -0.280137        -7.6229 
 114   1.0000      -0.279831        -7.6146 
 115   1.0000      -0.279656        -7.6098 
 116   1.0000      -0.278172        -7.5694 
 117   1.0000      -0.276821        -7.5327 
 118   1.0000      -0.274502        -7.4696 
 119   1.0000      -0.274041        -7.4570 
 120   1.0000      -0.273750        -7.4491 
 121   1.0000      -0.273077        -7.4308 
 122   1.0000      -0.272154        -7.4057 
 123   1.0000      -0.271104        -7.3771 
 124   1.0000      -0.267639        -7.2828 
 125   1.0000      -0.266670        -7.2564 
 126   1.0000      -0.263355        -7.1663 
 127   1.0000      -0.263299        -7.1647 
 128   1.0000      -0.262915        -7.1543 
 129   1.0000      -0.261953        -7.1281 
 130   1.0000      -0.256601        -6.9825 
 131   1.0000      -0.255913        -6.9638 
 132   1.0000      -0.255004        -6.9390 
 133   1.0000      -0.252909        -6.8820 
 134   1.0000      -0.251596        -6.8463 
 135   1.0000      -0.250867        -6.8264 
 136   1.0000      -0.250470        -6.8156 
 137   1.0000      -0.248967        -6.7747 
 138   1.0000      -0.241893        -6.5822 
 139   1.0000      -0.217901        -5.9294 
 140   1.0000      -0.216839        -5.9005 
 141   1.0000      -0.212596        -5.7850 
 142   1.0000      -0.198045        -5.3891 
 143   0.0000      -0.209734        -5.7072 
 144   0.0000      -0.125724        -3.4211 
 145   0.0000      -0.124310        -3.3826 
 146   0.0000      -0.123600        -3.3633 
 147   0.0000      -0.122388        -3.3303 
 148   0.0000      -0.120408        -3.2765 
 149   0.0000      -0.116866        -3.1801 
 150   0.0000      -0.116080        -3.1587 
 151   0.0000      -0.113922        -3.1000 
 152   0.0000      -0.113281        -3.0825 
 153   0.0000      -0.112523        -3.0619 
 154   0.0000      -0.111948        -3.0462 
 155   0.0000      -0.073532        -2.0009 
 156   0.0000      -0.066505        -1.8097 
 157   0.0000      -0.061651        -1.6776 
 158   0.0000      -0.055610        -1.5132 
 159   0.0000      -0.045639        -1.2419 
 160   0.0000      -0.023220        -0.6319 
 161   0.0000      -0.012871        -0.3502 
 162   0.0000      -0.010937        -0.2976 
 163   0.0000      -0.002020        -0.0550 
 164   0.0000       0.003015         0.0820 
 165   0.0000       0.015633         0.4254 
 166   0.0000       0.018600         0.5061 
 167   0.0000       0.021936         0.5969 
 168   0.0000       0.031713         0.8630 
 169   0.0000       0.031983         0.8703 
 170   0.0000       0.044907         1.2220 
 171   0.0000       0.046864         1.2752 
 172   0.0000       0.053463         1.4548 
 173   0.0000       0.059831         1.6281 
 174   0.0000       0.060565         1.6480 
 175   0.0000       0.075454         2.0532 
 176   0.0000       0.081559         2.2193 
 177   0.0000       0.082550         2.2463 
 178   0.0000       0.085854         2.3362 
 179   0.0000       0.087141         2.3712 
 180   0.0000       0.089290         2.4297 
 181   0.0000       0.093354         2.5403 
 182   0.0000       0.095887         2.6092 
 183   0.0000       0.097777         2.6606 
 184   0.0000       0.102382         2.7860 
 185   0.0000       0.103674         2.8211 
 186   0.0000       0.107401         2.9225 
 187   0.0000       0.122309         3.3282 
 188   0.0000       0.122888         3.3439 
 189   0.0000       0.123916         3.3719 
 190   0.0000       0.141147         3.8408 
 191   0.0000       0.141438         3.8487 
 192   0.0000       0.146475         3.9858 
 193   0.0000       0.163829         4.4580 
 194   0.0000       0.169313         4.6072 
 195   0.0000       0.173267         4.7148 
 196   0.0000       0.174217         4.7407 
 197   0.0000       0.177053         4.8179 
 198   0.0000       0.179647         4.8884 
 199   0.0000       0.181163         4.9297 
 200   0.0000       0.183230         4.9859 
 201   0.0000       0.184393         5.0176 
 202   0.0000       0.188144         5.1197 
 203   0.0000       0.191082         5.1996 
 204   0.0000       0.198523         5.4021 
 205   0.0000       0.208304         5.6682 
 206   0.0000       0.213264         5.8032 
 207   0.0000       0.213912         5.8208 
 208   0.0000       0.216896         5.9020 
 209   0.0000       0.225836         6.1453 
 210   0.0000       0.238729         6.4962 
 211   0.0000       0.238759         6.4970 
 212   0.0000       0.246338         6.7032 
 213   0.0000       0.247249         6.7280 
 214   0.0000       0.248991         6.7754 
 215   0.0000       0.249387         6.7862 
 216   0.0000       0.252595         6.8735 
 217   0.0000       0.258505         7.0343 
 218   0.0000       0.269271         7.3272 
 219   0.0000       0.275571         7.4987 
 220   0.0000       0.283365         7.7108 
 221   0.0000       0.285035         7.7562 
 222   0.0000       0.289593         7.8802 
 223   0.0000       0.290470         7.9041 
 224   0.0000       0.294621         8.0170 
 225   0.0000       0.297512         8.0957 
 226   0.0000       0.300568         8.1789 
 227   0.0000       0.304336         8.2814 
 228   0.0000       0.310486         8.4488 
 229   0.0000       0.312836         8.5127 
 230   0.0000       0.314897         8.5688 
 231   0.0000       0.319259         8.6875 
 232   0.0000       0.330331         8.9888 
 233   0.0000       0.337252         9.1771 
 234   0.0000       0.345189         9.3931 
 235   0.0000       0.345726         9.4077 
 236   0.0000       0.347226         9.4485 
 237   0.0000       0.359479         9.7819 
 238   0.0000       0.362135         9.8542 
 239   0.0000       0.369104        10.0438 
 240   0.0000       0.371794        10.1170 
 241   0.0000       0.373534        10.1644 
 242   0.0000       0.379729        10.3330 
 243   0.0000       0.380423        10.3518 
 244   0.0000       0.386764        10.5244 
 245   0.0000       0.396922        10.8008 
 246   0.0000       0.413019        11.2388 
 247   0.0000       0.416523        11.3342 
 248   0.0000       0.424485        11.5508 
 249   0.0000       0.424849        11.5607 
 250   0.0000       0.433965        11.8088 
 251   0.0000       0.438549        11.9335 
 252   0.0000       0.440953        11.9989 
 253   0.0000       0.446088        12.1387 
 254   0.0000       0.447894        12.1878 
 255   0.0000       0.450998        12.2723 
 256   0.0000       0.451810        12.2944 
 257   0.0000       0.460661        12.5352 
 258   0.0000       0.464131        12.6296 
 259   0.0000       0.467884        12.7318 
 260   0.0000       0.473712        12.8904 
 261   0.0000       0.474006        12.8984 
 262   0.0000       0.475898        12.9498 
 263   0.0000       0.482936        13.1414 
 264   0.0000       0.487088        13.2543 
 265   0.0000       0.494262        13.4496 
 266   0.0000       0.501617        13.6497 
 267   0.0000       0.502570        13.6756 
 268   0.0000       0.503552        13.7023 
 269   0.0000       0.504664        13.7326 
 270   0.0000       0.507026        13.7969 
 271   0.0000       0.514062        13.9883 
 272   0.0000       0.517911        14.0931 
[...]
      f-2     :     0.001129
      f+3     :     0.000663
      f-3     :     0.000760
  5 Aus       :     2.610557  s :     2.610557
      pz      :     2.153713  p :     6.461457
      px      :     2.148796
      py      :     2.158949
      dz2     :     1.955811  d :     9.875239
      dxz     :     1.991014
      dyz     :     1.982808
      dx2y2   :     1.996119
      dxy     :     1.949486
      f0      :     0.000602  f :     0.005434
      f+1     :     0.000871
      f-1     :     0.000705
      f+2     :     0.000860
      f-2     :     0.000582
      f+3     :     0.000780
      f-3     :     0.001034
  6 Aus       :     2.608990  s :     2.608990
      pz      :     2.147860  p :     6.461975
      px      :     2.107205
      py      :     2.206910
      dz2     :     1.964878  d :     9.875313
      dxz     :     1.986801
      dyz     :     1.974739
      dx2y2   :     1.961248
      dxy     :     1.987647
      f0      :     0.000610  f :     0.005432
      f+1     :     0.000864
      f-1     :     0.000747
      f+2     :     0.000799
      f-2     :     0.000554
      f+3     :     0.000964
      f-3     :     0.000894
  7 Aus       :     2.590588  s :     2.590588
      pz      :     2.179602  p :     6.486515
      px      :     2.178476
      py      :     2.128438
      dz2     :     1.976953  d :     9.892741
      dxz     :     1.973631
      dyz     :     1.980660
      dx2y2   :     1.979984
      dxy     :     1.981513
      f0      :     0.000617  f :     0.005399
      f+1     :     0.000850
      f-1     :     0.000876
      f+2     :     0.000892
      f-2     :     0.000648
      f+3     :     0.000721
      f-3     :     0.000794
  8 Aus       :     2.609649  s :     2.609649
      pz      :     2.104251  p :     6.461700
      px      :     2.149672
      py      :     2.207777
      dz2     :     1.955752  d :     9.875189
      dxz     :     1.988178
      dyz     :     1.988473
      dx2y2   :     1.967898
      dxy     :     1.974888
      f0      :     0.000644  f :     0.005427
      f+1     :     0.000661
      f-1     :     0.000769
      f+2     :     0.001235
      f-2     :     0.000563
      f+3     :     0.000702
      f-3     :     0.000852
  9 Aus       :     2.504613  s :     2.504613
      pz      :     2.177888  p :     6.541598
      px      :     2.192173
      py      :     2.171537
      dz2     :     1.991304  d :     9.894297
      dxz     :     1.963726
      dyz     :     1.982166
      dx2y2   :     1.986098
      dxy     :     1.971003
      f0      :     0.000841  f :     0.006003
      f+1     :     0.000992
      f-1     :     0.000887
      f+2     :     0.000834
      f-2     :     0.000782
      f+3     :     0.000663
      f-3     :     0.001006
 10 Aus       :     2.611054  s :     2.611054
      pz      :     2.150432  p :     6.461131
      px      :     2.152896
      py      :     2.157803
      dz2     :     1.986864  d :     9.875305
      dxz     :     1.989274
      dyz     :     1.948348
      dx2y2   :     1.966963
      dxy     :     1.983857
      f0      :     0.000766  f :     0.005435
      f+1     :     0.000721
      f-1     :     0.000913
      f+2     :     0.000958
      f-2     :     0.000572
      f+3     :     0.000672
      f-3     :     0.000833
 11 Aus       :     2.504630  s :     2.504630
      pz      :     2.193280  p :     6.540678
      px      :     2.148443
      py      :     2.198955
      dz2     :     1.991762  d :     9.893803
      dxz     :     1.973682
      dyz     :     1.982037
      dx2y2   :     1.980057
      dxy     :     1.966265
      f0      :     0.001030  f :     0.005972
      f+1     :     0.000654
      f-1     :     0.000783
      f+2     :     0.000888
      f-2     :     0.000863
      f+3     :     0.000847
      f-3     :     0.000907
 12 Aus       :     2.577352  s :     2.577352
      pz      :     2.187446  p :     6.498716
      px      :     2.100865
      py      :     2.210405
      dz2     :     1.973184  d :     9.904223
      dxz     :     1.995488
      dyz     :     1.955022
      dx2y2   :     1.981589
      dxy     :     1.998940
      f0      :     0.000666  f :     0.005612
      f+1     :     0.000866
      f-1     :     0.000789
      f+2     :     0.000853
      f-2     :     0.000898
      f+3     :     0.000859
      f-3     :     0.000682
 13 Aus       :     2.568581  s :     2.568581
      pz      :     2.194652  p :     6.504863
      px      :     2.192580
      py      :     2.117631
      dz2     :     1.975397  d :     9.913740
      dxz     :     1.974996
      dyz     :     1.989205
      dx2y2   :     1.983965
      dxy     :     1.990177
      f0      :     0.000636  f :     0.005698
      f+1     :     0.000891
      f-1     :     0.000959
      f+2     :     0.000923
      f-2     :     0.000724
      f+3     :     0.000741
      f-3     :     0.000826
 14 Mns       :     6.245209  s :     6.245209
      pz      :     4.179654  p :    12.525779
      px      :     4.183341
      py      :     4.162784
      dz2     :     1.382592  d :     6.727565
      dxz     :     1.293125
      dyz     :     1.351956
      dx2y2   :     1.346453
      dxy     :     1.353438
      f0      :     0.000122  f :     0.000885
      f+1     :     0.000115
      f-1     :     0.000145
      f+2     :     0.000097
      f-2     :     0.000161
      f+3     :     0.000100
      f-3     :     0.000146

SPIN
  0 Aus       :     0.005925  s :     0.005925
      pz      :     0.003977  p :    -0.053578
      px      :    -0.049447
      py      :    -0.008108
      dz2     :     0.002503  d :    -0.028425
      dxz     :    -0.013103
      dyz     :    -0.001136
      dx2y2   :    -0.007892
      dxy     :    -0.008797
      f0      :     0.000017  f :    -0.000030
      f+1     :    -0.000011
      f-1     :    -0.000004
      f+2     :    -0.000012
      f-2     :    -0.000012
      f+3     :    -0.000007
      f-3     :    -0.000002
  1 Aus       :    -0.021209  s :    -0.021209
      pz      :    -0.014149  p :    -0.026658
      px      :    -0.015421
      py      :     0.002912
      dz2     :    -0.015246  d :    -0.032194
      dxz     :    -0.000233
      dyz     :    -0.001806
      dx2y2   :    -0.013032
      dxy     :    -0.001878
      f0      :    -0.000002  f :    -0.000042
      f+1     :    -0.000018
      f-1     :    -0.000020
      f+2     :    -0.000008
      f-2     :     0.000024
      f+3     :     0.000006
      f-3     :    -0.000023
  2 Aus       :    -0.099080  s :    -0.099080
      pz      :     0.003814  p :    -0.035396
      px      :    -0.015552
      py      :    -0.023658
      dz2     :     0.007867  d :     0.012699
      dxz     :     0.005784
      dyz     :     0.005172
      dx2y2   :    -0.006824
      dxy     :     0.000700
      f0      :     0.000052  f :     0.000275
      f+1     :     0.000034
      f-1     :     0.000085
      f+2     :     0.000034
      f-2     :     0.000084
      f+3     :    -0.000008
      f-3     :    -0.000006
  3 Aus       :    -0.097550  s :    -0.097550
      pz      :    -0.002718  p :    -0.035480
      px      :    -0.010568
      py      :    -0.022193
      dz2     :     0.002633  d :     0.012023
      dxz     :     0.004499
      dyz     :     0.007373
      dx2y2   :    -0.005749
      dxy     :     0.003266
      f0      :     0.000026  f :     0.000262
      f+1     :     0.000028
      f-1     :     0.000031
      f+2     :     0.000037
      f-2     :     0.000091
      f+3     :     0.000019
      f-3     :     0.000028
  4 Aus       :     0.001495  s :     0.001495
      pz      :    -0.021120  p :    -0.043377
      px      :    -0.024243
      py      :     0.001986
      dz2     :     0.001930  d :    -0.022299
      dxz     :    -0.006148
      dyz     :    -0.010800
      dx2y2   :     0.005101
      dxy     :    -0.012382
      f0      :    -0.000003  f :     0.000041
      f+1     :    -0.000001
      f-1     :     0.000023
      f+2     :    -0.000000
      f-2     :    -0.000018
      f+3     :    -0.000004
      f-3     :     0.000043
  5 Aus       :    -0.017045  s :    -0.017045
      pz      :    -0.036423  p :    -0.035759
      px      :     0.004758
      py      :    -0.004094
      dz2     :    -0.008650  d :    -0.016127
      dxz     :    -0.011070
      dyz     :    -0.006057
      dx2y2   :     0.001621
      dxy     :     0.008030
      f0      :    -0.000015  f :     0.000076
      f+1     :     0.000025
      f-1     :    -0.000013
      f+2     :    -0.000010
      f-2     :     0.000005
      f+3     :     0.000024
      f-3     :     0.000062
  6 Aus       :    -0.019818  s :    -0.019818
      pz      :    -0.032889  p :    -0.036375
      px      :     0.004115
      py      :    -0.007601
      dz2     :    -0.004636  d :    -0.015670
      dxz     :    -0.009067
      dyz     :    -0.013258
      dx2y2   :     0.007002
      dxy     :     0.004288
      f0      :    -0.000013  f :     0.000084
      f+1     :     0.000020
      f-1     :    -0.000012
      f+2     :    -0.000001
      f-2     :     0.000003
      f+3     :     0.000041
      f-3     :     0.000045
  7 Aus       :     0.001166  s :     0.001166
      pz      :    -0.022913  p :    -0.044882
      px      :    -0.026080
      py      :     0.004111
      dz2     :    -0.000949  d :    -0.023323
      dxz     :    -0.003383
      dyz     :    -0.010199
      dx2y2   :     0.003056
      dxy     :    -0.011847
      f0      :     0.000005  f :     0.000039
      f+1     :    -0.000001
      f-1     :     0.000004
      f+2     :     0.000010
      f-2     :    -0.000002
      f+3     :     0.000011
      f-3     :     0.000012
  8 Aus       :    -0.018894  s :    -0.018894
      pz      :     0.004313  p :    -0.036372
      px      :    -0.033434
      py      :    -0.007250
      dz2     :     0.010703  d :    -0.015747
      dxz     :    -0.011114
      dyz     :     0.004041
      dx2y2   :    -0.006066
      dxy     :    -0.013312
      f0      :     0.000087  f :     0.000083
      f+1     :     0.000014
      f-1     :     0.000043
      f+2     :    -0.000013
      f-2     :    -0.000003
      f+3     :    -0.000038
      f-3     :    -0.000007
  9 Aus       :    -0.097587  s :    -0.097587
      pz      :    -0.009815  p :    -0.035533
      px      :    -0.002949
      py      :    -0.022769
      dz2     :    -0.002404  d :     0.012215
      dxz     :     0.004906
      dyz     :     0.002374
      dx2y2   :    -0.000535
      dxy     :     0.007874
      f0      :     0.000012  f :     0.000263
      f+1     :     0.000043
      f-1     :     0.000028
      f+2     :     0.000029
      f-2     :     0.000088
      f+3     :     0.000030
      f-3     :     0.000033
 10 Aus       :    -0.016372  s :    -0.016372
      pz      :     0.004698  p :    -0.035774
      px      :    -0.036549
      py      :    -0.003923
      dz2     :     0.001617  d :    -0.016293
      dxz     :    -0.013572
      dyz     :     0.007857
      dx2y2   :    -0.006466
      dxy     :    -0.005729
      f0      :    -0.000012  f :     0.000075
      f+1     :    -0.000019
      f-1     :     0.000085
      f+2     :     0.000064
      f-2     :     0.000003
      f+3     :    -0.000010
      f-3     :    -0.000035
 11 Aus       :    -0.098803  s :    -0.098803
      pz      :    -0.015328  p :    -0.035316
      px      :     0.003128
      py      :    -0.023116
      dz2     :    -0.002603  d :     0.012632
      dxz     :     0.005306
      dyz     :     0.000067
      dx2y2   :     0.003904
      dxy     :     0.005957
      f0      :     0.000032  f :     0.000273
      f+1     :     0.000042
      f-1     :     0.000003
      f+2     :    -0.000016
      f-2     :     0.000079
      f+3     :     0.000049
      f-3     :     0.000084
 12 Aus       :     0.005363  s :     0.005363
      pz      :    -0.048957  p :    -0.053558
      px      :     0.004027
      py      :    -0.008627
      dz2     :    -0.007727  d :    -0.028190
      dxz     :    -0.011034
      dyz     :    -0.009351
      dx2y2   :     0.000654
      dxy     :    -0.000733
      f0      :    -0.000003  f :    -0.000030
      f+1     :    -0.000002
      f-1     :    -0.000002
      f+2     :    -0.000012
      f-2     :    -0.000010
      f+3     :     0.000005
      f-3     :    -0.000006
 13 Aus       :    -0.018938  s :    -0.018938
      pz      :    -0.012720  p :    -0.024689
      px      :    -0.013821
      py      :     0.001853
      dz2     :    -0.007973  d :    -0.032508
      dxz     :    -0.010469
      dyz     :    -0.006238
      dx2y2   :    -0.001909
      dxy     :    -0.005918
      f0      :    -0.000012  f :    -0.000046
      f+1     :    -0.000009
      f-1     :     0.000006
      f+2     :     0.000000
      f-2     :    -0.000033
      f+3     :    -0.000001
      f-3     :     0.000004
 14 Mns       :     0.019461  s :     0.019461
      pz      :     0.009292  p :     0.028581
      px      :     0.009399
      py      :     0.009890
      dz2     :     0.862847  d :     4.155884
      dxz     :     0.801429
      dyz     :     0.810356
      dx2y2   :     0.882233
      dxy     :     0.799019
      f0      :     0.000007  f :     0.000049
      f+1     :     0.000005
      f-1     :     0.000009
      f+2     :     0.000007
      f-2     :     0.000007
      f+3     :     0.000007
      f-3     :     0.000008


                      *****************************
                      * MAYER POPULATION ANALYSIS *
                      *****************************

  NA   - Mulliken gross atomic population
  ZA   - Total nuclear charge
  QA   - Mulliken gross atomic charge
  VA   - Mayer's total valence
  BVA  - Mayer's bonded valence
  FA   - Mayer's free valence

  ATOM       NA         ZA         QA         VA         BVA        FA
  0 Au    18.8779    19.0000     0.1221     1.6192     1.6131     0.0061
  1 Au    18.9031    19.0000     0.0969     1.6526     1.6482     0.0044
  2 Au    18.7947    19.0000     0.2053     1.7011     1.6503     0.0508
  3 Au    18.7975    19.0000     0.2025     1.7037     1.6539     0.0498
  4 Au    18.8090    19.0000     0.1910     1.6053     1.6035     0.0018
  5 Au    18.7850    19.0000     0.2150     1.5842     1.5810     0.0032
  6 Au    18.7857    19.0000     0.2143     1.5858     1.5823     0.0035
  7 Au    18.8089    19.0000     0.1911     1.6051     1.6032     0.0019
  8 Au    18.7861    19.0000     0.2139     1.5853     1.5819     0.0034
  9 Au    18.7969    19.0000     0.2031     1.7026     1.6529     0.0497
 10 Au    18.7854    19.0000     0.2146     1.5839     1.5808     0.0031
 11 Au    18.7950    19.0000     0.2050     1.7017     1.6512     0.0505
 12 Au    18.8786    19.0000     0.1214     1.6204     1.6143     0.0061
 13 Au    18.9019    19.0000     0.0981     1.6508     1.6468     0.0040
 14 Mn    27.4943    25.0000    -2.4943     9.1818     5.3223     3.8595

  Mayer bond orders larger than 0.100000
B(  0-Au,  1-Au) :   0.2460 B(  0-Au,  2-Au) :   0.2445 B(  0-Au,  3-Au) :   0.2498 
B(  0-Au, 12-Au) :   0.1251 B(  0-Au, 13-Au) :   0.2448 B(  0-Au, 14-Mn) :   0.2807 
B(  1-Au,  2-Au) :   0.1758 B(  1-Au,  4-Au) :   0.2962 B(  1-Au, 11-Au) :   0.1748 
B(  1-Au, 12-Au) :   0.2443 B(  1-Au, 14-Mn) :   0.2693 B(  2-Au,  3-Au) :   0.1567 
B(  2-Au,  4-Au) :   0.1575 B(  2-Au,  5-Au) :   0.1988 B(  2-Au, 14-Mn) :   0.4849 
B(  3-Au,  6-Au) :   0.1966 B(  3-Au,  7-Au) :   0.1613 B(  3-Au, 13-Au) :   0.1806 
B(  3-Au, 14-Mn) :   0.4800 B(  4-Au,  5-Au) :   0.2037 B(  4-Au, 10-Au) :   0.2044 
B(  4-Au, 11-Au) :   0.1584 B(  4-Au, 14-Mn) :   0.3077 B(  5-Au,  6-Au) :   0.3048 
B(  5-Au, 10-Au) :   0.1335 B(  5-Au, 14-Mn) :   0.4193 B(  6-Au,  7-Au) :   0.2027 
B(  6-Au,  8-Au) :   0.1331 B(  6-Au, 14-Mn) :   0.4230 B(  7-Au,  8-Au) :   0.2027 
B(  7-Au,  9-Au) :   0.1622 B(  7-Au, 13-Au) :   0.2932 B(  7-Au, 14-Mn) :   0.3061 
B(  8-Au,  9-Au) :   0.1962 B(  8-Au, 10-Au) :   0.3052 B(  8-Au, 14-Mn) :   0.4225 
B(  9-Au, 11-Au) :   0.1568 B(  9-Au, 12-Au) :   0.2498 B(  9-Au, 13-Au) :   0.1776 
B(  9-Au, 14-Mn) :   0.4811 B( 10-Au, 11-Au) :   0.1989 B( 10-Au, 14-Mn) :   0.4180 
B( 11-Au, 12-Au) :   0.2461 B( 11-Au, 14-Mn) :   0.4844 B( 12-Au, 13-Au) :   0.2453 
B( 12-Au, 14-Mn) :   0.2821 B( 13-Au, 14-Mn) :   0.2633 

-------
TIMINGS
-------

Total SCF time: 0 days 0 hours 5 min 13 sec 

Total time                  ....     313.966 sec
Sum of individual times     ....     310.595 sec  ( 98.9%)

Fock matrix formation       ....     296.130 sec  ( 94.3%)
  Split-RI-J                ....      56.761 sec  ( 19.2% of F)
  XC integration            ....     238.228 sec  ( 80.4% of F)
    Basis function eval.    ....       9.762 sec  (  4.1% of XC)
    Density eval.           ....      90.510 sec  ( 38.0% of XC)
    XC-Functional eval.     ....       4.744 sec  (  2.0% of XC)
    XC-Potential eval.      ....      57.007 sec  ( 23.9% of XC)
Diagonalization             ....       9.767 sec  (  3.1%)
Density matrix formation    ....       0.469 sec  (  0.1%)
Population analysis         ....       0.414 sec  (  0.1%)
Initial guess               ....       0.735 sec  (  0.2%)
Orbital Transformation      ....       0.000 sec  (  0.0%)
Orbital Orthonormalization  ....       0.665 sec  (  0.2%)
DIIS solution               ....       0.000 sec  (  0.0%)
Grid generation             ....       3.081 sec  (  1.0%)

Maximum memory used throughout the entire SCF-calculation: 103.0 MB

-------------------------   --------------------
FINAL SINGLE POINT ENERGY     -3052.868637765902
-------------------------   --------------------


                            ***************************************
                            *     ORCA property calculations      *
                            ***************************************

                                    ---------------------
                                    Active property flags
                                    ---------------------
   (+) Dipole Moment


------------------------------------------------------------------------------
                       ORCA ELECTRIC PROPERTIES CALCULATION
------------------------------------------------------------------------------

Dipole Moment Calculation                       ... on
Quadrupole Moment Calculation                   ... off
Polarizability Calculation                      ... off
GBWName                                         ... scan_job2.gbw
Electron density                                ... scan_job2.scfp
The origin for moment calculation is the CENTER OF MASS  = (13.634005, 14.712245 14.259778)

-------------
DIPOLE MOMENT
-------------
                                X             Y             Z
Electronic contribution:     -7.62452       3.28638       8.02212
Nuclear contribution   :      7.66127      -3.29950      -8.05919
                        -----------------------------------------
Total Dipole Moment    :      0.03675      -0.01312      -0.03706
                        -----------------------------------------
Magnitude (a.u.)       :      0.05382
Magnitude (Debye)      :      0.13680



--------------------
Rotational spectrum 
--------------------
 
Rotational constants in cm-1:     0.001126     0.001115     0.000955 
Rotational constants in MHz :    33.753027    33.433112    28.617638 

 Dipole components along the rotational axes: 
x,y,z [a.u.] :    -0.052249     0.012849     0.001254 
x,y,z [Debye]:    -0.132806     0.032661     0.003189 

 

Timings for individual modules:

Sum of individual times         ...      340.236 sec (=   5.671 min)
GTO integral calculation        ...       25.965 sec (=   0.433 min)   7.6 %
SCF iterations                  ...      314.271 sec (=   5.238 min)  92.4 %



                             ****ORCA TERMINATED NORMALLY****
TOTAL RUN TIME: 0 days 0 hours 13 minutes 4 seconds 12 msec
