
                                 *****************
                                 * O   R   C   A *
                                 *****************

                                            #,                                       
                                            ###                                      
                                            ####                                     
                                            #####                                    
                                            ######                                   
                                           ########,                                 
                                     ,,################,,,,,                         
                               ,,#################################,,                 
                          ,,##########################################,,             
                       ,#########################################, ''#####,          
                    ,#############################################,,   '####,        
                  ,##################################################,,,,####,       
                ,###########''''           ''''###############################       
              ,#####''   ,,,,##########,,,,          '''####'''          '####       
            ,##' ,,,,###########################,,,                        '##       
           ' ,,###''''                  '''############,,,                           
         ,,##''                                '''############,,,,        ,,,,,,###''
      ,#''                                            '''#######################'''  
     '                                                          ''''####''''         
             ,#######,   #######,   ,#######,      ##                                
            ,#'     '#,  ##    ##  ,#'     '#,    #''#        ######   ,####,        
            ##       ##  ##   ,#'  ##            #'  '#       #        #'  '#        
            ##       ##  #######   ##           ,######,      #####,   #    #        
            '#,     ,#'  ##    ##  '#,     ,#' ,#      #,         ##   #,  ,#        
             '#######'   ##     ##  '#######'  #'      '#     #####' # '####'        



                  #######################################################
                  #                        -***-                        #
                  #          Department of theory and spectroscopy      #
                  #    Directorship and core code : Frank Neese         #
                  #        Max Planck Institute fuer Kohlenforschung    #
                  #                Kaiser Wilhelm Platz 1               #
                  #                 D-45470 Muelheim/Ruhr               #
                  #                      Germany                        #
                  #                                                     #
                  #                  All rights reserved                #
                  #                        -***-                        #
                  #######################################################


                         Program Version 5.0.3 -  RELEASE  -


 With contributions from (in alphabetic order):
   Daniel Aravena         : Magnetic Suceptibility
   Michael Atanasov       : Ab Initio Ligand Field Theory (pilot matlab implementation)
   Alexander A. Auer      : GIAO ZORA, VPT2 properties, NMR spectrum
   Ute Becker             : Parallelization
   Giovanni Bistoni       : ED, misc. LED, open-shell LED, HFLD
   Martin Brehm           : Molecular dynamics
   Dmytro Bykov           : SCF Hessian
   Vijay G. Chilkuri      : MRCI spin determinant printing, contributions to CSF-ICE
   Dipayan Datta          : RHF DLPNO-CCSD density
   Achintya Kumar Dutta   : EOM-CC, STEOM-CC
   Dmitry Ganyushin       : Spin-Orbit,Spin-Spin,Magnetic field MRCI
   Miquel Garcia          : C-PCM and meta-GGA Hessian, CC/C-PCM, Gaussian charge scheme
   Yang Guo               : DLPNO-NEVPT2, F12-NEVPT2, CIM, IAO-localization
   Andreas Hansen         : Spin unrestricted coupled pair/coupled cluster methods
   Benjamin Helmich-Paris : MC-RPA, TRAH-SCF, COSX integrals
   Lee Huntington         : MR-EOM, pCC
   Robert Izsak           : Overlap fitted RIJCOSX, COSX-SCS-MP3, EOM
   Marcus Kettner         : VPT2
   Christian Kollmar      : KDIIS, OOCD, Brueckner-CCSD(T), CCSD density, CASPT2, CASPT2-K
   Simone Kossmann        : Meta GGA functionals, TD-DFT gradient, OOMP2, MP2 Hessian
   Martin Krupicka        : Initial AUTO-CI
   Lucas Lang             : DCDCAS
   Marvin Lechner         : AUTO-CI (C++ implementation), FIC-MRCC
   Dagmar Lenk            : GEPOL surface, SMD
   Dimitrios Liakos       : Extrapolation schemes; Compound Job, initial MDCI parallelization
   Dimitrios Manganas     : Further ROCIS development; embedding schemes
   Dimitrios Pantazis     : SARC Basis sets
   Anastasios Papadopoulos: AUTO-CI, single reference methods and gradients
   Taras Petrenko         : DFT Hessian,TD-DFT gradient, ASA, ECA, R-Raman, ABS, FL, XAS/XES, NRVS
   Peter Pinski           : DLPNO-MP2, DLPNO-MP2 Gradient
   Christoph Reimann      : Effective Core Potentials
   Marius Retegan         : Local ZFS, SOC
   Christoph Riplinger    : Optimizer, TS searches, QM/MM, DLPNO-CCSD(T), (RO)-DLPNO pert. Triples
   Tobias Risthaus        : Range-separated hybrids, TD-DFT gradient, RPA, STAB
   Michael Roemelt        : Original ROCIS implementation
   Masaaki Saitow         : Open-shell DLPNO-CCSD energy and density
   Barbara Sandhoefer     : DKH picture change effects
   Avijit Sen             : IP-ROCIS
   Kantharuban Sivalingam : CASSCF convergence, NEVPT2, FIC-MRCI
   Bernardo de Souza      : ESD, SOC TD-DFT
   Georgi Stoychev        : AutoAux, RI-MP2 NMR, DLPNO-MP2 response
   Willem Van den Heuvel  : Paramagnetic NMR
   Boris Wezisla          : Elementary symmetry handling
   Frank Wennmohs         : Technical directorship


 We gratefully acknowledge several colleagues who have allowed us to
 interface, adapt or use parts of their codes:
   Stefan Grimme, W. Hujo, H. Kruse, P. Pracht,  : VdW corrections, initial TS optimization,
                  C. Bannwarth, S. Ehlert          DFT functionals, gCP, sTDA/sTD-DF
   Ed Valeev, F. Pavosevic, A. Kumar             : LibInt (2-el integral package), F12 methods
   Garnet Chan, S. Sharma, J. Yang, R. Olivares  : DMRG
   Ulf Ekstrom                                   : XCFun DFT Library
   Mihaly Kallay                                 : mrcc  (arbitrary order and MRCC methods)
   Jiri Pittner, Ondrej Demel                    : Mk-CCSD
   Frank Weinhold                                : gennbo (NPA and NBO analysis)
   Christopher J. Cramer and Donald G. Truhlar   : smd solvation model
   Lars Goerigk                                  : TD-DFT with DH, B97 family of functionals
   V. Asgeirsson, H. Jonsson                     : NEB implementation
   FAccTs GmbH                                   : IRC, NEB, NEB-TS, DLPNO-Multilevel, CI-OPT
                                                   MM, QMMM, 2- and 3-layer-ONIOM, Crystal-QMMM,
                                                   LR-CPCM, SF, NACMEs, symmetry and pop. for TD-DFT,
                                                   nearIR, NL-DFT gradient (VV10), updates on ESD,
                                                   ML-optimized integration grids
   S Lehtola, MJT Oliveira, MAL Marques          : LibXC Library
   Liviu Ungur et al                             : ANISO software


 Your calculation uses the libint2 library for the computation of 2-el integrals
 For citations please refer to: http://libint.valeyev.net

 Your ORCA version has been built with support for libXC version: 5.1.0
 For citations please refer to: https://tddft.org/programs/libxc/

 This ORCA versions uses:
   CBLAS   interface :  Fast vector & matrix operations
   LAPACKE interface :  Fast linear algebra routines
   SCALAPACK package :  Parallel linear algebra routines
   Shared memory     :  Shared parallel matrices
   BLAS/LAPACK       :  OpenBLAS 0.3.15  USE64BITINT DYNAMIC_ARCH NO_AFFINITY Sandybridge SINGLE_THREADED
        Core in use  :  Sandybridge
   Copyright (c) 2011-2014, The OpenBLAS Project




***************************************
The coordinates will be read from file: pbe.xyz
***************************************


================================================================================

cite the ECPs for Au [Def2-ECP] as follows:
Ce-Yb(ecp-28): M. Dolg, H. Stoll, H.Preuss, J. Chem. Phys., 1989, 90, 1730-1734.
Y-Cd(ecp-28), Hf-Hg(ecp-46): D. Andrae,U. Haeussermann, M. Dolg, H. Stoll, H. Preuss, Theor. Chim. Acta, 1990, 77, 123-141.
In-Sb(ecp-28), Tl-Bi(ecp-46): B. Metz, H. Stoll, M. Dolg, J. Chem. Phys., 2000, 113, 2563-2569.
Te-Xe(ecp-28), Po-Rn(ecp-46): K. A. Peterson, D. Figgen, E. Goll, H. Stoll, M. Dolg, J. Chem. Phys., 2003, 119, 11113-11123.
Rb(ecp-28), Cs(ecp-46): T. Leininger, A. Nicklass, W. Kuechle, H. Stoll, M. Dolg, A. Bergner, Chem. Phys. Lett., 1996, 255, 274-280.
Sr(ecp-28), Ba(ecp-46): M. Kaupp, P. V. Schleyer, H. Stoll and H. Preuss, J. Chem. Phys., 1991, 94, 1360-1366.
La(ecp-46): M. Dolg, H. Stoll, A. Savin, H. Preuss, Theor. Chim. Acta, 1989, 75, 173-194.
Lu(ecp-28): X. Cao, M. Dolg, J. Chem. Phys., 2001, 115, 7348-7355.

ECP parameters for Au [Def2-ECP] have been obtained from:
TURBOMOLE (7.0.2)

----- Orbital basis set information -----
Your calculation utilizes the basis: def2-TZVP
   F. Weigend and R. Ahlrichs, Phys. Chem. Chem. Phys. 7, 3297 (2005).

----- AuxJ basis set information -----
Your calculation utilizes the auxiliary basis: def2/J
   F. Weigend, Phys. Chem. Chem. Phys. 8, 1057 (2006).

================================================================================
                                        WARNINGS
                       Please study these warnings very carefully!
================================================================================


WARNING: your system is open-shell and RHF/RKS was chosen
  ===> : WILL SWITCH to UHF/UKS


INFO   : the flag for use of the SHARK integral package has been found!



***************************************
The coordinates will be read from file: pbe.xyz
***************************************


================================================================================

cite the ECPs for Au [Def2-ECP] as follows:
Ce-Yb(ecp-28): M. Dolg, H. Stoll, H.Preuss, J. Chem. Phys., 1989, 90, 1730-1734.
Y-Cd(ecp-28), Hf-Hg(ecp-46): D. Andrae,U. Haeussermann, M. Dolg, H. Stoll, H. Preuss, Theor. Chim. Acta, 1990, 77, 123-141.
In-Sb(ecp-28), Tl-Bi(ecp-46): B. Metz, H. Stoll, M. Dolg, J. Chem. Phys., 2000, 113, 2563-2569.
Te-Xe(ecp-28), Po-Rn(ecp-46): K. A. Peterson, D. Figgen, E. Goll, H. Stoll, M. Dolg, J. Chem. Phys., 2003, 119, 11113-11123.
Rb(ecp-28), Cs(ecp-46): T. Leininger, A. Nicklass, W. Kuechle, H. Stoll, M. Dolg, A. Bergner, Chem. Phys. Lett., 1996, 255, 274-280.
Sr(ecp-28), Ba(ecp-46): M. Kaupp, P. V. Schleyer, H. Stoll and H. Preuss, J. Chem. Phys., 1991, 94, 1360-1366.
La(ecp-46): M. Dolg, H. Stoll, A. Savin, H. Preuss, Theor. Chim. Acta, 1989, 75, 173-194.
Lu(ecp-28): X. Cao, M. Dolg, J. Chem. Phys., 2001, 115, 7348-7355.

ECP parameters for Au [Def2-ECP] have been obtained from:
TURBOMOLE (7.0.2)

----- Orbital basis set information -----
Your calculation utilizes the basis: def2-TZVP
   F. Weigend and R. Ahlrichs, Phys. Chem. Chem. Phys. 7, 3297 (2005).

----- AuxJ basis set information -----
Your calculation utilizes the auxiliary basis: def2/J
   F. Weigend, Phys. Chem. Chem. Phys. 8, 1057 (2006).

================================================================================
                                        WARNINGS
                       Please study these warnings very carefully!
================================================================================


INFO   : the flag for use of the SHARK integral package has been found!

================================================================================
                                       INPUT FILE
================================================================================
NAME = pbeSP.inp
|  1> !PBE def2-TZVP VERYSLOWCONV
|  2> 
|  3> %scf
|  4>   AutoTRAHIter 200
|  5>   maxiter 400
|  6> end
|  7> 
|  8> 
|  9> %pal nprocs 6 end 
| 10> 
| 11> *xyzfile 0 5 pbe.xyz
| 12> 
| 13> $new_job
| 14> 
| 15> !PBE def2-TZVP VERYSLOWCONV
| 16> 
| 17> %scf
| 18>   AutoTRAHIter 200
| 19>   maxiter 400
| 20> end
| 21>  
| 22> 
| 23> %pal nprocs 6 end 
| 24> 
| 25> *xyzfile 0 3 pbe.xyz
| 26> 
| 27> 
| 28> 
| 29> 
| 30> 
| 31>                          ****END OF INPUT****
================================================================================


                 $$$$$$$$$$$$$$$$$$$$$$$$$$$$$$$$$$$$$$$$$$$$$$ 
                 $ THERE ARE  2 JOBS TO BE PROCESSED THIS RUN $
                 $$$$$$$$$$$$$$$$$$$$$$$$$$$$$$$$$$$$$$$$$$$$$$ 




                 $$$$$$$$$$$$$$$$  JOB NUMBER  1 $$$$$$$$$$$$$$


                       ****************************
                       * Single Point Calculation *
                       ****************************

---------------------------------
CARTESIAN COORDINATES (ANGSTROEM)
---------------------------------
  Au    11.072205    7.117073   10.352978
  Au     8.272656    6.824324   10.943885
  Au     9.282898    9.353866   10.244418
  Au    11.385967    8.905765    8.128203
  Au    11.516843    6.139168    7.684687
  Au     7.951298    3.218784    8.089383
  Au     8.795914    9.772281    7.526035
  Au     9.099926    5.180438    6.578688
  Au     9.809579    7.703871    5.939516
  Au     9.713223    4.793688    9.486342
  Au     6.845171    8.341793    8.926837
  Au     6.914928    5.650022    8.767788
  Fe     9.182764    7.235901    8.448611

----------------------------
CARTESIAN COORDINATES (A.U.)
----------------------------
  NO LB      ZA    FRAG     MASS         X           Y           Z
   0 Au   19.0000*   0   196.966   20.923434   13.449320   19.564294
   1 Au   19.0000*   0   196.966   15.633053   12.896104   20.680946
   2 Au   19.0000*   0   196.966   17.542134   17.676245   19.359145
   3 Au   19.0000*   0   196.966   21.516360   16.829457   15.360077
   4 Au   19.0000*   0   196.966   21.763679   11.601345   14.521953
   5 Au   19.0000*   0   196.966   15.025776    6.082620   15.286718
   6 Au   19.0000*   0   196.966   16.621868   18.466934   14.222145
   7 Au   19.0000*   0   196.966   17.196368    9.789610   12.431918
   8 Au   19.0000*   0   196.966   18.537417   14.558207   11.224058
   9 Au   19.0000*   0   196.966   18.355331    9.058758   17.926589
  10 Au   19.0000*   0   196.966   12.935499   15.763704   16.869278
  11 Au   19.0000*   0   196.966   13.067320   10.676995   16.568718
  12 Fe   26.0000    0    55.850   17.352909   13.673871   15.965561
* core charge reduced due to ECP

--------------------------------
INTERNAL COORDINATES (ANGSTROEM)
--------------------------------
 Au     0   0   0     0.000000000000     0.00000000     0.00000000
 Au     1   0   0     2.876169007482     0.00000000     0.00000000
 Au     2   1   0     2.812191765228    60.50671731     0.00000000
 Au     1   2   3     2.871844396680   109.20189952   320.06146539
 Au     4   1   2     2.804977035820    60.87437934   260.39891519
 Au     2   1   3     4.609921877703    91.16004057   130.44847827
 Au     3   2   1     2.793176376694   108.31114514    97.59269204
 Au     6   2   1     2.729401751526    75.59734107   307.64541992
 Au     8   6   2     2.698121996521   156.06205140   342.98606789
 Au     6   2   1     2.745214026490    36.04676251    17.13997899
 Au     7   3   2     2.795342553552    63.72433431    35.08923903
 Au    11   7   3     2.697367168201   117.58617660   262.16121796
 Fe     9   8   6     2.628203204142    62.90825483    19.50366083

---------------------------
INTERNAL COORDINATES (A.U.)
---------------------------
 Au     0   0   0     0.000000000000     0.00000000     0.00000000
 Au     1   0   0     5.435171739013     0.00000000     0.00000000
 Au     2   1   0     5.314272272349    60.50671731     0.00000000
 Au     1   2   3     5.426999408961   109.20189952   320.06146539
 Au     4   1   2     5.300638409638    60.87437934   260.39891519
 Au     2   1   3     8.711489847631    91.16004057   130.44847827
 Au     3   2   1     5.278338395690   108.31114514    97.59269204
 Au     6   2   1     5.157821819828    75.59734107   307.64541992
 Au     8   6   2     5.098711649334   156.06205140   342.98606789
 Au     6   2   1     5.187702689065    36.04676251    17.13997899
 Au     7   3   2     5.282431876709    63.72433431    35.08923903
 Au    11   7   3     5.097285230530   117.58617660   262.16121796
 Fe     9   8   6     4.966584280123    62.90825483    19.50366083

---------------------
BASIS SET INFORMATION
---------------------
There are 2 groups of distinct atoms

 Group   1 Type Au  : 8s7p6d1f contracted to 6s4p3d1f pattern {311111/4111/411/1}
 Group   2 Type Fe  : 17s11p7d1f contracted to 6s4p4d1f pattern {842111/6311/4111/1}

Atom   0Au   basis set group =>   1
Atom   1Au   basis set group =>   1
Atom   2Au   basis set group =>   1
Atom   3Au   basis set group =>   1
Atom   4Au   basis set group =>   1
Atom   5Au   basis set group =>   1
Atom   6Au   basis set group =>   1
Atom   7Au   basis set group =>   1
Atom   8Au   basis set group =>   1
Atom   9Au   basis set group =>   1
Atom  10Au   basis set group =>   1
Atom  11Au   basis set group =>   1
Atom  12Fe   basis set group =>   2
---------------------------------
AUXILIARY/J BASIS SET INFORMATION
---------------------------------
There are 2 groups of distinct atoms

 Group   1 Type Au  : 11s5p5d3f3g contracted to 8s5p5d2f3g pattern {41111111/11111/11111/21/111}
 Group   2 Type Fe  : 19s5p5d3f3g contracted to 8s5p5d2f3g pattern {121111111/11111/11111/21/111}

Atom   0Au   basis set group =>   1
Atom   1Au   basis set group =>   1
Atom   2Au   basis set group =>   1
Atom   3Au   basis set group =>   1
Atom   4Au   basis set group =>   1
Atom   5Au   basis set group =>   1
Atom   6Au   basis set group =>   1
Atom   7Au   basis set group =>   1
Atom   8Au   basis set group =>   1
Atom   9Au   basis set group =>   1
Atom  10Au   basis set group =>   1
Atom  11Au   basis set group =>   1
Atom  12Fe   basis set group =>   2
-------------------------
ECP PARAMETER INFORMATION
-------------------------

 Group 1, Type Au ECP Def2-ECP (replacing 60 core electrons, lmax=3)

Atom   0Au   ECP group =>   1
Atom   1Au   ECP group =>   1
Atom   2Au   ECP group =>   1
Atom   3Au   ECP group =>   1
Atom   4Au   ECP group =>   1
Atom   5Au   ECP group =>   1
Atom   6Au   ECP group =>   1
Atom   7Au   ECP group =>   1
Atom   8Au   ECP group =>   1
Atom   9Au   ECP group =>   1
Atom  10Au   ECP group =>   1
Atom  11Au   ECP group =>   1



           ************************************************************
           *        Program running with 6 parallel MPI-processes     *
           *              working on a common directory               *
           ************************************************************
------------------------------------------------------------------------------
                           ORCA GTO INTEGRAL CALCULATION
                           -- RI-GTO INTEGRALS CHOSEN --
------------------------------------------------------------------------------
------------------------------------------------------------------------------
                   ___                                                        
                  /   \      - P O W E R E D   B Y -                         
                 /     \                                                     
                 |  |  |   _    _      __       _____    __    __             
                 |  |  |  | |  | |    /  \     |  _  \  |  |  /  |          
                  \  \/   | |  | |   /    \    | | | |  |  | /  /          
                 / \  \   | |__| |  /  /\  \   | |_| |  |  |/  /          
                |  |  |   |  __  | /  /__\  \  |    /   |      \           
                |  |  |   | |  | | |   __   |  |    \   |  |\   \          
                \     /   | |  | | |  |  |  |  | |\  \  |  | \   \       
                 \___/    |_|  |_| |__|  |__|  |_| \__\ |__|  \__/        
                                                                              
                      - O R C A' S   B I G   F R I E N D -                    
                                      &                                       
                       - I N T E G R A L  F E E D E R -                       
                                                                              
 v1 FN, 2020, v2 2021                                                         
------------------------------------------------------------------------------


Reading SHARK input file pbeSP.SHARKINP.tmp ... ok
----------------------
SHARK INTEGRAL PACKAGE
----------------------

Number of atoms                             ...     13
Number of basis functions                   ...    525
Number of shells                            ...    183
Maximum angular momentum                    ...      3
Integral batch strategy                     ... SHARK/LIBINT Hybrid
RI-J (if used) integral strategy            ... SPLIT-RIJ (Revised 2003 algorithm where possible)
Printlevel                                  ...      1
Contraction scheme used                     ... SEGMENTED contraction
Coulomb Range Separation                    ... NOT USED
Exchange Range Separation                   ... NOT USED
Finite Nucleus Model                        ... NOT USED
Auxiliary Coulomb fitting basis             ... AVAILABLE
   # of basis functions in Aux-J            ...   1157
   # of shells in Aux-J                     ...    299
   Maximum angular momentum in Aux-J        ...      4
Auxiliary J/K fitting basis                 ... NOT available
Auxiliary Correlation fitting basis         ... NOT available
Auxiliary 'external' fitting basis          ... NOT available
Integral threshold                          ...     1.000000e-10
Primitive cut-off                           ...     1.000000e-11
Primitive pair pre-selection threshold      ...     1.000000e-11

Calculating pre-screening integrals         ... done (  0.2 sec) Dimension = 183
Organizing shell pair data                  ... done (  0.6 sec)
Shell pair information
Total number of shell pairs                 ...     16836
Shell pairs after pre-screening             ...     13893
Total number of primitive shell pairs       ...     45389
Primitive shell pairs kept                  ...     27442
          la=0 lb=0:   2172 shell pairs
          la=1 lb=0:   3184 shell pairs
          la=1 lb=1:   1184 shell pairs
          la=2 lb=0:   2770 shell pairs
          la=2 lb=1:   1915 shell pairs
          la=2 lb=2:    793 shell pairs
          la=3 lb=0:    736 shell pairs
          la=3 lb=1:    569 shell pairs
          la=3 lb=2:    490 shell pairs
          la=3 lb=3:     80 shell pairs

Calculating one electron integrals          ... done (  0.0 sec)
Calculating ECP integrals                   ... done (  8.2 sec)
Calculating RI/J V-Matrix + Cholesky decomp.... done (  0.1 sec)
Calculating Nuclear repulsion               ... done (  0.0 sec) ENN=   4481.972719996545 Eh

SHARK setup successfully completed in   9.6 seconds

Maximum memory used throughout the entire GTOINT-calculation: 30.9 MB


           ************************************************************
           *        Program running with 6 parallel MPI-processes     *
           *              working on a common directory               *
           ************************************************************
-------------------------------------------------------------------------------
                                 ORCA SCF
-------------------------------------------------------------------------------

------------
SCF SETTINGS
------------
Hamiltonian:
 Density Functional     Method          .... DFT(GTOs)
 Exchange Functional    Exchange        .... PBE
   PBE kappa parameter   XKappa         ....  0.804000
   PBE mue parameter    XMuePBE         ....  0.219520
 Correlation Functional Correlation     .... PBE
   PBE beta parameter  CBetaPBE         ....  0.066725
 LDA part of GGA corr.  LDAOpt          .... PW91-LDA
 Gradients option       PostSCFGGA      .... off
   Density functional embedding theory  .... OFF
   NL short-range parameter             ....  6.400000
 RI-approximation to the Coulomb term is turned on
   Number of AuxJ basis functions       .... 1157


General Settings:
 Integral files         IntName         .... pbeSP
 Hartree-Fock type      HFTyp           .... UHF
 Total Charge           Charge          ....    0
 Multiplicity           Mult            ....    5
 Number of Electrons    NEL             ....  254
 Basis Dimension        Dim             ....  525
 Nuclear Repulsion      ENuc            ....   4481.9727199965 Eh

Convergence Acceleration:
 DIIS                   CNVDIIS         .... on
   Start iteration      DIISMaxIt       ....     0
   Startup error        DIISStart       ....  0.200000
   # of expansion vecs  DIISMaxEq       ....     5
   Bias factor          DIISBfac        ....   1.050
   Max. coefficient     DIISMaxC        ....  10.000
 Trust-Rad. Augm. Hess. CNVTRAH         .... auto
   Auto Start mean grad. ratio tolernc. ....  1.125000
   Auto Start start iteration           ....   200
   Auto Start num. interpolation iter.  ....    10
   Max. Number of Micro iterations      ....    16
   Max. Number of Macro iterations      .... Maxiter - #DIIS iter
   Number of Davidson start vectors     ....     2
   Converg. threshold I  (grad. norm)   ....   5.000e-05
   Converg. threshold II (energy diff.) ....   1.000e-06
   Grad. Scal. Fac. for Micro threshold ....   0.100
   Minimum threshold for Micro iter.    ....   0.010
   NR start threshold (gradient norm)   ....   0.001
   Initial trust radius                 ....   0.400
   Minimum AH scaling param. (alpha)    ....   1.000
   Maximum AH scaling param. (alpha)    .... 1000.000
   Orbital update algorithm             .... Taylor
   White noise on init. David. guess    .... on
   Maximum white noise                  ....   0.010
   Quad. conv. algorithm                .... NR
 SOSCF                  CNVSOSCF        .... off
 Level Shifting         CNVShift        .... on
   Level shift para.    LevelShift      ....    0.2500
   Turn off err/grad.   ShiftErr        ....    0.0000
 Zerner damping         CNVZerner       .... off
 Static damping         CNVDamp         .... on
   Fraction old density DampFac         ....    0.9200
   Max. Damping (<1)    DampMax         ....    0.9800
   Min. Damping (>=0)   DampMin         ....    0.0000
   Turn off err/grad.   DampErr         ....    0.0030
 Fernandez-Rico         CNVRico         .... off

SCF Procedure:
 Maximum # iterations   MaxIter         ....   400
 SCF integral mode      SCFMode         .... Direct
   Integral package                     .... SHARK and LIBINT hybrid scheme
 Reset frequency        DirectResetFreq ....    20
 Integral Threshold     Thresh          ....  1.000e-10 Eh
 Primitive CutOff       TCut            ....  1.000e-11 Eh

Convergence Tolerance:
 Convergence Check Mode ConvCheckMode   .... Total+1el-Energy
 Convergence forced     ConvForced      .... 0
 Energy Change          TolE            ....  1.000e-06 Eh
 1-El. energy change                    ....  1.000e-03 Eh
 DIIS Error             TolErr          ....  1.000e-06


Diagonalization of the overlap matrix:
Smallest eigenvalue                        ... 3.359e-04
Time for diagonalization                   ...    0.076 sec
Threshold for overlap eigenvalues          ... 1.000e-08
Number of eigenvalues below threshold      ... 0
Time for construction of square roots      ...    0.039 sec
Total time needed                          ...    0.116 sec

Time for model grid setup =    0.506 sec

------------------------------
INITIAL GUESS: MODEL POTENTIAL
------------------------------
Loading Hartree-Fock densities                     ... done
  calling /home/ehlert/src/miniconda3/envs/orca500/Programs/ORCA501/orca pbeSP_atom79.inp > pbeSP_atom79.out in order to generate an atomic fitting density for atom 0 (Au with ECP) on-the-fly... 
    atom 0 (Au), assumed electronic state with S=2: 1s2 2s2 2p6 3s2 3p6 4s2 3d10 4p6 5s2 4d10 5p6 6s1 4f14 5d10           ... done
Calculating cut-offs                               ... done
Initializing the effective Hamiltonian             ... done
Setting up the integral package (SHARK)            ... done
Starting the Coulomb interaction                   ... done (   0.4 sec)
Reading the grid                                   ... done
Mapping shells                                     ... done
Starting the XC term evaluation                    ... done (   0.4 sec)
  promolecular density results
     # of electrons  =    974.013436877
     EX              =  -4444.004790074
     EC              =    -59.288536066
     EX+EC           =  -4503.293326140
Transforming the Hamiltonian                       ... done (   0.0 sec)
Diagonalizing the Hamiltonian                      ... done (   0.1 sec)
Back transforming the eigenvectors                 ... done (   0.0 sec)
Now organizing SCF variables                       ... done
                      ------------------
                      INITIAL GUESS DONE (   2.3 sec)
                      ------------------
-------------------
DFT GRID GENERATION
-------------------

General Integration Accuracy     IntAcc      ... 4.388
Radial Grid Type                 RadialGrid  ... OptM3 with GC (2021)
Angular Grid (max. ang.)         AngularGrid ... 4 (Lebedev-302)
Angular grid pruning method      GridPruning ... 4 (adaptive)
Weight generation scheme         WeightScheme... Becke
Basis function cutoff            BFCut       ... 1.0000e-10
Integration weight cutoff        WCut        ... 1.0000e-14
Angular grids for H and He will be reduced by one unit
Partially contracted basis set               ... off
Rotationally invariant grid construction     ... off

Total number of grid points                  ...   144464
Total number of batches                      ...     2263
Average number of points per batch           ...       63
Average number of grid points per atom       ...    11113
Time for grid setup =    1.612 sec

--------------
SCF ITERATIONS
--------------
ITER       Energy         Delta-E        Max-DP      RMS-DP      [F,P]     Damp
               ***  Starting incremental Fock matrix formation  ***
  0  -2890.3868212795   0.000000000000 0.14615212  0.00082090  0.5049013 0.9200
  1  -2891.5698351827  -1.183013903115 0.10247171  0.00072225  0.3129517 0.9200
                               ***Turning on DIIS***
  2  -2892.1794274023  -0.609592219688 0.06454866  0.00057181  0.2417953 0.9200
  3  -2892.4072058176  -0.227778415262 0.04260039  0.00045119  0.2215074 0.9200
  4  -2892.4364781944  -0.029272376794 0.03803941  0.00039683  0.2031566 0.9200
  5  -2892.4237155437   0.012762650699 0.03023062  0.00034960  0.1863194 0.9200
  6  -2892.4863834417  -0.062667897957 0.03148541  0.00032564  0.1708267 0.9200
  7  -2892.5870468233  -0.100663381600 0.03448976  0.00030506  0.1567580 0.9200
  8  -2892.6531626509  -0.066115827609 0.03312261  0.00028378  0.1442070 0.9200
  9  -2892.7014957374  -0.048333086547 0.03743141  0.00027373  0.1326090 0.9200
 10  -2892.7415493982  -0.040053660781 0.03324732  0.00024281  0.1218623 0.9200
 11  -2892.7677949557  -0.026245557470 0.02491191  0.00021457  0.1120928 0.9200
 12  -2892.8072428447  -0.039447889078 0.02923702  0.00021787  0.1030343 0.9200
 13  -2892.8564579154  -0.049215070660 0.02841765  0.00020546  0.0945807 0.9200
 14  -2892.8919303946  -0.035472479148 0.02596721  0.00019510  0.0869380 0.9200
 15  -2892.9243288308  -0.032398436229 0.02206692  0.00018896  0.0799001 0.9200
 16  -2892.9548423411  -0.030513510339 0.01958000  0.00017612  0.0734344 0.9200
 17  -2892.9806878499  -0.025845508735 0.01962607  0.00016223  0.0675718 0.9200
 18  -2893.0072704683  -0.026582618454 0.01988225  0.00015742  0.0621332 0.9200
 19  -2893.0328277379  -0.025557269564 0.01865030  0.00014893  0.0570556 0.9200
               *** Restarting incremental Fock matrix formation ***
                                   *** Resetting DIIS ***
 20  -2893.0550489867  -0.022221248801 0.01690283  0.00014238  0.0524405 0.9200
 21  -2893.0763060293  -0.021257042626 0.01500891  0.00013589  0.0481503 0.9200
 22  -2893.0966435981  -0.020337568820 0.01384664  0.00012641  0.0442370 0.9200
 23  -2893.1152010166  -0.018557418466 0.01284315  0.00011943  0.0406562 0.9200
 24  -2893.1321781908  -0.016977174198 0.01260695  0.00011421  0.0373744 0.9200
 25  -2893.1482296388  -0.016051448056 0.01242941  0.00010953  0.0343756 0.9200
 26  -2893.1632924324  -0.015062793546 0.01232365  0.00010536  0.0316171 0.9200
 27  -2893.1772901105  -0.013997678112 0.01321665  0.00010188  0.0290776 0.9200
 28  -2893.1902472657  -0.012957155252 0.01372284  0.00009964  0.0267349 0.9200
 29  -2893.2023571750  -0.012109909234 0.01388776  0.00009858  0.0245816 0.9200
 30  -2893.2138275657  -0.011470390667 0.01425503  0.00009777  0.0226073 0.9200
 31  -2893.2245551986  -0.010727632946 0.01468762  0.00009696  0.0207918 0.9200
 32  -2893.2345674820  -0.010012283381 0.01551593  0.00009666  0.0191175 0.9200
 33  -2893.2439335414  -0.009366059387 0.01664089  0.00009694  0.0175766 0.9200
 34  -2893.2527850782  -0.008851536842 0.01753770  0.00009744  0.0161637 0.9200
 35  -2893.2611201708  -0.008335092641 0.01833972  0.00009720  0.0148661 0.9200
 36  -2893.2689219725  -0.007801801648 0.01881994  0.00009660  0.0136697 0.9200
 37  -2893.2762261949  -0.007304222410 0.01892684  0.00009609  0.0125668 0.9200
 38  -2893.2830932889  -0.006867093975 0.01877682  0.00009564  0.0115553 0.9200
 39  -2893.2895667596  -0.006473470758 0.01846915  0.00009459  0.0106283 0.9200
               *** Restarting incremental Fock matrix formation ***
                                   *** Resetting DIIS ***
 40  -2893.2956331917  -0.006066432074 0.01804749  0.00009278  0.0097768 0.9200
 41  -2893.3013346461  -0.005701454390 0.01751130  0.00009086  0.0089810 0.9200
 42  -2893.3066719523  -0.005337306225 0.01681926  0.00008877  0.0082559 0.9200
 43  -2893.3116620593  -0.004990107005 0.01599208  0.00008685  0.0075942 0.9200
 44  -2893.3163283778  -0.004666318443 0.01513724  0.00008498  0.0069916 0.9200
 45  -2893.3206965499  -0.004368172141 0.01431080  0.00008297  0.0064369 0.9200
 46  -2893.3247875974  -0.004091047481 0.01349553  0.00008071  0.0059211 0.9200
 47  -2893.3286181989  -0.003830601455 0.01266321  0.00007840  0.0054434 0.9200
 48  -2893.3322027364  -0.003584537510 0.01181535  0.00007629  0.0050054 0.9200
 49  -2893.3355657833  -0.003363046988 0.01098988  0.00007420  0.0046063 0.9200
 50  -2893.3387197985  -0.003154015106 0.01020728  0.00007193  0.0042406 0.9200
 51  -2893.3416747217  -0.002954923219 0.00946052  0.00006958  0.0039024 0.9200
 52  -2893.3444442988  -0.002769577148 0.00874690  0.00006741  0.0035894 0.9200
 53  -2893.3470427593  -0.002598460450 0.00806382  0.00006544  0.0033012 0.9200
 54  -2893.3494864230  -0.002443663738 0.00745492  0.00006350  0.0030376 0.9200
 55  -2893.3517815816  -0.002295158603 0.08784629  0.00076834  0.0027962 0.0000
 56  -2893.3798778718  -0.028096290161 0.00576046  0.00005599  0.0019822 0.0000
 57  -2893.3804389086  -0.000561036822 0.00657940  0.00005283  0.0019697 0.0000
 58  -2893.3809370064  -0.000498097822 0.00044589  0.00000406  0.0036126 0.9200
 59  -2893.3809782249  -0.000041218506 0.00082832  0.00000759  0.0035598 0.9200
               *** Restarting incremental Fock matrix formation ***
                                   *** Resetting DIIS ***
 60  -2893.3810505381  -0.000072313206 0.00095271  0.00001097  0.0035705 0.9200
 61  -2893.3811685533  -0.000118015190 0.01585776  0.00016773  0.0025522 0.0000
 62  -2893.3825757182  -0.001407164876 0.00041199  0.00000362  0.0062325 0.9200
 63  -2893.3826375125  -0.000061794333 0.00074425  0.00000672  0.0058474 0.9200
 64  -2893.3827398072  -0.000102294662 0.00101644  0.00000945  0.0052621 0.9200
 65  -2893.3828694626  -0.000129655425 0.00124003  0.00001184  0.0045469 0.9200
 66  -2893.3830169804  -0.000147517811 0.00149091  0.00001419  0.0037409 0.9200
 67  -2893.3831789405  -0.000161960059 0.02077420  0.00020153  0.0028549 0.0000
 68  -2893.3846647892  -0.001485848683 0.00024937  0.00000301  0.0084743 0.9200
 69  -2893.3846978778  -0.000033088654 0.00045581  0.00000561  0.0083892 0.9200
 70  -2893.3847520880  -0.000054210165 0.00062380  0.00000786  0.0083062 0.9200
 71  -2893.3848211551  -0.000069067132 0.00076242  0.00000982  0.0082488 0.9200
 72  -2893.3849014433  -0.000080288175 0.00116855  0.00001488  0.0082202 0.9200
 73  -2893.3851684883  -0.000267045041 0.00106374  0.00001475  0.0050008 0.9200
 74  -2893.3853403392  -0.000171850822 0.00116532  0.00001543  0.0032036 0.9200
 75  -2893.3854762101  -0.000135870895 0.01568722  0.00020250  0.0020557 0.0000
 76  -2893.3865632890  -0.001087078958 0.00018033  0.00000243  0.0081610 0.9200
 77  -2893.3866091044  -0.000045815436 0.00033638  0.00000449  0.0079054 0.9200
 78  -2893.3866841645  -0.000075060088 0.00047538  0.00000627  0.0074924 0.9200
 79  -2893.3867777456  -0.000093581106 0.00060003  0.00000781  0.0069736 0.9200
               *** Restarting incremental Fock matrix formation ***
                                   *** Resetting DIIS ***
 80  -2893.3868828329  -0.000105087257 0.00100111  0.00001372  0.0063772 0.9200
 81  -2893.3871127710  -0.000229938060 0.01124648  0.00016877  0.0029734 0.0000
 82  -2893.3838225512   0.003290219744 0.00025531  0.00000259  0.0246003 0.9200
 83  -2893.3839843312  -0.000161780031 0.00031648  0.00000434  0.0241180 0.9200
 84  -2893.3842196945  -0.000235363279 0.00039633  0.00000574  0.0234374 0.9200
 85  -2893.3844873143  -0.000267619727 0.00050022  0.00000693  0.0226699 0.9200
 86  -2893.3847657229  -0.000278408678 0.00266167  0.00002274  0.0218695 0.9200
 87  -2893.3862944526  -0.001528729666 0.00179654  0.00001910  0.0145105 0.9200
 88  -2893.3871146005  -0.000820147854 0.00160836  0.00001705  0.0097957 0.9200
 89  -2893.3875606034  -0.000446002927 0.00145380  0.00001558  0.0064357 0.9200
 90  -2893.3878112418  -0.000250638453 0.00125124  0.00001449  0.0039523 0.9200
 91  -2893.3879598280  -0.000148586174 0.01303143  0.00017159  0.0021086 0.0000
 92  -2893.3871352507   0.000824577287 0.00011402  0.00000170  0.0153464 0.9200
 93  -2893.3872006286  -0.000065377874 0.00021403  0.00000313  0.0150918 0.9200
 94  -2893.3873095567  -0.000108928090 0.00030178  0.00000431  0.0146608 0.9200
 95  -2893.3874456845  -0.000136127851 0.00037873  0.00000531  0.0141076 0.9200
 96  -2893.3875970401  -0.000151355545 0.00128365  0.00001437  0.0134710 0.9200
 97  -2893.3882204594  -0.000623419297 0.00127655  0.00001339  0.0091868 0.9200
 98  -2893.3885888405  -0.000368381098 0.00127978  0.00001269  0.0062910 0.9200
 99  -2893.3888048604  -0.000216019923 0.00119738  0.00001207  0.0040531 0.9200
               *** Restarting incremental Fock matrix formation ***
                                   *** Resetting DIIS ***
100  -2893.3889313550  -0.000126494626 0.01620809  0.00016580  0.0022833 0.0000
101  -2893.3837638656   0.005167489390 0.00028363  0.00000200  0.0290030 0.9200
102  -2893.3839694282  -0.000205562577 0.00033200  0.00000302  0.0283921 0.9200
103  -2893.3842609132  -0.000291484961 0.00033248  0.00000376  0.0275523 0.9200
104  -2893.3845891948  -0.000328281588 0.00033582  0.00000437  0.0266085 0.9200
105  -2893.3849288387  -0.000339643950 0.00307628  0.00002517  0.0256194 0.9200
106  -2893.3869408641  -0.002012025417 0.00205350  0.00002041  0.0170384 0.9200
107  -2893.3879997352  -0.001058871025 0.00190237  0.00001744  0.0114818 0.9200
108  -2893.3885532887  -0.000553553565 0.00172349  0.00001503  0.0074794 0.9200
109  -2893.3888404941  -0.000287205346 0.00148837  0.00001294  0.0044893 0.9200
110  -2893.3889867630  -0.000146268927 0.01555998  0.00013989  0.0022404 0.0000
111  -2893.3868899658   0.002096797184 0.00012293  0.00000136  0.0188304 0.9200
112  -2893.3869713934  -0.000081427641 0.00022561  0.00000244  0.0185555 0.9200
113  -2893.3871056856  -0.000134292174 0.00030717  0.00000330  0.0180939 0.9200
114  -2893.3872722272  -0.000166541624 0.00036956  0.00000397  0.0175051 0.9200
115  -2893.3874563513  -0.000184124085 0.00169678  0.00001762  0.0168307 0.9200
116  -2893.3884174865  -0.000961135132 0.00165274  0.00001535  0.0113138 0.9200
117  -2893.3889464789  -0.000528992397 0.00164836  0.00001382  0.0075934 0.9200
118  -2893.3892332749  -0.000286796048 0.00153618  0.00001238  0.0047653 0.9200
119  -2893.3893831542  -0.000149879246 0.01717995  0.00013755  0.0025607 0.0000
               *** Restarting incremental Fock matrix formation ***
                                   *** Resetting DIIS ***
120  -2893.3868450925   0.002538061689 0.00342550  0.00002723  0.0198679 0.9200
121  -2893.3883253370  -0.001480244581 0.00228405  0.00002226  0.0104659 0.9200
122  -2893.3889489515  -0.000623614452 0.00216289  0.00001856  0.0047604 0.9200
123  -2893.3891376757  -0.000188724162 0.02448204  0.00019528  0.0010969 0.0000
124  -2893.3798498522   0.009287823419 0.00018173  0.00000181  0.0356762 0.9200
125  -2893.3801261427  -0.000276290422 0.00030163  0.00000305  0.0351578 0.9200
126  -2893.3805608333  -0.000434690613 0.00036111  0.00000394  0.0343411 0.9200
127  -2893.3810821172  -0.000521283933 0.00041479  0.00000459  0.0333563 0.9200
128  -2893.3816443947  -0.000562277512 0.00346127  0.00003434  0.0322599 0.9200
129  -2893.3852006372  -0.003556242505 0.00303758  0.00002855  0.0215851 0.9200
130  -2893.3870890360  -0.001888398796 0.00301938  0.00002481  0.0142833 0.9200
131  -2893.3880773079  -0.000988271855 0.00277681  0.00002146  0.0088545 0.9200
132  -2893.3885731876  -0.000495879685 0.00243580  0.00001828  0.0047085 0.9200
133  -2893.3887985036  -0.000225316085 0.02596246  0.00019243  0.0015812 0.0000
134  -2893.3827493132   0.006049190416 0.00016073  0.00000144  0.0304400 0.9200
135  -2893.3829031974  -0.000153884124 0.00029337  0.00000251  0.0301110 0.9200
136  -2893.3831554734  -0.000252276076 0.00039732  0.00000330  0.0295644 0.9200
137  -2893.3834681720  -0.000312698569 0.00047564  0.00000388  0.0288726 0.9200
138  -2893.3838147026  -0.000346530580 0.00385804  0.00003292  0.0280860 0.9200
139  -2893.3866293744  -0.002814671841 0.00288955  0.00002689  0.0169851 0.9200
               *** Restarting incremental Fock matrix formation ***
                                   *** Resetting DIIS ***
140  -2893.3879916459  -0.001362271526 0.00365363  0.00003466  0.0101846 0.9200
141  -2893.3886075420  -0.000615896040 0.04303711  0.00035492  0.0018447 0.0000
142  -2893.3491974753   0.039410066729 0.00043380  0.00000380  0.0737757 0.9200
143  -2893.3504953719  -0.001297896667 0.00058171  0.00000588  0.0725125 0.9200
144  -2893.3524502090  -0.001954837098 0.00073092  0.00000721  0.0705768 0.9200
145  -2893.3547268804  -0.002276671407 0.00083030  0.00000811  0.0682634 0.9200
146  -2893.3571334958  -0.002406615324 0.00637193  0.00006549  0.0657396 0.9200
147  -2893.3709813197  -0.013847823989 0.00570024  0.00005422  0.0449399 0.9200
148  -2893.3785473332  -0.007566013415 0.00566706  0.00004657  0.0304270 0.9200
149  -2893.3826178908  -0.004070557680 0.00517830  0.00003980  0.0196790 0.9200
150  -2893.3847454286  -0.002127537750 0.00449147  0.00003346  0.0115298 0.9200
151  -2893.3857900072  -0.001044578605 0.00376738  0.00002771  0.0053209 0.9200
152  -2893.3862521952  -0.000462188021 0.03868611  0.00028414  0.0011890 0.0000
153  -2893.3726654774   0.013586717830 0.00033009  0.00000249  0.0471932 0.9200
154  -2893.3730425656  -0.000377088193 0.00058875  0.00000433  0.0466786 0.9200
155  -2893.3736644127  -0.000621847105 0.00078512  0.00000568  0.0458174 0.9200
156  -2893.3744389811  -0.000774568424 0.00092970  0.00000665  0.0447204 0.9200
157  -2893.3753008182  -0.000861837138 0.00613514  0.00005128  0.0434657 0.9200
158  -2893.3821098629  -0.006809044623 0.00463260  0.00004218  0.0260963 0.9200
159  -2893.3853807691  -0.003270906280 0.00457676  0.00003698  0.0154085 0.9200
               *** Restarting incremental Fock matrix formation ***
                                   *** Resetting DIIS ***
160  -2893.3869155102  -0.001534741024 0.00486919  0.00004065  0.0079792 0.9200
161  -2893.3874205640  -0.000505053879 0.05547158  0.00042720  0.0026256 0.0000
162  -2893.3402972375   0.047123326538 0.00036750  0.00000361  0.0812680 0.9200
163  -2893.3416725402  -0.001375302717 0.00060819  0.00000589  0.0800577 0.9200
164  -2893.3437872391  -0.002114698860 0.00077122  0.00000747  0.0781695 0.9200
165  -2893.3462921459  -0.002504906814 0.00088533  0.00000861  0.0758816 0.9200
166  -2893.3489870625  -0.002694916553 0.00773518  0.00007738  0.0733476 0.9200
167  -2893.3666973277  -0.017710265211 0.00687630  0.00006356  0.0488709 0.9200
168  -2893.3760582408  -0.009360913123 0.00682540  0.00005479  0.0322010 0.9200
169  -2893.3809479712  -0.004889730431 0.00623801  0.00004702  0.0199954 0.9200
170  -2893.3834057858  -0.002457814598 0.00541546  0.00003969  0.0108097 0.9200
171  -2893.3845365553  -0.001130769520 0.00455491  0.00003307  0.0038451 0.9200
172  -2893.3849714758  -0.000434920507 0.00376429  0.00002738  0.0034253 0.9200
173  -2893.3850634047  -0.000091928825 0.00308309  0.00002265  0.0075387 0.9200
174  -2893.3849989267   0.000064477942 0.00251113  0.00001874  0.0107573 0.9200
175  -2893.3848750522   0.000123874544 0.00203454  0.00001550  0.0133712 0.9200
176  -2893.3847431275   0.000131924718 0.00163553  0.00001280  0.0154572 0.9200
177  -2893.3846326271   0.000110500360 0.00128960  0.00001048  0.0170968 0.9200
178  -2893.3845707491   0.000061878030 0.00094900  0.00000826  0.0183122 0.9200
179  -2893.3846113360  -0.000040586951 0.00055251  0.00000622  0.0189702 0.9200
               *** Restarting incremental Fock matrix formation ***
                                   *** Resetting DIIS ***
180  -2893.3848373758  -0.000226039818 0.00308786  0.00002316  0.0187717 0.9200
181  -2893.3861640870  -0.001326711198 0.00187662  0.00001857  0.0105554 0.9200
182  -2893.3868567225  -0.000692635449 0.00194717  0.00001547  0.0053104 0.9200
183  -2893.3872162380  -0.000359515533 0.02282304  0.00016399  0.0018894 0.0000
184  -2893.3837369489   0.003479289138 0.00017356  0.00000165  0.0275221 0.9200
185  -2893.3839346396  -0.000197690676 0.00028764  0.00000272  0.0270450 0.9200
186  -2893.3842429596  -0.000308320073 0.00033923  0.00000345  0.0263002 0.9200
187  -2893.3846090703  -0.000366110695 0.00036274  0.00000396  0.0253864 0.9200
188  -2893.3849997908  -0.000390720502 0.00231717  0.00002470  0.0243725 0.9200
189  -2893.3869974953  -0.001997704511 0.00229806  0.00002204  0.0169672 0.9200
190  -2893.3881342246  -0.001136729277 0.00233423  0.00001963  0.0117074 0.9200
191  -2893.3887649832  -0.000630758548 0.00216187  0.00001706  0.0077280 0.9200
192  -2893.3891045976  -0.000339614428 0.00189604  0.00001448  0.0046480 0.9200
193  -2893.3892768200  -0.000172222443 0.02011761  0.00015125  0.0022537 0.0000
194  -2893.3860549649   0.003221855109 0.00013468  0.00000115  0.0219287 0.9200
195  -2893.3861418698  -0.000086904832 0.00024623  0.00000199  0.0216773 0.9200
196  -2893.3862851462  -0.000143276479 0.00033351  0.00000260  0.0212567 0.9200
197  -2893.3864631366  -0.000177990316 0.00039900  0.00000304  0.0207223 0.9200
198  -2893.3866604540  -0.000197317449 0.00258440  0.00002351  0.0201130 0.9200
199  -2893.3881060427  -0.001445588722 0.00221025  0.00002017  0.0124528 0.9200
               *** Restarting incremental Fock matrix formation ***
                                   *** Resetting DIIS ***

 WARNING: the maximum gradient error descreased on average only by a factor   0.9
          during the last 200 iterations

                      *** Initiating the TRAH-SCF procedure ***


TRAH GRID
---------

General Integration Accuracy     IntAcc      ... 3.467
Radial Grid Type                 RadialGrid  ... OptM3 with GC (2021)
Angular Grid (max. ang.)         AngularGrid ... 1 (Lebedev-50)
Angular grid pruning method      GridPruning ... 4 (adaptive)
Weight generation scheme         WeightScheme... Becke
Basis function cutoff            BFCut       ... 1.0000e-10
Integration weight cutoff        WCut        ... 1.0000e-14
Angular grids for H and He will be reduced by one unit
Partially contracted basis set               ... off
Rotationally invariant grid construction     ... off

Total number of grid points                  ...    62320
Total number of batches                      ...      981
Average number of points per batch           ...       63
Average number of grid points per atom       ...     4794

 --------------------------------------------------------------------------------------------
   Iter.        energy            ||Error||_2        Shift      TRadius  Mac/Mic        Rej.
 --------------------------------------------------------------------------------------------
WARNING: 14 diagonal Hessian elements are negative!
    0      -2893.373513547540     2.393899e-01                     0.400 (TRAH MAcro)   No
WARNING : negative HOMO - LUMO gap : (op = alpha) -0.043818
WARNING : negative HOMO - LUMO gap : (op =  beta) -0.017438
    0     dE    -1.087644e-02     1.362099e-01    -1.0854e-02      0.045 (TRAH MIcro)
    0     dE    -1.635634e-02     1.484669e-02    -1.6099e-02      0.126 (TRAH MIcro)
    0     dE    -1.646288e-02     8.637138e-03    -1.6211e-02      0.125 (TRAH MIcro)
WARNING: 1 diagonal Hessian elements are negative!
    1      -2893.389155881921     1.397528e-02                     0.480 (TRAH MAcro)   No
WARNING : negative HOMO - LUMO gap : (op = alpha) -0.000298
WARNING : small    HOMO - LUMO gap : (op =  beta) 0.019083
    1     dE    -3.822344e-05     4.579145e-02    -3.8223e-05      0.003 (TRAH MIcro)
    1     dE    -6.248016e-04     1.565197e-02    -6.2246e-04      0.061 (TRAH MIcro)
    1     dE    -7.143024e-04     1.085117e-02    -7.1068e-04      0.071 (TRAH MIcro)
    1     dE    -7.458066e-04     3.400962e-03    -7.4165e-04      0.075 (TRAH MIcro)
    1     dE    -7.501060e-04     2.618578e-03    -7.4586e-04      0.075 (TRAH MIcro)
    1     dE    -7.523165e-04     1.104962e-03    -7.4804e-04      0.076 (TRAH MIcro)
WARNING: 1 diagonal Hessian elements are negative!
    2      -2893.389904566660     4.287481e-03                     0.576 (TRAH MAcro)   No
WARNING : negative HOMO - LUMO gap : (op = alpha) -0.000157
WARNING : small    HOMO - LUMO gap : (op =  beta) 0.019602
    2     dE    -3.191075e-06     8.785878e-03    -3.1911e-06      0.001 (TRAH MIcro)
    2     dE    -5.351064e-06     1.013514e-03    -5.3510e-06      0.002 (TRAH MIcro)
    2     dE    -5.629749e-06     3.928657e-04    -5.6297e-06      0.003 (TRAH MIcro)
WARNING: 1 diagonal Hessian elements are negative!
    3      -2893.389910195022     3.933070e-04                           (NR   MAcro)
WARNING : negative HOMO - LUMO gap : (op = alpha) -0.000126
    3     dE    -5.986439e-08     2.672253e-04                           (NR   MIcro)
    3     dE    -1.120771e-07     2.755359e-04                           (NR   MIcro)
    3     dE    -1.348613e-07     1.871456e-04                           (NR   MIcro)
    3     dE    -1.542352e-07     1.285738e-04                           (NR   MIcro)
    3     dE    -1.637360e-07     1.130245e-04                           (NR   MIcro)
    3     dE    -1.749033e-07     1.308806e-04                           (NR   MIcro)
    3     dE    -1.973587e-07     1.889643e-04                           (NR   MIcro)
    3     dE    -2.375513e-07     2.603420e-04                           (NR   MIcro)
    3     dE    -3.165504e-07     3.643580e-04                           (NR   MIcro)
    3     dE    -5.386343e-07     6.217940e-04                           (NR   MIcro)
    3     dE    -1.083818e-06     9.543456e-04                           (NR   MIcro)
    3     dE    -2.661377e-06     1.336541e-03                           (NR   MIcro)
    3     dE    -4.358766e-06     1.315396e-03                           (NR   MIcro)
    3     dE    -5.691733e-06     9.414657e-04                           (NR   MIcro)
    3     dE    -6.218787e-06     4.250785e-04                           (NR   MIcro)
WARNING: 1 diagonal Hessian elements are negative!
    4      -2893.389915652025     7.523133e-04                           (NR   MAcro)
WARNING : negative HOMO - LUMO gap : (op = alpha) -0.000019
    4     dE    -2.092432e-07     4.904149e-04                           (NR   MIcro)
    4     dE    -2.695790e-07     3.262149e-04                           (NR   MIcro)
    4     dE    -3.331081e-07     2.075328e-04                           (NR   MIcro)
    4     dE    -3.612513e-07     1.424757e-04                           (NR   MIcro)
    4     dE    -3.747654e-07     7.980299e-05                           (NR   MIcro)
    4     dE    -3.781390e-07     5.179852e-05                           (NR   MIcro)
    4     dE    -3.797417e-07     3.281416e-05                           (NR   MIcro)
    4     dE    -3.803183e-07     2.092000e-05                           (NR   MIcro)
    4     dE    -3.806089e-07     1.305605e-05                           (NR   MIcro)
    4     dE    -3.807424e-07     1.132794e-05                           (NR   MIcro)
    4     dE    -3.808384e-07     1.236866e-05                           (NR   MIcro)
    4     dE    -3.810417e-07     1.883494e-05                           (NR   MIcro)
    4     dE    -3.815917e-07     3.002003e-05                           (NR   MIcro)
    4     dE    -3.830479e-07     4.905722e-05                           (NR   MIcro)
    4     dE    -3.881326e-07     8.016458e-05                           (NR   MIcro)
WARNING: 1 diagonal Hessian elements are negative!
    5      -2893.389916039570     8.050430e-05                           (NR   MAcro)
WARNING : negative HOMO - LUMO gap : (op = alpha) -0.000070
    5     dE    -3.255895e-09     4.455424e-05                           (NR   MIcro)
    5     dE    -4.285324e-09     4.605803e-05                           (NR   MIcro)
    5     dE    -5.465726e-09     3.198334e-05                           (NR   MIcro)
    5     dE    -6.155998e-09     2.046227e-05                           (NR   MIcro)
    5     dE    -6.369238e-09     1.149276e-05                           (NR   MIcro)
    5     dE    -6.442292e-09     9.061380e-06                           (NR   MIcro)
    5     dE    -6.520694e-09     1.077522e-05                           (NR   MIcro)
    5     dE    -6.651706e-09     1.479784e-05                           (NR   MIcro)
    5     dE    -7.030843e-09     2.436985e-05                           (NR   MIcro)
    5     dE    -7.654235e-09     3.397358e-05                           (NR   MIcro)
    5     dE    -9.689429e-09     5.745199e-05                           (NR   MIcro)
    5     dE    -1.380337e-08     8.044229e-05                           (NR   MIcro)
    5     dE    -2.222561e-08     9.314023e-05                           (NR   MIcro)
    5     dE    -2.939614e-08     9.346876e-05                           (NR   MIcro)
    5     dE    -3.872417e-08     8.294297e-05                           (NR   MIcro)
WARNING: 1 diagonal Hessian elements are negative!
    6      -2893.389916080151     8.451084e-05                           (NR   MAcro)
WARNING : negative HOMO - LUMO gap : (op = alpha) -0.000067
    6     dE    -3.079180e-09     4.376391e-05                           (NR   MIcro)
    6     dE    -4.313466e-09     2.967325e-05                           (NR   MIcro)
    6     dE    -4.534107e-09     2.643784e-05                           (NR   MIcro)
    6     dE    -4.902394e-09     1.706080e-05                           (NR   MIcro)
    6     dE    -5.074075e-09     1.053507e-05                           (NR   MIcro)
    6     dE    -5.134243e-09     6.053434e-06                           (NR   MIcro)
    6     dE    -5.155633e-09     3.916559e-06                           (NR   MIcro)
WARNING: 1 diagonal Hessian elements are negative!
    7      -2893.389916085287     3.909009e-06                           (NR   MAcro)
WARNING : negative HOMO - LUMO gap : (op = alpha) -0.000072

               *****************************************************
               *                     SUCCESS                       *
               *           SCF CONVERGED AFTER 272 CYCLES          *
               *****************************************************


----------------
TOTAL SCF ENERGY
----------------

Total Energy       :        -2893.38991609 Eh          -78733.14233 eV

Components:
Nuclear Repulsion  :         4481.97272000 Eh          121960.67807 eV
Electronic Energy  :        -7375.36263608 Eh         -200693.82040 eV
One Electron Energy:       -13563.58331545 Eh         -369083.86587 eV
Two Electron Energy:         6188.22067937 Eh          168390.04547 eV

Virial components:
Potential Energy   :        -4704.52256774 Eh         -128016.56730 eV
Kinetic Energy     :         1811.13265165 Eh           49283.42497 eV
Virial Ratio       :            2.59755825


DFT components:
N(Alpha)           :      128.999979799820 electrons
N(Beta)            :      124.999979454227 electrons
N(Total)           :      253.999959254047 electrons
E(X)               :     -198.917580109295 Eh       
E(C)               :      -11.103701843966 Eh       
E(XC)              :     -210.021281953261 Eh       
DFET-embed. en.    :        0.000000000000 Eh       

---------------
SCF CONVERGENCE
---------------

  Last Energy change         ...   -5.1359e-09  Tolerance :   1.0000e-06
  Last Orbital Gradient      ...    3.9090e-06  Tolerance :   5.0000e-05
  Last Orbital Rotation      ...    2.7045e-04

             **** THE GBW FILE WAS UPDATED (pbeSP.gbw) ****
             **** DENSITY pbeSP.scfp WAS UPDATED ****
             **** ENERGY FILE WAS UPDATED (pbeSP.en.tmp) ****
----------------------
UHF SPIN CONTAMINATION
----------------------

Warning: in a DFT calculation there is little theoretical justification to 
         calculate <S**2> as in Hartree-Fock theory. We will do it anyways
         but you should keep in mind that the values have only limited relevance

Expectation value of <S**2>     :     6.437128
Ideal value S*(S+1) for S=2.0   :     6.000000
Deviation                       :     0.437128

             **** THE GBW FILE WAS UPDATED (pbeSP.gbw) ****
             **** DENSITY pbeSP.scfp WAS UPDATED ****
----------------
ORBITAL ENERGIES
----------------
                 SPIN UP ORBITALS
  NO   OCC          E(Eh)            E(eV) 
   0   1.0000    -254.767679     -6932.5810 
   1   1.0000     -29.608189      -805.6798 
   2   1.0000     -25.545142      -695.1187 
   3   1.0000     -25.543594      -695.0765 
   4   1.0000     -25.540757      -694.9993 
   5   1.0000      -4.034333      -109.7798 
   6   1.0000      -4.030980      -109.6885 
   7   1.0000      -4.028431      -109.6192 
   8   1.0000      -4.027790      -109.6017 
   9   1.0000      -4.027171      -109.5849 
  10   1.0000      -4.026720      -109.5726 
  11   1.0000      -4.025182      -109.5308 
  12   1.0000      -4.024769      -109.5195 
  13   1.0000      -4.021899      -109.4414 
  14   1.0000      -4.021170      -109.4216 
  15   1.0000      -4.019694      -109.3814 
  16   1.0000      -4.019428      -109.3742 
  17   1.0000      -3.386869       -92.1614 
  18   1.0000      -2.250549       -61.2405 
  19   1.0000      -2.247921       -61.1690 
  20   1.0000      -2.246993       -61.1438 
  21   1.0000      -2.245790       -61.1110 
  22   1.0000      -2.245568       -61.1050 
  23   1.0000      -2.245491       -61.1029 
  24   1.0000      -2.244315       -61.0709 
  25   1.0000      -2.243833       -61.0578 
  26   1.0000      -2.243484       -61.0483 
  27   1.0000      -2.242375       -61.0181 
  28   1.0000      -2.241304       -60.9890 
  29   1.0000      -2.240928       -60.9787 
  30   1.0000      -2.240842       -60.9764 
  31   1.0000      -2.240376       -60.9637 
  32   1.0000      -2.239631       -60.9435 
  33   1.0000      -2.239508       -60.9401 
  34   1.0000      -2.239171       -60.9309 
  35   1.0000      -2.238644       -60.9166 
  36   1.0000      -2.238166       -60.9036 
  37   1.0000      -2.237410       -60.8830 
  38   1.0000      -2.236846       -60.8677 
  39   1.0000      -2.236148       -60.8487 
  40   1.0000      -2.235649       -60.8351 
  41   1.0000      -2.235337       -60.8266 
  42   1.0000      -2.235114       -60.8205 
  43   1.0000      -2.234816       -60.8124 
  44   1.0000      -2.234119       -60.7935 
  45   1.0000      -2.233781       -60.7843 
  46   1.0000      -2.233692       -60.7819 
  47   1.0000      -2.233361       -60.7728 
  48   1.0000      -2.232602       -60.7522 
  49   1.0000      -2.231742       -60.7288 
  50   1.0000      -2.231195       -60.7139 
  51   1.0000      -2.231121       -60.7119 
  52   1.0000      -2.230366       -60.6913 
  53   1.0000      -2.229938       -60.6797 
  54   1.0000      -2.204163       -59.9783 
  55   1.0000      -2.201272       -59.8996 
  56   1.0000      -2.195366       -59.7389 
  57   1.0000      -0.438259       -11.9256 
  58   1.0000      -0.387567       -10.5462 
  59   1.0000      -0.385775       -10.4975 
  60   1.0000      -0.385179       -10.4813 
  61   1.0000      -0.377799       -10.2804 
  62   1.0000      -0.377443       -10.2708 
  63   1.0000      -0.372275       -10.1301 
  64   1.0000      -0.370038       -10.0693 
  65   1.0000      -0.360982        -9.8228 
  66   1.0000      -0.353070        -9.6075 
  67   1.0000      -0.350218        -9.5299 
  68   1.0000      -0.348862        -9.4930 
  69   1.0000      -0.344702        -9.3798 
  70   1.0000      -0.343563        -9.3488 
  71   1.0000      -0.342777        -9.3274 
  72   1.0000      -0.336949        -9.1689 
  73   1.0000      -0.333670        -9.0796 
  74   1.0000      -0.333289        -9.0692 
  75   1.0000      -0.332154        -9.0384 
  76   1.0000      -0.330199        -8.9852 
  77   1.0000      -0.329224        -8.9586 
  78   1.0000      -0.324735        -8.8365 
  79   1.0000      -0.323884        -8.8133 
  80   1.0000      -0.321666        -8.7530 
  81   1.0000      -0.318760        -8.6739 
  82   1.0000      -0.316155        -8.6030 
  83   1.0000      -0.312476        -8.5029 
  84   1.0000      -0.310791        -8.4571 
  85   1.0000      -0.308383        -8.3915 
  86   1.0000      -0.303283        -8.2528 
  87   1.0000      -0.301071        -8.1926 
  88   1.0000      -0.300085        -8.1657 
  89   1.0000      -0.296976        -8.0811 
  90   1.0000      -0.290229        -7.8975 
  91   1.0000      -0.289023        -7.8647 
  92   1.0000      -0.288014        -7.8373 
  93   1.0000      -0.287150        -7.8138 
  94   1.0000      -0.284101        -7.7308 
  95   1.0000      -0.283149        -7.7049 
  96   1.0000      -0.279126        -7.5954 
  97   1.0000      -0.275955        -7.5091 
  98   1.0000      -0.273173        -7.4334 
  99   1.0000      -0.271602        -7.3907 
 100   1.0000      -0.270704        -7.3662 
 101   1.0000      -0.268861        -7.3161 
 102   1.0000      -0.267623        -7.2824 
 103   1.0000      -0.266773        -7.2593 
 104   1.0000      -0.265559        -7.2262 
 105   1.0000      -0.265427        -7.2226 
 106   1.0000      -0.264542        -7.1985 
 107   1.0000      -0.260816        -7.0972 
 108   1.0000      -0.259717        -7.0673 
 109   1.0000      -0.259416        -7.0591 
 110   1.0000      -0.256339        -6.9753 
 111   1.0000      -0.255567        -6.9543 
 112   1.0000      -0.253888        -6.9086 
 113   1.0000      -0.253804        -6.9064 
 114   1.0000      -0.252814        -6.8794 
 115   1.0000      -0.252035        -6.8582 
 116   1.0000      -0.250260        -6.8099 
 117   1.0000      -0.248851        -6.7716 
 118   1.0000      -0.248090        -6.7509 
 119   1.0000      -0.247788        -6.7427 
 120   1.0000      -0.246892        -6.7183 
 121   1.0000      -0.244367        -6.6496 
 122   1.0000      -0.240791        -6.5523 
 123   1.0000      -0.239782        -6.5248 
 124   1.0000      -0.236649        -6.4395 
 125   1.0000      -0.236312        -6.4304 
 126   1.0000      -0.211327        -5.7505 
 127   1.0000      -0.187783        -5.1098 
 128   1.0000      -0.179080        -4.8730 
 129   0.0000      -0.179152        -4.8750 
 130   0.0000      -0.156344        -4.2543 
 131   0.0000      -0.140490        -3.8229 
 132   0.0000      -0.116271        -3.1639 
 133   0.0000      -0.116075        -3.1586 
 134   0.0000      -0.110001        -2.9933 
 135   0.0000      -0.065479        -1.7818 
 136   0.0000      -0.063028        -1.7151 
 137   0.0000      -0.060030        -1.6335 
 138   0.0000      -0.059040        -1.6066 
 139   0.0000      -0.050151        -1.3647 
 140   0.0000      -0.044451        -1.2096 
 141   0.0000      -0.038041        -1.0351 
 142   0.0000      -0.036816        -1.0018 
 143   0.0000      -0.017123        -0.4659 
 144   0.0000      -0.009384        -0.2553 
 145   0.0000       0.004569         0.1243 
 146   0.0000       0.006466         0.1759 
 147   0.0000       0.034358         0.9349 
 148   0.0000       0.037534         1.0214 
 149   0.0000       0.040147         1.0925 
 150   0.0000       0.041700         1.1347 
 151   0.0000       0.046297         1.2598 
 152   0.0000       0.052835         1.4377 
 153   0.0000       0.054232         1.4757 
 154   0.0000       0.056055         1.5253 
 155   0.0000       0.059847         1.6285 
 156   0.0000       0.061453         1.6722 
 157   0.0000       0.066194         1.8012 
 158   0.0000       0.069443         1.8896 
 159   0.0000       0.072835         1.9819 
 160   0.0000       0.083806         2.2805 
 161   0.0000       0.091819         2.4985 
 162   0.0000       0.094744         2.5781 
 163   0.0000       0.096254         2.6192 
 164   0.0000       0.101227         2.7545 
 165   0.0000       0.116673         3.1748 
 166   0.0000       0.119783         3.2595 
 167   0.0000       0.130728         3.5573 
 168   0.0000       0.135292         3.6815 
 169   0.0000       0.140587         3.8256 
 170   0.0000       0.146791         3.9944 
 171   0.0000       0.147364         4.0100 
 172   0.0000       0.151290         4.1168 
 173   0.0000       0.169580         4.6145 
 174   0.0000       0.172596         4.6966 
 175   0.0000       0.173752         4.7280 
 176   0.0000       0.174329         4.7437 
 177   0.0000       0.178448         4.8558 
 178   0.0000       0.179111         4.8739 
 179   0.0000       0.190077         5.1723 
 180   0.0000       0.204604         5.5676 
 181   0.0000       0.208343         5.6693 
 182   0.0000       0.213466         5.8087 
 183   0.0000       0.219470         5.9721 
 184   0.0000       0.219978         5.9859 
 185   0.0000       0.223334         6.0772 
 186   0.0000       0.225099         6.1253 
 187   0.0000       0.231006         6.2860 
 188   0.0000       0.231165         6.2903 
 189   0.0000       0.239850         6.5266 
 190   0.0000       0.240869         6.5544 
 191   0.0000       0.245130         6.6703 
 192   0.0000       0.251536         6.8446 
 193   0.0000       0.260944         7.1006 
 194   0.0000       0.262142         7.1333 
 195   0.0000       0.266801         7.2600 
 196   0.0000       0.282989         7.7005 
 197   0.0000       0.285543         7.7700 
 198   0.0000       0.288478         7.8499 
 199   0.0000       0.294025         8.0008 
 200   0.0000       0.298530         8.1234 
 201   0.0000       0.302943         8.2435 
 202   0.0000       0.310487         8.4488 
 203   0.0000       0.315061         8.5733 
 204   0.0000       0.319990         8.7074 
 205   0.0000       0.325397         8.8545 
 206   0.0000       0.326202         8.8764 
 207   0.0000       0.329328         8.9615 
 208   0.0000       0.335492         9.1292 
 209   0.0000       0.336514         9.1570 
 210   0.0000       0.345791         9.4094 
 211   0.0000       0.350637         9.5413 
 212   0.0000       0.353962         9.6318 
 213   0.0000       0.362202         9.8560 
 214   0.0000       0.362979         9.8772 
 215   0.0000       0.377990        10.2856 
 216   0.0000       0.378750        10.3063 
 217   0.0000       0.384916        10.4741 
 218   0.0000       0.385538        10.4910 
 219   0.0000       0.398675        10.8485 
 220   0.0000       0.410754        11.1772 
 221   0.0000       0.413193        11.2435 
 222   0.0000       0.417393        11.3578 
 223   0.0000       0.422381        11.4936 
 224   0.0000       0.426755        11.6126 
 225   0.0000       0.431404        11.7391 
 226   0.0000       0.438775        11.9397 
 227   0.0000       0.441435        12.0121 
 228   0.0000       0.453678        12.3452 
 229   0.0000       0.461322        12.5532 
 230   0.0000       0.473948        12.8968 
 231   0.0000       0.474232        12.9045 
 232   0.0000       0.476707        12.9719 
 233   0.0000       0.479016        13.0347 
 234   0.0000       0.481805        13.1106 
 235   0.0000       0.483763        13.1639 
 236   0.0000       0.488434        13.2910 
 237   0.0000       0.489392        13.3170 
 238   0.0000       0.490978        13.3602 
 239   0.0000       0.496481        13.5099 
 240   0.0000       0.499536        13.5931 
 241   0.0000       0.501716        13.6524 
 242   0.0000       0.508611        13.8400 
 243   0.0000       0.510310        13.8862 
 244   0.0000       0.514275        13.9941 
 245   0.0000       0.525094        14.2885 
 246   0.0000       0.529180        14.3997 
 247   0.0000       0.529449        14.4071 
 248   0.0000       0.540574        14.7098 
 249   0.0000       0.545610        14.8468 
 250   0.0000       0.550964        14.9925 
 251   0.0000       0.560309        15.2468 
 252   0.0000       0.633724        17.2445 
 253   0.0000       0.635632        17.2964 
 254   0.0000       0.648297        17.6410 
 255   0.0000       0.656949        17.8765 
 256   0.0000       0.663364        18.0511 
 257   0.0000       0.676532        18.4094 
 258   0.0000       0.679160        18.4809 
 259   0.0000       0.684255        18.6195 
 260   0.0000       0.689464        18.7613 
 261   0.0000       0.694034        18.8856 
 262   0.0000       0.704185        19.1618 
 263   0.0000       0.713506        19.4155 
 264   0.0000       0.717250        19.5174 
 265   0.0000       0.732807        19.9407 
 266   0.0000       0.744462        20.2578 
 267   0.0000       0.757833        20.6217 
 268   0.0000       0.774069        21.0635 
 269   0.0000       0.777672        21.1615 
 270   0.0000       0.789761        21.4905 
 271   0.0000       0.795162        21.6375 
 272   0.0000       0.799636        21.7592 
 273   0.0000       0.828441        22.5430 
 274   0.0000       0.841398        22.8956 
 275   0.0000       0.853718        23.2309 
 276   0.0000       0.877811        23.8865 
 277   0.0000       0.896847        24.4044 
 278   0.0000       0.899507        24.4768 
 279   0.0000       0.901484        24.5306 
 280   0.0000       0.911219        24.7955 
 281   0.0000       0.913645        24.8615 
 282   0.0000       0.936603        25.4863 
 283   0.0000       0.938516        25.5383 
 284   0.0000       0.958600        26.0848 
 285   0.0000       0.964302        26.2400 
 286   0.0000       1.001375        27.2488 
 287   0.0000       1.028061        27.9750 
 288   0.0000       1.129701        30.7407 
 289   0.0000       1.158554        31.5259 
 290   0.0000       1.181311        32.1451 
 291   0.0000       1.208223        32.8774 
 292   0.0000       1.221683        33.2437 
 293   0.0000       1.227862        33.4118 
 294   0.0000       1.237624        33.6775 
 295   0.0000       1.240836        33.7649 
 296   0.0000       1.264909        34.4199 
 297   0.0000       1.269110        34.5342 
 298   0.0000       1.272050        34.6143 
 299   0.0000       1.281273        34.8652 
 300   0.0000       1.296716        35.2854 
 301   0.0000       1.296991        35.2929 
 302   0.0000       1.302951        35.4551 
 303   0.0000       1.320572        35.9346 
 304   0.0000       1.332104        36.2484 
 305   0.0000       1.334042        36.3011 
 306   0.0000       1.340725        36.4830 
 307   0.0000       1.345632        36.6165 
 308   0.0000       1.348624        36.6979 
 309   0.0000       1.372229        37.3403 
 310   0.0000       1.375151        37.4198 
 311   0.0000       1.386220        37.7210 
 312   0.0000       1.401437        38.1350 
 313   0.0000       1.402804        38.1722 
 314   0.0000       1.405211        38.2377 
 315   0.0000       1.408942        38.3393 
 316   0.0000       1.419664        38.6310 
 317   0.0000       1.420686        38.6588 
 318   0.0000       1.430174        38.9170 
 319   0.0000       1.432195        38.9720 
 320   0.0000       1.436306        39.0839 
 321   0.0000       1.441254        39.2185 
 322   0.0000       1.441418        39.2230 
 323   0.0000       1.442449        39.2510 
 324   0.0000       1.446043        39.3488 
 325   0.0000       1.448733        39.4220 
 326   0.0000       1.456570        39.6353 
 327   0.0000       1.458457        39.6866 
 328   0.0000       1.462945        39.8088 
 329   0.0000       1.463313        39.8188 
 330   0.0000       1.467326        39.9280 
 331   0.0000       1.467845        39.9421 
 332   0.0000       1.473819        40.1047 
 333   0.0000       1.474865        40.1331 
 334   0.0000       1.476320        40.1727 
 335   0.0000       1.479516        40.2597 
 336   0.0000       1.480835        40.2956 
 337   0.0000       1.481444        40.3121 
 338   0.0000       1.485948        40.4347 
 339   0.0000       1.487690        40.4821 
 340   0.0000       1.487899        40.4878 
 341   0.0000       1.488498        40.5041 
 342   0.0000       1.492090        40.6018 
 343   0.0000       1.494610        40.6704 
 344   0.0000       1.494967        40.6801 
 345   0.0000       1.497123        40.7388 
 346   0.0000       1.498605        40.7791 
 347   0.0000       1.498750        40.7831 
 348   0.0000       1.502040        40.8726 
 349   0.0000       1.502270        40.8789 
 350   0.0000       1.503332        40.9077 
 351   0.0000       1.504778        40.9471 
 352   0.0000       1.505391        40.9638 
 353   0.0000       1.506120        40.9836 
 354   0.0000       1.508258        41.0418 
 355   0.0000       1.509850        41.0851 
 356   0.0000       1.513740        41.1910 
 357   0.0000       1.514861        41.2215 
 358   0.0000       1.516080        41.2546 
 359   0.0000       1.516588        41.2685 
 360   0.0000       1.516899        41.2769 
 361   0.0000       1.522567        41.4311 
 362   0.0000       1.523890        41.4671 
 363   0.0000       1.525018        41.4978 
 364   0.0000       1.526216        41.5304 
 365   0.0000       1.526837        41.5473 
 366   0.0000       1.527793        41.5734 
 367   0.0000       1.532801        41.7096 
 368   0.0000       1.533439        41.7270 
 369   0.0000       1.536637        41.8140 
 370   0.0000       1.541327        41.9416 
 371   0.0000       1.543387        41.9977 
 372   0.0000       1.544061        42.0160 
 373   0.0000       1.547965        42.1223 
 374   0.0000       1.549479        42.1635 
 375   0.0000       1.551509        42.2187 
 376   0.0000       1.552032        42.2329 
 377   0.0000       1.556531        42.3554 
 378   0.0000       1.559053        42.4240 
 379   0.0000       1.562208        42.5098 
 380   0.0000       1.562497        42.5177 
 381   0.0000       1.564397        42.5694 
 382   0.0000       1.566342        42.6223 
 383   0.0000       1.573094        42.8061 
 384   0.0000       1.575017        42.8584 
 385   0.0000       1.576301        42.8933 
 386   0.0000       1.579204        42.9723 
 387   0.0000       1.581363        43.0311 
 388   0.0000       1.586789        43.1787 
 389   0.0000       1.588289        43.2195 
 390   0.0000       1.592010        43.3208 
 391   0.0000       1.595450        43.4144 
 392   0.0000       1.595919        43.4272 
 393   0.0000       1.600766        43.5590 
 394   0.0000       1.604157        43.6513 
 395   0.0000       1.607900        43.7532 
 396   0.0000       1.611280        43.8452 
 397   0.0000       1.619407        44.0663 
 398   0.0000       1.620022        44.0830 
 399   0.0000       1.623160        44.1684 
 400   0.0000       1.627766        44.2938 
 401   0.0000       1.630653        44.3723 
 402   0.0000       1.631939        44.4073 
 403   0.0000       1.638999        44.5994 
 404   0.0000       1.642662        44.6991 
 405   0.0000       1.652314        44.9618 
 406   0.0000       1.653557        44.9956 
 407   0.0000       1.668860        45.4120 
 408   0.0000       1.676959        45.6324 
 409   0.0000       1.681894        45.7667 
 410   0.0000       1.685459        45.8637 
 411   0.0000       1.692790        46.0632 
 412   0.0000       1.714511        46.6542 
 413   0.0000       1.716615        46.7115 
 414   0.0000       1.717251        46.7288 
 415   0.0000       1.741110        47.3780 
 416   0.0000       1.750983        47.6467 
 417   0.0000       1.752319        47.6830 
 418   0.0000       1.756803        47.8050 
 419   0.0000       1.760985        47.9188 
 420   0.0000       1.774537        48.2876 
 421   0.0000       1.780374        48.4464 
 422   0.0000       1.783827        48.5404 
 423   0.0000       1.791595        48.7518 
 424   0.0000       1.797764        48.9196 
 425   0.0000       1.821474        49.5648 
 426   0.0000       1.821988        49.5788 
 427   0.0000       1.836072        49.9621 
 428   0.0000       1.837125        49.9907 
 429   0.0000       1.851184        50.3733 
 430   0.0000       1.881151        51.1887 
 431   0.0000       1.908012        51.9196 
 432   0.0000       1.913141        52.0592 
 433   0.0000       1.920502        52.2595 
 434   0.0000       2.006392        54.5967 
 435   0.0000       2.096567        57.0505 
 436   0.0000       2.111732        57.4631 
 437   0.0000       2.157784        58.7163 
 438   0.0000       2.258730        61.4632 
 439   0.0000       2.281219        62.0751 
 440   0.0000       2.328378        63.3584 
 441   0.0000       2.391115        65.0656 
 442   0.0000       2.419904        65.8489 
 443   0.0000       2.444314        66.5132 
 444   0.0000       2.446912        66.5839 
 445   0.0000       2.453404        66.7605 
 446   0.0000       2.457334        66.8675 
 447   0.0000       2.485096        67.6229 
 448   0.0000       2.490507        67.7701 
 449   0.0000       2.522393        68.6378 
 450   0.0000       2.577872        70.1475 
 451   0.0000       2.637354        71.7661 
 452   0.0000       3.331220        90.6471 
 453   0.0000       3.563931        96.9795 
 454   0.0000       3.635898        98.9378 
 455   0.0000       3.651856        99.3721 
 456   0.0000       3.700115       100.6853 
 457   0.0000       3.714727       101.0829 
 458   0.0000       3.894432       105.9729 
 459   0.0000       3.895449       106.0006 
 460   0.0000       3.896256       106.0225 
 461   0.0000       3.900540       106.1391 
[...]
      pz      :     2.147411  p :     6.494317
      px      :     2.148189
      py      :     2.198717
      dz2     :     1.991264  d :     9.899893
      dxz     :     1.960176
      dyz     :     1.991376
      dx2y2   :     1.970882
      dxy     :     1.986194
      f0      :     0.000786  f :     0.005651
      f+1     :     0.000882
      f-1     :     0.000967
      f+2     :     0.000809
      f-2     :     0.000636
      f+3     :     0.000951
      f-3     :     0.000621
  1 Aus       :     2.509571  s :     2.509571
      pz      :     2.111578  p :     6.507357
      px      :     2.196592
      py      :     2.199188
      dz2     :     1.962441  d :     9.895966
      dxz     :     1.980898
      dyz     :     1.989975
      dx2y2   :     1.984685
      dxy     :     1.977967
      f0      :     0.000828  f :     0.005726
      f+1     :     0.000879
      f-1     :     0.000825
      f+2     :     0.000745
      f-2     :     0.001049
      f+3     :     0.000858
      f-3     :     0.000543
  2 Aus       :     2.595968  s :     2.595968
      pz      :     2.165581  p :     6.488612
      px      :     2.180177
      py      :     2.142854
      dz2     :     1.989723  d :     9.875668
      dxz     :     1.984477
      dyz     :     1.942967
      dx2y2   :     1.970160
      dxy     :     1.988340
      f0      :     0.000968  f :     0.004986
      f+1     :     0.000650
      f-1     :     0.000757
      f+2     :     0.000604
      f-2     :     0.000543
      f+3     :     0.000833
      f-3     :     0.000631
  3 Aus       :     2.599024  s :     2.599024
      pz      :     2.177570  p :     6.487695
      px      :     2.146178
      py      :     2.163947
      dz2     :     1.960285  d :     9.874713
      dxz     :     1.988783
      dyz     :     1.983525
      dx2y2   :     1.991516
      dxy     :     1.950603
      f0      :     0.000449  f :     0.004960
      f+1     :     0.000680
      f-1     :     0.000779
      f+2     :     0.000778
      f-2     :     0.000586
      f+3     :     0.000721
      f-3     :     0.000968
  4 Aus       :     2.509242  s :     2.509242
      pz      :     2.190340  p :     6.508658
      px      :     2.127323
      py      :     2.190995
      dz2     :     1.980921  d :     9.895783
      dxz     :     1.984301
      dyz     :     1.979075
      dx2y2   :     1.984835
      dxy     :     1.966651
      f0      :     0.000790  f :     0.005737
      f+1     :     0.000737
      f-1     :     0.000788
      f+2     :     0.000727
      f-2     :     0.000936
      f+3     :     0.000735
      f-3     :     0.001025
  5 Aus       :     2.750516  s :     2.750516
      pz      :     2.084141  p :     6.265611
      px      :     2.087752
      py      :     2.093719
      dz2     :     1.984140  d :     9.872181
      dxz     :     1.963618
      dyz     :     1.972844
      dx2y2   :     1.981629
      dxy     :     1.969950
      f0      :     0.000511  f :     0.004568
      f+1     :     0.000317
      f-1     :     0.000631
      f+2     :     0.000613
      f-2     :     0.000917
      f+3     :     0.000871
      f-3     :     0.000708
  6 Aus       :     2.579625  s :     2.579625
      pz      :     2.180145  p :     6.469029
      px      :     2.187215
      py      :     2.101669
      dz2     :     1.979031  d :     9.871304
      dxz     :     1.976860
      dyz     :     1.970125
      dx2y2   :     1.957501
      dxy     :     1.987786
      f0      :     0.001034  f :     0.005608
      f+1     :     0.000673
      f-1     :     0.000712
      f+2     :     0.000710
      f-2     :     0.000889
      f+3     :     0.000736
      f-3     :     0.000853
  7 Aus       :     2.602342  s :     2.602342
      pz      :     2.152674  p :     6.534736
      px      :     2.161757
      py      :     2.220305
      dz2     :     1.977156  d :     9.852039
      dxz     :     1.995366
      dyz     :     1.940097
      dx2y2   :     1.960422
      dxy     :     1.978998
      f0      :     0.000878  f :     0.006110
      f+1     :     0.000525
      f-1     :     0.000880
      f+2     :     0.000966
      f-2     :     0.000998
      f+3     :     0.000905
      f-3     :     0.000957
  8 Aus       :     2.579187  s :     2.579187
      pz      :     2.100398  p :     6.458877
      px      :     2.117748
      py      :     2.240731
      dz2     :     1.940434  d :     9.855810
      dxz     :     1.983171
      dyz     :     1.990548
      dx2y2   :     1.973787
      dxy     :     1.967870
      f0      :     0.000849  f :     0.005415
      f+1     :     0.000687
      f-1     :     0.000895
      f+2     :     0.000697
      f-2     :     0.000983
      f+3     :     0.000645
      f-3     :     0.000659
  9 Aus       :     2.497828  s :     2.497828
      pz      :     2.187914  p :     6.591985
      px      :     2.216817
      py      :     2.187254
      dz2     :     1.996556  d :     9.905349
      dxz     :     1.986000
      dyz     :     1.967329
      dx2y2   :     1.971519
      dxy     :     1.983944
      f0      :     0.000957  f :     0.006333
      f+1     :     0.000603
      f-1     :     0.000739
      f+2     :     0.000703
      f-2     :     0.001324
      f+3     :     0.001065
      f-3     :     0.000941
 10 Aus       :     2.579004  s :     2.579004
      pz      :     2.121875  p :     6.460564
      px      :     2.125086
      py      :     2.213603
      dz2     :     1.969367  d :     9.855209
      dxz     :     1.986175
      dyz     :     1.975128
      dx2y2   :     1.964309
      dxy     :     1.960230
      f0      :     0.000620  f :     0.005427
      f+1     :     0.000552
      f-1     :     0.000626
      f+2     :     0.000737
      f-2     :     0.000872
      f+3     :     0.000884
      f-3     :     0.001136
 11 Aus       :     2.605778  s :     2.605778
      pz      :     2.132533  p :     6.533482
      px      :     2.123909
      py      :     2.277040
      dz2     :     1.966211  d :     9.851123
      dxz     :     1.992720
      dyz     :     1.976829
      dx2y2   :     1.955158
      dxy     :     1.960205
      f0      :     0.000546  f :     0.006090
      f+1     :     0.000613
      f-1     :     0.000955
      f+2     :     0.000783
      f-2     :     0.000674
      f+3     :     0.001207
      f-3     :     0.001312
 12 Fes       :     6.280048  s :     6.280048
      pz      :     4.210111  p :    12.619963
      px      :     4.206879
      py      :     4.202973
      dz2     :     1.479493  d :     7.813926
      dxz     :     1.777086
      dyz     :     1.545323
      dx2y2   :     1.506672
      dxy     :     1.505353
      f0      :     0.000096  f :     0.000592
      f+1     :     0.000097
      f-1     :     0.000075
      f+2     :     0.000095
      f-2     :     0.000056
      f+3     :     0.000062
      f-3     :     0.000111

SPIN
  0 Aus       :    -0.025098  s :    -0.025098
      pz      :    -0.018161  p :    -0.085616
      px      :    -0.018858
      py      :    -0.048598
      dz2     :    -0.003768  d :    -0.016847
      dxz     :    -0.002281
      dyz     :    -0.003534
      dx2y2   :    -0.000325
      dxy     :    -0.006939
      f0      :    -0.000015  f :    -0.000088
      f+1     :    -0.000030
      f-1     :    -0.000013
      f+2     :    -0.000030
      f-2     :     0.000008
      f+3     :    -0.000003
      f-3     :    -0.000006
  1 Aus       :    -0.068961  s :    -0.068961
      pz      :    -0.010140  p :    -0.032691
      px      :    -0.012084
      py      :    -0.010466
      dz2     :     0.006896  d :    -0.013441
      dxz     :     0.003040
      dyz     :     0.000091
      dx2y2   :    -0.004435
      dxy     :    -0.019034
      f0      :     0.000033  f :     0.000075
      f+1     :     0.000070
      f-1     :     0.000024
      f+2     :    -0.000004
      f-2     :    -0.000014
      f+3     :    -0.000024
      f-3     :    -0.000010
  2 Aus       :     0.005695  s :     0.005695
      pz      :    -0.011969  p :    -0.025835
      px      :    -0.014272
      py      :     0.000407
      dz2     :    -0.007008  d :    -0.016760
      dxz     :    -0.010397
      dyz     :     0.012989
      dx2y2   :    -0.005240
      dxy     :    -0.007103
      f0      :    -0.000024  f :    -0.000007
      f+1     :    -0.000017
      f-1     :     0.000025
      f+2     :     0.000059
      f-2     :     0.000002
      f+3     :    -0.000039
      f-3     :    -0.000012
  3 Aus       :     0.009668  s :     0.009668
      pz      :    -0.016714  p :    -0.025142
      px      :    -0.005504
      py      :    -0.002924
      dz2     :    -0.008512  d :    -0.017595
      dxz     :    -0.007525
      dyz     :    -0.006903
      dx2y2   :    -0.005327
      dxy     :     0.010672
      f0      :     0.000001  f :    -0.000009
      f+1     :     0.000011
      f-1     :    -0.000027
      f+2     :    -0.000036
      f-2     :     0.000005
      f+3     :     0.000003
      f-3     :     0.000034
  4 Aus       :    -0.069040  s :    -0.069040
      pz      :    -0.019978  p :    -0.031622
      px      :    -0.007466
      py      :    -0.004178
      dz2     :    -0.005627  d :    -0.013714
      dxz     :    -0.003839
      dyz     :    -0.012953
      dx2y2   :     0.002306
      dxy     :     0.006399
      f0      :    -0.000001  f :     0.000075
      f+1     :    -0.000003
      f-1     :    -0.000027
      f+2     :     0.000008
      f-2     :     0.000018
      f+3     :     0.000014
      f-3     :     0.000066
  5 Aus       :     0.032983  s :     0.032983
      pz      :    -0.003434  p :    -0.002611
      px      :    -0.001007
      py      :     0.001831
      dz2     :     0.000430  d :    -0.023588
      dxz     :    -0.008018
      dyz     :    -0.007325
      dx2y2   :    -0.004004
      dxy     :    -0.004671
      f0      :    -0.000013  f :    -0.000085
      f+1     :     0.000000
      f-1     :     0.000009
      f+2     :    -0.000007
      f-2     :    -0.000058
      f+3     :     0.000003
      f-3     :    -0.000019
  6 Aus       :    -0.060048  s :    -0.060048
      pz      :    -0.029733  p :    -0.056652
      px      :    -0.028768
      py      :     0.001850
      dz2     :     0.000963  d :    -0.004568
      dxz     :    -0.004622
      dyz     :    -0.001618
      dx2y2   :     0.007058
      dxy     :    -0.006349
      f0      :     0.000002  f :     0.000033
      f+1     :    -0.000020
      f-1     :    -0.000012
      f+2     :     0.000033
      f-2     :     0.000000
      f+3     :     0.000017
      f-3     :     0.000012
  7 Aus       :     0.008020  s :     0.008020
      pz      :    -0.007632  p :    -0.020736
      px      :    -0.017383
      py      :     0.004279
      dz2     :     0.001602  d :    -0.004161
      dxz     :    -0.012440
      dyz     :     0.018195
      dx2y2   :    -0.009531
      dxy     :    -0.001987
      f0      :    -0.000002  f :     0.000064
      f+1     :    -0.000013
      f-1     :     0.000055
      f+2     :     0.000057
      f-2     :    -0.000005
      f+3     :    -0.000002
      f-3     :    -0.000026
  8 Aus       :    -0.070352  s :    -0.070352
      pz      :    -0.005387  p :    -0.043009
      px      :    -0.023576
      py      :    -0.014046
      dz2     :     0.018602  d :     0.003830
      dxz     :    -0.005812
      dyz     :    -0.000342
      dx2y2   :     0.001557
      dxy     :    -0.010176
      f0      :     0.000108  f :     0.000227
      f+1     :     0.000052
      f-1     :     0.000085
      f+2     :    -0.000002
      f-2     :    -0.000019
      f+3     :    -0.000003
      f-3     :     0.000006
  9 Aus       :    -0.068903  s :    -0.068903
      pz      :    -0.020510  p :    -0.033263
      px      :    -0.019763
      py      :     0.007010
      dz2     :     0.001761  d :     0.011406
      dxz     :    -0.005793
      dyz     :     0.006984
      dx2y2   :     0.005555
      dxy     :     0.002899
      f0      :     0.000008  f :     0.000083
      f+1     :    -0.000011
      f-1     :    -0.000004
      f+2     :     0.000045
      f-2     :     0.000011
      f+3     :     0.000006
      f-3     :     0.000027
 10 Aus       :    -0.069879  s :    -0.069879
      pz      :    -0.030153  p :    -0.041135
      px      :    -0.002934
      py      :    -0.008048
      dz2     :     0.002432  d :     0.003411
      dxz     :    -0.010969
      dyz     :    -0.006812
      dx2y2   :     0.009261
      dxy     :     0.009499
      f0      :     0.000001  f :     0.000228
      f+1     :     0.000023
      f-1     :     0.000009
      f+2     :    -0.000002
      f-2     :     0.000007
      f+3     :     0.000045
      f-3     :     0.000145
 11 Aus       :     0.011334  s :     0.011334
      pz      :    -0.019820  p :    -0.019858
      px      :    -0.001708
      py      :     0.001671
      dz2     :    -0.005052  d :    -0.004631
      dxz     :    -0.009158
      dyz     :    -0.005375
      dx2y2   :     0.004825
      dxy     :     0.010129
      f0      :     0.000003  f :     0.000059
      f+1     :     0.000008
      f-1     :    -0.000007
      f+2     :    -0.000017
      f-2     :    -0.000005
      f+3     :     0.000031
      f-3     :     0.000045
 12 Fes       :     0.010238  s :     0.010238
      pz      :     0.003886  p :     0.014076
      px      :     0.003822
      py      :     0.006367
      dz2     :     0.626000  d :     2.854411
      dxz     :     0.308644
      dyz     :     0.605825
      dx2y2   :     0.669366
      dxy     :     0.644576
      f0      :     0.000002  f :     0.000027
      f+1     :     0.000005
      f-1     :     0.000004
      f+2     :     0.000007
      f-2     :     0.000001
      f+3     :     0.000004
      f-3     :     0.000005


                      *****************************
                      * MAYER POPULATION ANALYSIS *
                      *****************************

  NA   - Mulliken gross atomic population
  ZA   - Total nuclear charge
  QA   - Mulliken gross atomic charge
  VA   - Mayer's total valence
  BVA  - Mayer's bonded valence
  FA   - Mayer's free valence

  ATOM       NA         ZA         QA         VA         BVA        FA
  0 Au    18.6755    19.0000     0.3245     1.5899     1.5831     0.0068
  1 Au    18.7071    19.0000     0.2929     1.6051     1.5831     0.0220
  2 Au    18.8233    19.0000     0.1767     1.6433     1.6347     0.0086
  3 Au    18.8272    19.0000     0.1728     1.6430     1.6340     0.0090
  4 Au    18.7076    19.0000     0.2924     1.6083     1.5863     0.0220
  5 Au    18.6105    19.0000     0.3895     1.4479     1.4434     0.0045
  6 Au    18.7131    19.0000     0.2869     1.6021     1.5805     0.0217
  7 Au    18.9780    19.0000     0.0220     1.8142     1.8049     0.0093
  8 Au    18.6661    19.0000     0.3339     1.5463     1.5224     0.0240
  9 Au    18.9826    19.0000     0.0174     2.0057     1.9761     0.0296
 10 Au    18.6665    19.0000     0.3335     1.5489     1.5253     0.0237
 11 Au    18.9814    19.0000     0.0186     1.8101     1.8001     0.0100
 12 Fe    28.6611    26.0000    -2.6611     8.0278     5.9195     2.1082

  Mayer bond orders larger than 0.100000
B(  0-Au,  1-Au) :   0.1542 B(  0-Au,  2-Au) :   0.1941 B(  0-Au,  3-Au) :   0.1928 
B(  0-Au,  4-Au) :   0.1530 B(  0-Au,  9-Au) :   0.2601 B(  0-Au, 12-Fe) :   0.4256 
B(  1-Au,  2-Au) :   0.2046 B(  1-Au,  9-Au) :   0.1607 B(  1-Au, 10-Au) :   0.1253 
B(  1-Au, 11-Au) :   0.1789 B(  1-Au, 12-Fe) :   0.5826 B(  2-Au,  3-Au) :   0.1221 
B(  2-Au,  6-Au) :   0.2418 B(  2-Au, 10-Au) :   0.1208 B(  2-Au, 12-Fe) :   0.5285 
B(  3-Au,  4-Au) :   0.2107 B(  3-Au,  6-Au) :   0.2369 B(  3-Au,  8-Au) :   0.1196 
B(  3-Au, 12-Fe) :   0.5271 B(  4-Au,  7-Au) :   0.1764 B(  4-Au,  8-Au) :   0.1248 
B(  4-Au,  9-Au) :   0.1633 B(  4-Au, 12-Fe) :   0.5807 B(  5-Au,  7-Au) :   0.3553 
B(  5-Au,  9-Au) :   0.3800 B(  5-Au, 11-Au) :   0.3557 B(  6-Au,  8-Au) :   0.1861 
B(  6-Au, 10-Au) :   0.1875 B(  6-Au, 12-Fe) :   0.5031 B(  7-Au,  8-Au) :   0.2950 
B(  7-Au,  9-Au) :   0.1710 B(  7-Au, 12-Fe) :   0.5111 B(  8-Au, 12-Fe) :   0.5596 
B(  9-Au, 11-Au) :   0.1647 B(  9-Au, 12-Fe) :   0.5338 B( 10-Au, 11-Au) :   0.2954 
B( 10-Au, 12-Fe) :   0.5589 B( 11-Au, 12-Fe) :   0.5093 

-------
TIMINGS
-------

Total SCF time: 0 days 0 hours 10 min 34 sec 

Total time                  ....     634.954 sec
Sum of individual times     ....     628.080 sec  ( 98.9%)

Fock matrix formation       ....     547.212 sec  ( 86.2%)
  Split-RI-J                ....     184.156 sec  ( 33.7% of F)
  XC integration            ....     357.779 sec  ( 65.4% of F)
    Basis function eval.    ....      48.158 sec  ( 13.5% of XC)
    Density eval.           ....     160.643 sec  ( 44.9% of XC)
    XC-Functional eval.     ....       6.298 sec  (  1.8% of XC)
    XC-Potential eval.      ....     130.124 sec  ( 36.4% of XC)
Diagonalization             ....      53.807 sec  (  8.5%)
Density matrix formation    ....       2.024 sec  (  0.3%)
Population analysis         ....       0.197 sec  (  0.0%)
Initial guess               ....       0.290 sec  (  0.0%)
Orbital Transformation      ....       2.662 sec  (  0.4%)
Orbital Orthonormalization  ....       0.252 sec  (  0.0%)
DIIS solution               ....      20.257 sec  (  3.2%)
Grid generation             ....       1.615 sec  (  0.3%)

Maximum memory used throughout the entire SCF-calculation: 88.4 MB

-------------------------   --------------------
FINAL SINGLE POINT ENERGY     -2893.390580829023
-------------------------   --------------------


                            ***************************************
                            *     ORCA property calculations      *
                            ***************************************

                                    ---------------------
                                    Active property flags
                                    ---------------------
   (+) Dipole Moment


------------------------------------------------------------------------------
                       ORCA ELECTRIC PROPERTIES CALCULATION
------------------------------------------------------------------------------

Dipole Moment Calculation                       ... on
Quadrupole Moment Calculation                   ... off
Polarizability Calculation                      ... off
GBWName                                         ... pbeSP_job2.gbw
Electron density                                ... pbeSP_job2.scfp
The origin for moment calculation is the CENTER OF MASS  = (17.424821, 13.084697 16.163314)

-------------
DIPOLE MOMENT
-------------
                                X             Y             Z
Electronic contribution:      1.60074     -12.36523       4.23989
Nuclear contribution   :     -1.48228      12.14439      -4.07619
                        -----------------------------------------
Total Dipole Moment    :      0.11846      -0.22084       0.16370
                        -----------------------------------------
Magnitude (a.u.)       :      0.29934
Magnitude (Debye)      :      0.76085



--------------------
Rotational spectrum 
--------------------
 
Rotational constants in cm-1:     0.001661     0.001253     0.001135 
Rotational constants in MHz :    49.798106    37.551520    34.016742 

 Dipole components along the rotational axes: 
x,y,z [a.u.] :    -0.164432    -0.002603     0.250115 
x,y,z [Debye]:    -0.417952    -0.006615     0.635743 

 

Timings for individual modules:

Sum of individual times         ...      644.702 sec (=  10.745 min)
GTO integral calculation        ...        9.527 sec (=   0.159 min)   1.5 %
SCF iterations                  ...      635.175 sec (=  10.586 min)  98.5 %



                             ****ORCA TERMINATED NORMALLY****
TOTAL RUN TIME: 0 days 0 hours 23 minutes 10 seconds 487 msec
