
                                 *****************
                                 * O   R   C   A *
                                 *****************

                                            #,                                       
                                            ###                                      
                                            ####                                     
                                            #####                                    
                                            ######                                   
                                           ########,                                 
                                     ,,################,,,,,                         
                               ,,#################################,,                 
                          ,,##########################################,,             
                       ,#########################################, ''#####,          
                    ,#############################################,,   '####,        
                  ,##################################################,,,,####,       
                ,###########''''           ''''###############################       
              ,#####''   ,,,,##########,,,,          '''####'''          '####       
            ,##' ,,,,###########################,,,                        '##       
           ' ,,###''''                  '''############,,,                           
         ,,##''                                '''############,,,,        ,,,,,,###''
      ,#''                                            '''#######################'''  
     '                                                          ''''####''''         
             ,#######,   #######,   ,#######,      ##                                
            ,#'     '#,  ##    ##  ,#'     '#,    #''#        ######   ,####,        
            ##       ##  ##   ,#'  ##            #'  '#       #        #'  '#        
            ##       ##  #######   ##           ,######,      #####,   #    #        
            '#,     ,#'  ##    ##  '#,     ,#' ,#      #,         ##   #,  ,#        
             '#######'   ##     ##  '#######'  #'      '#     #####' # '####'        



                  #######################################################
                  #                        -***-                        #
                  #          Department of theory and spectroscopy      #
                  #    Directorship and core code : Frank Neese         #
                  #        Max Planck Institute fuer Kohlenforschung    #
                  #                Kaiser Wilhelm Platz 1               #
                  #                 D-45470 Muelheim/Ruhr               #
                  #                      Germany                        #
                  #                                                     #
                  #                  All rights reserved                #
                  #                        -***-                        #
                  #######################################################


                         Program Version 5.0.3 -  RELEASE  -


 With contributions from (in alphabetic order):
   Daniel Aravena         : Magnetic Suceptibility
   Michael Atanasov       : Ab Initio Ligand Field Theory (pilot matlab implementation)
   Alexander A. Auer      : GIAO ZORA, VPT2 properties, NMR spectrum
   Ute Becker             : Parallelization
   Giovanni Bistoni       : ED, misc. LED, open-shell LED, HFLD
   Martin Brehm           : Molecular dynamics
   Dmytro Bykov           : SCF Hessian
   Vijay G. Chilkuri      : MRCI spin determinant printing, contributions to CSF-ICE
   Dipayan Datta          : RHF DLPNO-CCSD density
   Achintya Kumar Dutta   : EOM-CC, STEOM-CC
   Dmitry Ganyushin       : Spin-Orbit,Spin-Spin,Magnetic field MRCI
   Miquel Garcia          : C-PCM and meta-GGA Hessian, CC/C-PCM, Gaussian charge scheme
   Yang Guo               : DLPNO-NEVPT2, F12-NEVPT2, CIM, IAO-localization
   Andreas Hansen         : Spin unrestricted coupled pair/coupled cluster methods
   Benjamin Helmich-Paris : MC-RPA, TRAH-SCF, COSX integrals
   Lee Huntington         : MR-EOM, pCC
   Robert Izsak           : Overlap fitted RIJCOSX, COSX-SCS-MP3, EOM
   Marcus Kettner         : VPT2
   Christian Kollmar      : KDIIS, OOCD, Brueckner-CCSD(T), CCSD density, CASPT2, CASPT2-K
   Simone Kossmann        : Meta GGA functionals, TD-DFT gradient, OOMP2, MP2 Hessian
   Martin Krupicka        : Initial AUTO-CI
   Lucas Lang             : DCDCAS
   Marvin Lechner         : AUTO-CI (C++ implementation), FIC-MRCC
   Dagmar Lenk            : GEPOL surface, SMD
   Dimitrios Liakos       : Extrapolation schemes; Compound Job, initial MDCI parallelization
   Dimitrios Manganas     : Further ROCIS development; embedding schemes
   Dimitrios Pantazis     : SARC Basis sets
   Anastasios Papadopoulos: AUTO-CI, single reference methods and gradients
   Taras Petrenko         : DFT Hessian,TD-DFT gradient, ASA, ECA, R-Raman, ABS, FL, XAS/XES, NRVS
   Peter Pinski           : DLPNO-MP2, DLPNO-MP2 Gradient
   Christoph Reimann      : Effective Core Potentials
   Marius Retegan         : Local ZFS, SOC
   Christoph Riplinger    : Optimizer, TS searches, QM/MM, DLPNO-CCSD(T), (RO)-DLPNO pert. Triples
   Tobias Risthaus        : Range-separated hybrids, TD-DFT gradient, RPA, STAB
   Michael Roemelt        : Original ROCIS implementation
   Masaaki Saitow         : Open-shell DLPNO-CCSD energy and density
   Barbara Sandhoefer     : DKH picture change effects
   Avijit Sen             : IP-ROCIS
   Kantharuban Sivalingam : CASSCF convergence, NEVPT2, FIC-MRCI
   Bernardo de Souza      : ESD, SOC TD-DFT
   Georgi Stoychev        : AutoAux, RI-MP2 NMR, DLPNO-MP2 response
   Willem Van den Heuvel  : Paramagnetic NMR
   Boris Wezisla          : Elementary symmetry handling
   Frank Wennmohs         : Technical directorship


 We gratefully acknowledge several colleagues who have allowed us to
 interface, adapt or use parts of their codes:
   Stefan Grimme, W. Hujo, H. Kruse, P. Pracht,  : VdW corrections, initial TS optimization,
                  C. Bannwarth, S. Ehlert          DFT functionals, gCP, sTDA/sTD-DF
   Ed Valeev, F. Pavosevic, A. Kumar             : LibInt (2-el integral package), F12 methods
   Garnet Chan, S. Sharma, J. Yang, R. Olivares  : DMRG
   Ulf Ekstrom                                   : XCFun DFT Library
   Mihaly Kallay                                 : mrcc  (arbitrary order and MRCC methods)
   Jiri Pittner, Ondrej Demel                    : Mk-CCSD
   Frank Weinhold                                : gennbo (NPA and NBO analysis)
   Christopher J. Cramer and Donald G. Truhlar   : smd solvation model
   Lars Goerigk                                  : TD-DFT with DH, B97 family of functionals
   V. Asgeirsson, H. Jonsson                     : NEB implementation
   FAccTs GmbH                                   : IRC, NEB, NEB-TS, DLPNO-Multilevel, CI-OPT
                                                   MM, QMMM, 2- and 3-layer-ONIOM, Crystal-QMMM,
                                                   LR-CPCM, SF, NACMEs, symmetry and pop. for TD-DFT,
                                                   nearIR, NL-DFT gradient (VV10), updates on ESD,
                                                   ML-optimized integration grids
   S Lehtola, MJT Oliveira, MAL Marques          : LibXC Library
   Liviu Ungur et al                             : ANISO software


 Your calculation uses the libint2 library for the computation of 2-el integrals
 For citations please refer to: http://libint.valeyev.net

 Your ORCA version has been built with support for libXC version: 5.1.0
 For citations please refer to: https://tddft.org/programs/libxc/

 This ORCA versions uses:
   CBLAS   interface :  Fast vector & matrix operations
   LAPACKE interface :  Fast linear algebra routines
   SCALAPACK package :  Parallel linear algebra routines
   Shared memory     :  Shared parallel matrices
   BLAS/LAPACK       :  OpenBLAS 0.3.15  USE64BITINT DYNAMIC_ARCH NO_AFFINITY Sandybridge SINGLE_THREADED
        Core in use  :  Sandybridge
   Copyright (c) 2011-2014, The OpenBLAS Project




***************************************
The coordinates will be read from file: pbe.xyz
***************************************


================================================================================

cite the ECPs for Au [Def2-ECP] as follows:
Ce-Yb(ecp-28): M. Dolg, H. Stoll, H.Preuss, J. Chem. Phys., 1989, 90, 1730-1734.
Y-Cd(ecp-28), Hf-Hg(ecp-46): D. Andrae,U. Haeussermann, M. Dolg, H. Stoll, H. Preuss, Theor. Chim. Acta, 1990, 77, 123-141.
In-Sb(ecp-28), Tl-Bi(ecp-46): B. Metz, H. Stoll, M. Dolg, J. Chem. Phys., 2000, 113, 2563-2569.
Te-Xe(ecp-28), Po-Rn(ecp-46): K. A. Peterson, D. Figgen, E. Goll, H. Stoll, M. Dolg, J. Chem. Phys., 2003, 119, 11113-11123.
Rb(ecp-28), Cs(ecp-46): T. Leininger, A. Nicklass, W. Kuechle, H. Stoll, M. Dolg, A. Bergner, Chem. Phys. Lett., 1996, 255, 274-280.
Sr(ecp-28), Ba(ecp-46): M. Kaupp, P. V. Schleyer, H. Stoll and H. Preuss, J. Chem. Phys., 1991, 94, 1360-1366.
La(ecp-46): M. Dolg, H. Stoll, A. Savin, H. Preuss, Theor. Chim. Acta, 1989, 75, 173-194.
Lu(ecp-28): X. Cao, M. Dolg, J. Chem. Phys., 2001, 115, 7348-7355.

ECP parameters for Au [Def2-ECP] have been obtained from:
TURBOMOLE (7.0.2)

----- Orbital basis set information -----
Your calculation utilizes the basis: def2-TZVP
   F. Weigend and R. Ahlrichs, Phys. Chem. Chem. Phys. 7, 3297 (2005).

----- AuxJ basis set information -----
Your calculation utilizes the auxiliary basis: def2/J
   F. Weigend, Phys. Chem. Chem. Phys. 8, 1057 (2006).

================================================================================
                                        WARNINGS
                       Please study these warnings very carefully!
================================================================================

Using LibXC functional ID 497 : Re-regularized SCAN exchange by Furness et al
[ 1]  J. W. Furness, A. D. Kaplan, J. Ning, J. P. Perdew, and J. Sun, J. Phys. Chem. Lett. 11, 8208 (2020)
[ 2]  J. W. Furness, A. D. Kaplan, J. Ning, J. P. Perdew, and J. Sun, J. Phys. Chem. Lett. 11, 9248 (2020)
Using LibXC functional ID 498 : Re-regularized SCAN correlation by Furness et al
[ 1]  J. W. Furness, A. D. Kaplan, J. Ning, J. P. Perdew, and J. Sun, J. Phys. Chem. Lett. 11, 8208 (2020)
[ 2]  J. W. Furness, A. D. Kaplan, J. Ning, J. P. Perdew, and J. Sun, J. Phys. Chem. Lett. 11, 9248 (2020)
Using LibXC functional ID 497 : Re-regularized SCAN exchange by Furness et al
[ 1]  J. W. Furness, A. D. Kaplan, J. Ning, J. P. Perdew, and J. Sun, J. Phys. Chem. Lett. 11, 8208 (2020)
[ 2]  J. W. Furness, A. D. Kaplan, J. Ning, J. P. Perdew, and J. Sun, J. Phys. Chem. Lett. 11, 9248 (2020)
Using LibXC functional ID 498 : Re-regularized SCAN correlation by Furness et al
[ 1]  J. W. Furness, A. D. Kaplan, J. Ning, J. P. Perdew, and J. Sun, J. Phys. Chem. Lett. 11, 8208 (2020)
[ 2]  J. W. Furness, A. D. Kaplan, J. Ning, J. P. Perdew, and J. Sun, J. Phys. Chem. Lett. 11, 9248 (2020)

WARNING: your system is open-shell and RHF/RKS was chosen
  ===> : WILL SWITCH to UHF/UKS


INFO   : the flag for use of the SHARK integral package has been found!



***************************************
The coordinates will be read from file: pbe.xyz
***************************************


================================================================================

cite the ECPs for Au [Def2-ECP] as follows:
Ce-Yb(ecp-28): M. Dolg, H. Stoll, H.Preuss, J. Chem. Phys., 1989, 90, 1730-1734.
Y-Cd(ecp-28), Hf-Hg(ecp-46): D. Andrae,U. Haeussermann, M. Dolg, H. Stoll, H. Preuss, Theor. Chim. Acta, 1990, 77, 123-141.
In-Sb(ecp-28), Tl-Bi(ecp-46): B. Metz, H. Stoll, M. Dolg, J. Chem. Phys., 2000, 113, 2563-2569.
Te-Xe(ecp-28), Po-Rn(ecp-46): K. A. Peterson, D. Figgen, E. Goll, H. Stoll, M. Dolg, J. Chem. Phys., 2003, 119, 11113-11123.
Rb(ecp-28), Cs(ecp-46): T. Leininger, A. Nicklass, W. Kuechle, H. Stoll, M. Dolg, A. Bergner, Chem. Phys. Lett., 1996, 255, 274-280.
Sr(ecp-28), Ba(ecp-46): M. Kaupp, P. V. Schleyer, H. Stoll and H. Preuss, J. Chem. Phys., 1991, 94, 1360-1366.
La(ecp-46): M. Dolg, H. Stoll, A. Savin, H. Preuss, Theor. Chim. Acta, 1989, 75, 173-194.
Lu(ecp-28): X. Cao, M. Dolg, J. Chem. Phys., 2001, 115, 7348-7355.

ECP parameters for Au [Def2-ECP] have been obtained from:
TURBOMOLE (7.0.2)

----- Orbital basis set information -----
Your calculation utilizes the basis: def2-TZVP
   F. Weigend and R. Ahlrichs, Phys. Chem. Chem. Phys. 7, 3297 (2005).

----- AuxJ basis set information -----
Your calculation utilizes the auxiliary basis: def2/J
   F. Weigend, Phys. Chem. Chem. Phys. 8, 1057 (2006).

================================================================================
                                        WARNINGS
                       Please study these warnings very carefully!
================================================================================

Using LibXC functional ID 497 : Re-regularized SCAN exchange by Furness et al
[ 1]  J. W. Furness, A. D. Kaplan, J. Ning, J. P. Perdew, and J. Sun, J. Phys. Chem. Lett. 11, 8208 (2020)
[ 2]  J. W. Furness, A. D. Kaplan, J. Ning, J. P. Perdew, and J. Sun, J. Phys. Chem. Lett. 11, 9248 (2020)
Using LibXC functional ID 498 : Re-regularized SCAN correlation by Furness et al
[ 1]  J. W. Furness, A. D. Kaplan, J. Ning, J. P. Perdew, and J. Sun, J. Phys. Chem. Lett. 11, 8208 (2020)
[ 2]  J. W. Furness, A. D. Kaplan, J. Ning, J. P. Perdew, and J. Sun, J. Phys. Chem. Lett. 11, 9248 (2020)
Using LibXC functional ID 497 : Re-regularized SCAN exchange by Furness et al
[ 1]  J. W. Furness, A. D. Kaplan, J. Ning, J. P. Perdew, and J. Sun, J. Phys. Chem. Lett. 11, 8208 (2020)
[ 2]  J. W. Furness, A. D. Kaplan, J. Ning, J. P. Perdew, and J. Sun, J. Phys. Chem. Lett. 11, 9248 (2020)
Using LibXC functional ID 498 : Re-regularized SCAN correlation by Furness et al
[ 1]  J. W. Furness, A. D. Kaplan, J. Ning, J. P. Perdew, and J. Sun, J. Phys. Chem. Lett. 11, 8208 (2020)
[ 2]  J. W. Furness, A. D. Kaplan, J. Ning, J. P. Perdew, and J. Sun, J. Phys. Chem. Lett. 11, 9248 (2020)

INFO   : the flag for use of the SHARK integral package has been found!

================================================================================
                                       INPUT FILE
================================================================================
NAME = scan.inp
|  1> !R2SCAN def2-TZVP VERYSLOWCONV
|  2> !KDIIS
|  3> %scf
|  4>   AutoTRAHIter 200
|  5>   maxiter 400
|  6> end
|  7> 
|  8> %pal nprocs 6 end 
|  9> 
| 10> *xyzfile 0 5 pbe.xyz
| 11> 
| 12> $new_job
| 13> 
| 14> !R2SCAN def2-TZVP VERYSLOWCONV
| 15> !KDIIS
| 16> %scf
| 17>   AutoTRAHIter 200
| 18>   maxiter 400
| 19> end
| 20> 
| 21> 
| 22> %pal nprocs 6 end 
| 23> 
| 24> *xyzfile 0 3 pbe.xyz
| 25> 
| 26> 
| 27> 
| 28> 
| 29> 
| 30>                          ****END OF INPUT****
================================================================================


                 $$$$$$$$$$$$$$$$$$$$$$$$$$$$$$$$$$$$$$$$$$$$$$ 
                 $ THERE ARE  2 JOBS TO BE PROCESSED THIS RUN $
                 $$$$$$$$$$$$$$$$$$$$$$$$$$$$$$$$$$$$$$$$$$$$$$ 




                 $$$$$$$$$$$$$$$$  JOB NUMBER  1 $$$$$$$$$$$$$$


                       ****************************
                       * Single Point Calculation *
                       ****************************

---------------------------------
CARTESIAN COORDINATES (ANGSTROEM)
---------------------------------
  Au    11.072205    7.117073   10.352978
  Au     8.272656    6.824324   10.943885
  Au     9.282898    9.353866   10.244418
  Au    11.385967    8.905765    8.128203
  Au    11.516843    6.139168    7.684687
  Au     7.951298    3.218784    8.089383
  Au     8.795914    9.772281    7.526035
  Au     9.099926    5.180438    6.578688
  Au     9.809579    7.703871    5.939516
  Au     9.713223    4.793688    9.486342
  Au     6.845171    8.341793    8.926837
  Au     6.914928    5.650022    8.767788
  Fe     9.182764    7.235901    8.448611

----------------------------
CARTESIAN COORDINATES (A.U.)
----------------------------
  NO LB      ZA    FRAG     MASS         X           Y           Z
   0 Au   19.0000*   0   196.966   20.923434   13.449320   19.564294
   1 Au   19.0000*   0   196.966   15.633053   12.896104   20.680946
   2 Au   19.0000*   0   196.966   17.542134   17.676245   19.359145
   3 Au   19.0000*   0   196.966   21.516360   16.829457   15.360077
   4 Au   19.0000*   0   196.966   21.763679   11.601345   14.521953
   5 Au   19.0000*   0   196.966   15.025776    6.082620   15.286718
   6 Au   19.0000*   0   196.966   16.621868   18.466934   14.222145
   7 Au   19.0000*   0   196.966   17.196368    9.789610   12.431918
   8 Au   19.0000*   0   196.966   18.537417   14.558207   11.224058
   9 Au   19.0000*   0   196.966   18.355331    9.058758   17.926589
  10 Au   19.0000*   0   196.966   12.935499   15.763704   16.869278
  11 Au   19.0000*   0   196.966   13.067320   10.676995   16.568718
  12 Fe   26.0000    0    55.850   17.352909   13.673871   15.965561
* core charge reduced due to ECP

--------------------------------
INTERNAL COORDINATES (ANGSTROEM)
--------------------------------
 Au     0   0   0     0.000000000000     0.00000000     0.00000000
 Au     1   0   0     2.876169007482     0.00000000     0.00000000
 Au     2   1   0     2.812191765228    60.50671731     0.00000000
 Au     1   2   3     2.871844396680   109.20189952   320.06146539
 Au     4   1   2     2.804977035820    60.87437934   260.39891519
 Au     2   1   3     4.609921877703    91.16004057   130.44847827
 Au     3   2   1     2.793176376694   108.31114514    97.59269204
 Au     6   2   1     2.729401751526    75.59734107   307.64541992
 Au     8   6   2     2.698121996521   156.06205140   342.98606789
 Au     6   2   1     2.745214026490    36.04676251    17.13997899
 Au     7   3   2     2.795342553552    63.72433431    35.08923903
 Au    11   7   3     2.697367168201   117.58617660   262.16121796
 Fe     9   8   6     2.628203204142    62.90825483    19.50366083

---------------------------
INTERNAL COORDINATES (A.U.)
---------------------------
 Au     0   0   0     0.000000000000     0.00000000     0.00000000
 Au     1   0   0     5.435171739013     0.00000000     0.00000000
 Au     2   1   0     5.314272272349    60.50671731     0.00000000
 Au     1   2   3     5.426999408961   109.20189952   320.06146539
 Au     4   1   2     5.300638409638    60.87437934   260.39891519
 Au     2   1   3     8.711489847631    91.16004057   130.44847827
 Au     3   2   1     5.278338395690   108.31114514    97.59269204
 Au     6   2   1     5.157821819828    75.59734107   307.64541992
 Au     8   6   2     5.098711649334   156.06205140   342.98606789
 Au     6   2   1     5.187702689065    36.04676251    17.13997899
 Au     7   3   2     5.282431876709    63.72433431    35.08923903
 Au    11   7   3     5.097285230530   117.58617660   262.16121796
 Fe     9   8   6     4.966584280123    62.90825483    19.50366083

---------------------
BASIS SET INFORMATION
---------------------
There are 2 groups of distinct atoms

 Group   1 Type Au  : 8s7p6d1f contracted to 6s4p3d1f pattern {311111/4111/411/1}
 Group   2 Type Fe  : 17s11p7d1f contracted to 6s4p4d1f pattern {842111/6311/4111/1}

Atom   0Au   basis set group =>   1
Atom   1Au   basis set group =>   1
Atom   2Au   basis set group =>   1
Atom   3Au   basis set group =>   1
Atom   4Au   basis set group =>   1
Atom   5Au   basis set group =>   1
Atom   6Au   basis set group =>   1
Atom   7Au   basis set group =>   1
Atom   8Au   basis set group =>   1
Atom   9Au   basis set group =>   1
Atom  10Au   basis set group =>   1
Atom  11Au   basis set group =>   1
Atom  12Fe   basis set group =>   2
---------------------------------
AUXILIARY/J BASIS SET INFORMATION
---------------------------------
There are 2 groups of distinct atoms

 Group   1 Type Au  : 11s5p5d3f3g contracted to 8s5p5d2f3g pattern {41111111/11111/11111/21/111}
 Group   2 Type Fe  : 19s5p5d3f3g contracted to 8s5p5d2f3g pattern {121111111/11111/11111/21/111}

Atom   0Au   basis set group =>   1
Atom   1Au   basis set group =>   1
Atom   2Au   basis set group =>   1
Atom   3Au   basis set group =>   1
Atom   4Au   basis set group =>   1
Atom   5Au   basis set group =>   1
Atom   6Au   basis set group =>   1
Atom   7Au   basis set group =>   1
Atom   8Au   basis set group =>   1
Atom   9Au   basis set group =>   1
Atom  10Au   basis set group =>   1
Atom  11Au   basis set group =>   1
Atom  12Fe   basis set group =>   2
-------------------------
ECP PARAMETER INFORMATION
-------------------------

 Group 1, Type Au ECP Def2-ECP (replacing 60 core electrons, lmax=3)

Atom   0Au   ECP group =>   1
Atom   1Au   ECP group =>   1
Atom   2Au   ECP group =>   1
Atom   3Au   ECP group =>   1
Atom   4Au   ECP group =>   1
Atom   5Au   ECP group =>   1
Atom   6Au   ECP group =>   1
Atom   7Au   ECP group =>   1
Atom   8Au   ECP group =>   1
Atom   9Au   ECP group =>   1
Atom  10Au   ECP group =>   1
Atom  11Au   ECP group =>   1



           ************************************************************
           *        Program running with 6 parallel MPI-processes     *
           *              working on a common directory               *
           ************************************************************
------------------------------------------------------------------------------
                           ORCA GTO INTEGRAL CALCULATION
                           -- RI-GTO INTEGRALS CHOSEN --
------------------------------------------------------------------------------
------------------------------------------------------------------------------
                   ___                                                        
                  /   \      - P O W E R E D   B Y -                         
                 /     \                                                     
                 |  |  |   _    _      __       _____    __    __             
                 |  |  |  | |  | |    /  \     |  _  \  |  |  /  |          
                  \  \/   | |  | |   /    \    | | | |  |  | /  /          
                 / \  \   | |__| |  /  /\  \   | |_| |  |  |/  /          
                |  |  |   |  __  | /  /__\  \  |    /   |      \           
                |  |  |   | |  | | |   __   |  |    \   |  |\   \          
                \     /   | |  | | |  |  |  |  | |\  \  |  | \   \       
                 \___/    |_|  |_| |__|  |__|  |_| \__\ |__|  \__/        
                                                                              
                      - O R C A' S   B I G   F R I E N D -                    
                                      &                                       
                       - I N T E G R A L  F E E D E R -                       
                                                                              
 v1 FN, 2020, v2 2021                                                         
------------------------------------------------------------------------------


Reading SHARK input file scan.SHARKINP.tmp ... ok
----------------------
SHARK INTEGRAL PACKAGE
----------------------

Number of atoms                             ...     13
Number of basis functions                   ...    525
Number of shells                            ...    183
Maximum angular momentum                    ...      3
Integral batch strategy                     ... SHARK/LIBINT Hybrid
RI-J (if used) integral strategy            ... SPLIT-RIJ (Revised 2003 algorithm where possible)
Printlevel                                  ...      1
Contraction scheme used                     ... SEGMENTED contraction
Coulomb Range Separation                    ... NOT USED
Exchange Range Separation                   ... NOT USED
Finite Nucleus Model                        ... NOT USED
Auxiliary Coulomb fitting basis             ... AVAILABLE
   # of basis functions in Aux-J            ...   1157
   # of shells in Aux-J                     ...    299
   Maximum angular momentum in Aux-J        ...      4
Auxiliary J/K fitting basis                 ... NOT available
Auxiliary Correlation fitting basis         ... NOT available
Auxiliary 'external' fitting basis          ... NOT available
Integral threshold                          ...     1.000000e-10
Primitive cut-off                           ...     1.000000e-11
Primitive pair pre-selection threshold      ...     1.000000e-11

Calculating pre-screening integrals         ... done (  0.2 sec) Dimension = 183
Organizing shell pair data                  ... done (  0.5 sec)
Shell pair information
Total number of shell pairs                 ...     16836
Shell pairs after pre-screening             ...     13893
Total number of primitive shell pairs       ...     45389
Primitive shell pairs kept                  ...     27442
          la=0 lb=0:   2172 shell pairs
          la=1 lb=0:   3184 shell pairs
          la=1 lb=1:   1184 shell pairs
          la=2 lb=0:   2770 shell pairs
          la=2 lb=1:   1915 shell pairs
          la=2 lb=2:    793 shell pairs
          la=3 lb=0:    736 shell pairs
          la=3 lb=1:    569 shell pairs
          la=3 lb=2:    490 shell pairs
          la=3 lb=3:     80 shell pairs

Calculating one electron integrals          ... done (  0.0 sec)
Calculating ECP integrals                   ... done (  8.3 sec)
Calculating RI/J V-Matrix + Cholesky decomp.... done (  0.1 sec)
Calculating Nuclear repulsion               ... done (  0.0 sec) ENN=   4481.972719996545 Eh

SHARK setup successfully completed in   9.5 seconds

Maximum memory used throughout the entire GTOINT-calculation: 30.9 MB


           ************************************************************
           *        Program running with 6 parallel MPI-processes     *
           *              working on a common directory               *
           ************************************************************
-------------------------------------------------------------------------------
                                 ORCA SCF
-------------------------------------------------------------------------------

------------
SCF SETTINGS
------------
Hamiltonian:
 Density Functional     Method          .... DFT(GTOs)
  Functional kind                       .... Exchange
  Functional name                       .... Re-regularized SCAN exchange by Furness et al
  Functional family                     .... MGGA
  Functional refs                              
    [ 0] J. W. Furness, A. D. Kaplan, J. Ning, J. P. Perdew, and J. Sun, J. Phys. Chem. Lett. 11, 8208 (2020)
    [ 1] J. W. Furness, A. D. Kaplan, J. Ning, J. P. Perdew, and J. Sun, J. Phys. Chem. Lett. 11, 9248 (2020)
  Functional external parameters         .... 8
 Parameter  0 :         c1 parameter
 Parameter  1 :         c2 parameter
 Parameter  2 :          d parameter
 Parameter  3 :         k1 parameter
 Parameter  4 :       taur parameter
 Parameter  5 :     alphar parameter
 Parameter  6 :        eta parameter
 Parameter  7 :        dp2 parameter
  Functional kind                       .... Correlation
  Functional name                       .... Re-regularized SCAN correlation by Furness et al
  Functional family                     .... MGGA
  Functional refs                              
    [ 0] J. W. Furness, A. D. Kaplan, J. Ning, J. P. Perdew, and J. Sun, J. Phys. Chem. Lett. 11, 8208 (2020)
    [ 1] J. W. Furness, A. D. Kaplan, J. Ning, J. P. Perdew, and J. Sun, J. Phys. Chem. Lett. 11, 9248 (2020)
  Functional external parameters         .... 0
 Gradients option       PostSCFGGA      .... off
   Density functional embedding theory  .... OFF
   NL short-range parameter             .... 12.300000
 RI-approximation to the Coulomb term is turned on
   Number of AuxJ basis functions       .... 1157


General Settings:
 Integral files         IntName         .... scan
 Hartree-Fock type      HFTyp           .... UHF
 Total Charge           Charge          ....    0
 Multiplicity           Mult            ....    5
 Number of Electrons    NEL             ....  254
 Basis Dimension        Dim             ....  525
 Nuclear Repulsion      ENuc            ....   4481.9727199965 Eh

Convergence Acceleration:
 DIIS                   CNVDIIS         .... off
 Trust-Rad. Augm. Hess. CNVTRAH         .... auto
   Auto Start mean grad. ratio tolernc. ....  1.125000
   Auto Start start iteration           ....   200
   Auto Start num. interpolation iter.  ....    10
   Max. Number of Micro iterations      ....    16
   Max. Number of Macro iterations      .... Maxiter - #DIIS iter
   Number of Davidson start vectors     ....     2
   Converg. threshold I  (grad. norm)   ....   5.000e-05
   Converg. threshold II (energy diff.) ....   1.000e-06
   Grad. Scal. Fac. for Micro threshold ....   0.100
   Minimum threshold for Micro iter.    ....   0.010
   NR start threshold (gradient norm)   ....   0.001
   Initial trust radius                 ....   0.400
   Minimum AH scaling param. (alpha)    ....   1.000
   Maximum AH scaling param. (alpha)    .... 1000.000
   Orbital update algorithm             .... Taylor
   White noise on init. David. guess    .... on
   Maximum white noise                  ....   0.010
   Quad. conv. algorithm                .... NR
 SOSCF                  CNVSOSCF        .... off
 Level Shifting         CNVShift        .... off
 Zerner damping         CNVZerner       .... off
 Static damping         CNVDamp         .... off
 Fernandez-Rico         CNVRico         .... off

SCF Procedure:
 Maximum # iterations   MaxIter         ....   400
 SCF integral mode      SCFMode         .... Direct
   Integral package                     .... SHARK and LIBINT hybrid scheme
 Reset frequency        DirectResetFreq ....    20
 Integral Threshold     Thresh          ....  1.000e-10 Eh
 Primitive CutOff       TCut            ....  1.000e-11 Eh

Convergence Tolerance:
 Convergence Check Mode ConvCheckMode   .... All-Criteria
 Convergence forced     ConvForced      .... 0
 Energy Change          TolE            ....  1.000e-06 Eh
 Max Density Change     TolMaxP         ....  1.000e-05
 RMS Density Change     TolRMSP         ....  1.000e-06


Diagonalization of the overlap matrix:
Smallest eigenvalue                        ... 3.359e-04
Time for diagonalization                   ...    0.078 sec
Threshold for overlap eigenvalues          ... 1.000e-08
Number of eigenvalues below threshold      ... 0
Time for construction of square roots      ...    0.041 sec
Total time needed                          ...    0.121 sec

Time for model grid setup =    0.513 sec

------------------------------
INITIAL GUESS: MODEL POTENTIAL
------------------------------
Loading Hartree-Fock densities                     ... done
  calling /home/ehlert/src/miniconda3/envs/orca500/Programs/ORCA501/orca scan_atom79.inp > scan_atom79.out in order to generate an atomic fitting density for atom 0 (Au with ECP) on-the-fly... 
    atom 0 (Au), assumed electronic state with S=2: 1s2 2s2 2p6 3s2 3p6 4s2 3d10 4p6 5s2 4d10 5p6 6s1 4f14 5d10           ... done
Calculating cut-offs                               ... done
Initializing the effective Hamiltonian             ... done
Setting up the integral package (SHARK)            ... done
Starting the Coulomb interaction                   ... done (   0.4 sec)
Reading the grid                                   ... done
Mapping shells                                     ... done
Starting the XC term evaluation                    ... done (   0.5 sec)
  promolecular density results
     # of electrons  =    974.013436877
     EX              =  -4444.004790074
     EC              =    -59.288536066
     EX+EC           =  -4503.293326140
Transforming the Hamiltonian                       ... done (   0.0 sec)
Diagonalizing the Hamiltonian                      ... done (   0.1 sec)
Back transforming the eigenvectors                 ... done (   0.0 sec)
Now organizing SCF variables                       ... done
                      ------------------
                      INITIAL GUESS DONE (   2.4 sec)
                      ------------------
-------------------
DFT GRID GENERATION
-------------------

General Integration Accuracy     IntAcc      ... 4.388
Radial Grid Type                 RadialGrid  ... OptM3 with GC (2021)
Angular Grid (max. ang.)         AngularGrid ... 4 (Lebedev-302)
Angular grid pruning method      GridPruning ... 4 (adaptive)
Weight generation scheme         WeightScheme... Becke
Basis function cutoff            BFCut       ... 1.0000e-10
Integration weight cutoff        WCut        ... 1.0000e-14
Angular grids for H and He will be reduced by one unit
Partially contracted basis set               ... off
Rotationally invariant grid construction     ... off

Total number of grid points                  ...   144464
Total number of batches                      ...     2263
Average number of points per batch           ...       63
Average number of grid points per atom       ...    11113
Time for grid setup =    1.624 sec

--------------
SCF ITERATIONS
--------------
ITER       Energy         Delta-E        Max-DP      RMS-DP      [F,P]   Gradient Norm
               ***  Starting incremental Fock matrix formation  ***
                             ****Resetting KDIIS****
                             ****Turning on KDIIS(Cayley)****
  0  -2890.7676437653   0.000000000000 0.33160382  0.00194859  0.3526123   0.253927413
  1  -2892.6355516766  -1.867907911284 0.63180809  0.00226119  0.3154953   0.174457118
  2  -2893.3081937973  -0.672642120709 0.11403553  0.00142858  0.2494260   0.128126924
  3  -2893.5747068212  -0.266513023846 0.14533051  0.00153643  0.1457697   0.075169606
  4  -2893.6788588373  -0.104152016077 0.08670432  0.00044229  0.0441848   0.020028953
  5  -2893.7165576792  -0.037698841905 0.34139687  0.00102936  0.0232379   0.012905733
  6  -2893.7536237574  -0.037066078263 0.08223306  0.00092261  0.0340357   0.012604154
  7  -2893.7900328206  -0.036409063141 0.03652112  0.00029393  0.0120628   0.007737792
  8  -2893.7973172193  -0.007284398755 0.03018547  0.00021795  0.0087345   0.006909580
  9  -2893.8044905536  -0.007173334301 0.02605911  0.00024254  0.0117147   0.003636618
 10  -2893.8103899760  -0.005899422378 0.02477757  0.00027996  0.0062618   0.003610183
 11  -2893.8153555483  -0.004965572326 0.01135327  0.00013497  0.0049820   0.002995216
 12  -2893.8169412565  -0.001585708155 0.01408961  0.00007921  0.0023217   0.001581147
 13  -2893.8165807627   0.000360493774 0.01294251  0.00009398  0.0042245   0.002532317
 14  -2893.8175092574  -0.000928494680 0.00468557  0.00004089  0.0017696   0.000959450
 15  -2893.8175863608  -0.000077103418 0.00658653  0.00003347  0.0018055   0.001105716
 16  -2893.8176009010  -0.000014540190 0.00632010  0.00002875  0.0012510   0.000974931
 17  -2893.8176793282  -0.000078427179 0.00298183  0.00001818  0.0008892   0.000637224
 18  -2893.8177671348  -0.000087806587 0.00221367  0.00002260  0.0009243   0.000328652
 19  -2893.8178242130  -0.000057078190 0.00205974  0.00001169  0.0007609   0.000401607
               *** Restarting incremental Fock matrix formation ***
                             ****Resetting KDIIS****
 20  -2893.8178288583  -0.000004645305 0.00035045  0.00000267  0.0008192   0.000290220
 21  -2893.8178420670  -0.000013208763 0.00036501  0.00000409  0.0008098   0.000205625
 22  -2893.8178520614  -0.000009994348 0.00067773  0.00000791  0.0008067   0.000186801
 23  -2893.8178760475  -0.000023986130 0.00667278  0.00007962  0.0007940   0.000161542
 24  -2893.8180403255  -0.000164277994 0.00160497  0.00001944  0.0007193   0.000217992
 25  -2893.8180763263  -0.000036000771 0.00137287  0.00001673  0.0006529   0.000092541
 26  -2893.8180987175  -0.000022391219 0.00086155  0.00000954  0.0006354   0.000103111
 27  -2893.8181109942  -0.000012276693 0.00140887  0.00001653  0.0005925   0.000099256
 28  -2893.8181190967  -0.000008102558 0.00363838  0.00004176  0.0005728   0.000192407
 29  -2893.8181740572  -0.000054960476 0.00066859  0.00000501  0.0004632   0.000126275
 30  -2893.8181701988   0.000003858454 0.00071817  0.00000544  0.0004505   0.000109124
 31  -2893.8181645161   0.000005682696 0.00169055  0.00001811  0.0004791   0.000124028
 32  -2893.8181822139  -0.000017697806 0.00037887  0.00000518  0.0004116   0.000070574
 33  -2893.8181780988   0.000004115058 0.00077418  0.00000808  0.0004381   0.000065070
                           ***RMSP convergence achieved***
 34  -2893.8181854878  -0.000007388945 0.00009374  0.00000079  0.0004070   0.000068678
 35  -2893.8181821154   0.000003372405 0.00039691  0.00000446  0.0004112   0.000055533
 36  -2893.8181860582  -0.000003942843 0.00029839  0.00000325  0.0004031   0.000051041
 37  -2893.8181883687  -0.000002310495 0.00034623  0.00000389  0.0003915   0.000052854
 38  -2893.8181903154  -0.000001946755 0.00016340  0.00000184  0.0003860   0.000047937
 39  -2893.8181891089   0.000001206534 0.00020692  0.00000243  0.0003869   0.000047721
               *** Restarting incremental Fock matrix formation ***
                             ****Resetting KDIIS****
                           ***RMSP convergence achieved***
 40  -2893.8181901171  -0.000001008176 0.00004180  0.00000050  0.0003829   0.000047515
                          ***Energy convergence achieved***
 41  -2893.8181902362  -0.000000119155 0.00008664  0.00000101  0.0003822   0.000047266
 42  -2893.8181908329  -0.000000596632 0.00019138  0.00000138  0.0003802   0.000047273
 43  -2893.8181903070   0.000000525913 0.00105874  0.00001293  0.0003828   0.000048326
 44  -2893.8181807983   0.000009508683 0.00182535  0.00000793  0.0004079   0.000046488
 45  -2893.8181771608   0.000003637466 0.00056869  0.00000673  0.0004136   0.000058214
 46  -2893.8181747794   0.000002381394 0.00035990  0.00000390  0.0004178   0.000052293
 47  -2893.8181725731   0.000002206286 0.00122552  0.00001371  0.0004150   0.000080842
 48  -2893.8181670849   0.000005488253 0.00057494  0.00000654  0.0004148   0.000053760
 49  -2893.8181659306   0.000001154258 0.00060168  0.00000701  0.0004206   0.000047632
                          ***Energy convergence achieved***
 50  -2893.8181661293  -0.000000198677 0.00029917  0.00000438  0.0004091   0.000043594
 51  -2893.8181679801  -0.000001850841 0.00098029  0.00001155  0.0003989   0.000041940
 52  -2893.8181724857  -0.000004505562 0.00032029  0.00000442  0.0003754   0.000042873
                          ***Energy convergence achieved***
 53  -2893.8181721270   0.000000358682 0.00043508  0.00000457  0.0003704   0.000054478
 54  -2893.8181766129  -0.000004485917 0.00072914  0.00000795  0.0003560   0.000038128
 55  -2893.8181795488  -0.000002935868 0.00012812  0.00000128  0.0003398   0.000037174
 56  -2893.8181811478  -0.000001598985 0.00061920  0.00000644  0.0003375   0.000034966
 57  -2893.8181839524  -0.000002804561 0.00024216  0.00000251  0.0003240   0.000035865
 58  -2893.8181856339  -0.000001681537 0.00029638  0.00000303  0.0003189   0.000033560
 59  -2893.8181881363  -0.000002502376 0.00016419  0.00000167  0.0003105   0.000038724
               *** Restarting incremental Fock matrix formation ***
                             ****Resetting KDIIS****
                          ***Energy convergence achieved***
                           ***RMSP convergence achieved***
 60  -2893.8181880252   0.000000111024 0.00003787  0.00000037  0.0003095   0.000033678

            ***Energy convergence in two consecutive cycles with***
                    ***'reasonable' density convergence***
                       *** signaling convergence ***

                    *** KDIIS BlockDiag ( 0.177 sec) ***

               *****************************************************
               *                     SUCCESS                       *
               *           SCF CONVERGED AFTER  61 CYCLES          *
               *****************************************************


----------------
TOTAL SCF ENERGY
----------------

Total Energy       :        -2893.81818846 Eh          -78744.79622 eV

Components:
Nuclear Repulsion  :         4481.97272000 Eh          121960.67807 eV
Electronic Energy  :        -7375.79090846 Eh         -200705.47429 eV
One Electron Energy:       -13566.61078069 Eh         -369166.24739 eV
Two Electron Energy:         6190.81987222 Eh          168460.77310 eV

Virial components:
Potential Energy   :        -4706.17834167 Eh         -128061.62320 eV
Kinetic Energy     :         1812.36015320 Eh           49316.82699 eV
Virial Ratio       :            2.59671254


DFT components:
N(Alpha)           :      128.999979764767 electrons
N(Beta)            :      124.999979786344 electrons
N(Total)           :      253.999959551111 electrons
E(X)               :     -200.229064434578 Eh       
E(C)               :      -10.571697325115 Eh       
E(XC)              :     -210.800761759694 Eh       
DFET-embed. en.    :        0.000000000000 Eh       

---------------
SCF CONVERGENCE
---------------

  Last Energy change         ...   -4.3970e-07  Tolerance :   1.0000e-06
  Last MAX-Density change    ...    8.2263e-05  Tolerance :   1.0000e-05
  Last RMS-Density change    ...    7.8787e-07  Tolerance :   1.0000e-06

             **** THE GBW FILE WAS UPDATED (scan.gbw) ****
             **** DENSITY scan.scfp WAS UPDATED ****
             **** ENERGY FILE WAS UPDATED (scan.en.tmp) ****
----------------------
UHF SPIN CONTAMINATION
----------------------

Warning: in a DFT calculation there is little theoretical justification to 
         calculate <S**2> as in Hartree-Fock theory. We will do it anyways
         but you should keep in mind that the values have only limited relevance

Expectation value of <S**2>     :     6.364119
Ideal value S*(S+1) for S=2.0   :     6.000000
Deviation                       :     0.364119

             **** THE GBW FILE WAS UPDATED (scan.gbw) ****
             **** DENSITY scan.scfp WAS UPDATED ****
----------------
ORBITAL ENERGIES
----------------
                 SPIN UP ORBITALS
  NO   OCC          E(Eh)            E(eV) 
   0   1.0000    -255.638572     -6956.2792 
   1   1.0000     -29.937636      -814.6445 
   2   1.0000     -25.776731      -701.4205 
   3   1.0000     -25.766609      -701.1451 
   4   1.0000     -25.760162      -700.9696 
   5   1.0000      -4.122822      -112.1877 
   6   1.0000      -4.122720      -112.1849 
   7   1.0000      -4.122114      -112.1684 
   8   1.0000      -4.120416      -112.1222 
   9   1.0000      -4.120275      -112.1184 
  10   1.0000      -4.120016      -112.1113 
  11   1.0000      -4.117318      -112.0379 
  12   1.0000      -4.117237      -112.0357 
  13   1.0000      -4.116006      -112.0022 
  14   1.0000      -4.110808      -111.8608 
  15   1.0000      -4.110657      -111.8567 
  16   1.0000      -4.110604      -111.8552 
  17   1.0000      -3.517773       -95.7235 
  18   1.0000      -2.313156       -62.9442 
  19   1.0000      -2.312990       -62.9397 
  20   1.0000      -2.311749       -62.9059 
  21   1.0000      -2.311077       -62.8876 
  22   1.0000      -2.310887       -62.8824 
  23   1.0000      -2.308899       -62.8283 
  24   1.0000      -2.308610       -62.8205 
  25   1.0000      -2.308387       -62.8144 
  26   1.0000      -2.308383       -62.8143 
  27   1.0000      -2.308020       -62.8044 
  28   1.0000      -2.307675       -62.7950 
  29   1.0000      -2.307107       -62.7796 
  30   1.0000      -2.306697       -62.7684 
  31   1.0000      -2.305903       -62.7468 
  32   1.0000      -2.305778       -62.7434 
  33   1.0000      -2.305634       -62.7395 
  34   1.0000      -2.304873       -62.7188 
  35   1.0000      -2.304522       -62.7092 
  36   1.0000      -2.303706       -62.6870 
  37   1.0000      -2.302210       -62.6463 
  38   1.0000      -2.302150       -62.6447 
  39   1.0000      -2.302063       -62.6423 
  40   1.0000      -2.301827       -62.6359 
  41   1.0000      -2.301385       -62.6239 
  42   1.0000      -2.300615       -62.6029 
  43   1.0000      -2.299192       -62.5642 
  44   1.0000      -2.298598       -62.5480 
  45   1.0000      -2.297940       -62.5301 
  46   1.0000      -2.297549       -62.5195 
  47   1.0000      -2.297393       -62.5152 
  48   1.0000      -2.297200       -62.5100 
  49   1.0000      -2.296051       -62.4787 
  50   1.0000      -2.295291       -62.4580 
  51   1.0000      -2.295220       -62.4561 
  52   1.0000      -2.294367       -62.4329 
  53   1.0000      -2.293373       -62.4059 
  54   1.0000      -2.292977       -62.3951 
  55   1.0000      -2.280826       -62.0644 
  56   1.0000      -2.265601       -61.6501 
  57   1.0000      -0.443465       -12.0673 
  58   1.0000      -0.394535       -10.7358 
  59   1.0000      -0.393893       -10.7184 
  60   1.0000      -0.391890       -10.6639 
  61   1.0000      -0.389936       -10.6107 
  62   1.0000      -0.388851       -10.5812 
  63   1.0000      -0.385538       -10.4910 
  64   1.0000      -0.378535       -10.3005 
  65   1.0000      -0.371260       -10.1025 
  66   1.0000      -0.360888        -9.8203 
  67   1.0000      -0.360128        -9.7996 
  68   1.0000      -0.359698        -9.7879 
  69   1.0000      -0.355773        -9.6811 
  70   1.0000      -0.353906        -9.6303 
  71   1.0000      -0.353527        -9.6200 
  72   1.0000      -0.346304        -9.4234 
  73   1.0000      -0.344430        -9.3724 
  74   1.0000      -0.342223        -9.3124 
  75   1.0000      -0.342081        -9.3085 
  76   1.0000      -0.341931        -9.3044 
  77   1.0000      -0.338825        -9.2199 
  78   1.0000      -0.336239        -9.1495 
  79   1.0000      -0.333870        -9.0851 
  80   1.0000      -0.333487        -9.0746 
  81   1.0000      -0.329359        -8.9623 
  82   1.0000      -0.324136        -8.8202 
  83   1.0000      -0.323910        -8.8140 
  84   1.0000      -0.320913        -8.7325 
  85   1.0000      -0.319298        -8.6885 
  86   1.0000      -0.313498        -8.5307 
  87   1.0000      -0.310530        -8.4500 
  88   1.0000      -0.309405        -8.4193 
  89   1.0000      -0.309010        -8.4086 
  90   1.0000      -0.300420        -8.1748 
  91   1.0000      -0.297709        -8.1011 
  92   1.0000      -0.297129        -8.0853 
  93   1.0000      -0.295190        -8.0325 
  94   1.0000      -0.294402        -8.0111 
  95   1.0000      -0.292094        -7.9483 
  96   1.0000      -0.287438        -7.8216 
  97   1.0000      -0.285062        -7.7569 
  98   1.0000      -0.282524        -7.6879 
  99   1.0000      -0.280641        -7.6366 
 100   1.0000      -0.279903        -7.6165 
 101   1.0000      -0.278363        -7.5746 
 102   1.0000      -0.277143        -7.5414 
 103   1.0000      -0.275490        -7.4965 
 104   1.0000      -0.275160        -7.4875 
 105   1.0000      -0.273785        -7.4501 
 106   1.0000      -0.271068        -7.3761 
 107   1.0000      -0.269038        -7.3209 
 108   1.0000      -0.268897        -7.3171 
 109   1.0000      -0.266797        -7.2599 
 110   1.0000      -0.265539        -7.2257 
 111   1.0000      -0.264738        -7.2039 
 112   1.0000      -0.263899        -7.1811 
 113   1.0000      -0.262534        -7.1439 
 114   1.0000      -0.260893        -7.0993 
 115   1.0000      -0.260593        -7.0911 
 116   1.0000      -0.260401        -7.0859 
 117   1.0000      -0.258542        -7.0353 
 118   1.0000      -0.256786        -6.9875 
 119   1.0000      -0.256231        -6.9724 
 120   1.0000      -0.254438        -6.9236 
 121   1.0000      -0.252653        -6.8750 
 122   1.0000      -0.248527        -6.7628 
 123   1.0000      -0.247450        -6.7335 
 124   1.0000      -0.245708        -6.6861 
 125   1.0000      -0.240447        -6.5429 
 126   1.0000      -0.214023        -5.8239 
 127   1.0000      -0.189377        -5.1532 
 128   1.0000      -0.181010        -4.9255 
 129   0.0000      -0.180280        -4.9057 
 130   0.0000      -0.151925        -4.1341 
 131   0.0000      -0.135747        -3.6939 
 132   0.0000      -0.112413        -3.0589 
 133   0.0000      -0.111178        -3.0253 
 134   0.0000      -0.107142        -2.9155 
 135   0.0000      -0.058958        -1.6043 
 136   0.0000      -0.052815        -1.4372 
 137   0.0000      -0.052347        -1.4244 
 138   0.0000      -0.051586        -1.4037 
 139   0.0000      -0.041951        -1.1416 
 140   0.0000      -0.036036        -0.9806 
 141   0.0000      -0.027739        -0.7548 
 142   0.0000      -0.026165        -0.7120 
 143   0.0000      -0.007694        -0.2094 
 144   0.0000      -0.000152        -0.0041 
 145   0.0000       0.015075         0.4102 
 146   0.0000       0.016156         0.4396 
 147   0.0000       0.047148         1.2830 
 148   0.0000       0.050105         1.3634 
 149   0.0000       0.054470         1.4822 
 150   0.0000       0.055811         1.5187 
 151   0.0000       0.060092         1.6352 
 152   0.0000       0.068024         1.8510 
 153   0.0000       0.068286         1.8582 
 154   0.0000       0.070447         1.9170 
 155   0.0000       0.073451         1.9987 
 156   0.0000       0.074875         2.0375 
 157   0.0000       0.078158         2.1268 
 158   0.0000       0.086419         2.3516 
 159   0.0000       0.088250         2.4014 
 160   0.0000       0.098292         2.6747 
 161   0.0000       0.105612         2.8738 
 162   0.0000       0.109210         2.9718 
 163   0.0000       0.110632         3.0104 
 164   0.0000       0.116046         3.1578 
 165   0.0000       0.132845         3.6149 
 166   0.0000       0.135237         3.6800 
 167   0.0000       0.144544         3.9332 
 168   0.0000       0.152771         4.1571 
 169   0.0000       0.156144         4.2489 
 170   0.0000       0.162710         4.4276 
 171   0.0000       0.163192         4.4407 
 172   0.0000       0.168551         4.5865 
 173   0.0000       0.185951         5.0600 
 174   0.0000       0.187888         5.1127 
 175   0.0000       0.189897         5.1673 
 176   0.0000       0.191326         5.2062 
 177   0.0000       0.193009         5.2520 
 178   0.0000       0.196216         5.3393 
 179   0.0000       0.206671         5.6238 
 180   0.0000       0.222433         6.0527 
 181   0.0000       0.225513         6.1365 
 182   0.0000       0.231350         6.2953 
 183   0.0000       0.235830         6.4173 
 184   0.0000       0.237998         6.4763 
 185   0.0000       0.241335         6.5671 
 186   0.0000       0.242308         6.5935 
 187   0.0000       0.248179         6.7533 
 188   0.0000       0.248450         6.7607 
 189   0.0000       0.257202         6.9988 
 190   0.0000       0.258514         7.0345 
 191   0.0000       0.262922         7.1545 
 192   0.0000       0.271917         7.3992 
 193   0.0000       0.279169         7.5966 
 194   0.0000       0.281451         7.6587 
 195   0.0000       0.285668         7.7734 
 196   0.0000       0.303397         8.2559 
 197   0.0000       0.306695         8.3456 
 198   0.0000       0.309027         8.4090 
 199   0.0000       0.313993         8.5442 
 200   0.0000       0.318506         8.6670 
 201   0.0000       0.320753         8.7281 
 202   0.0000       0.330452         8.9921 
 203   0.0000       0.335069         9.1177 
 204   0.0000       0.339688         9.2434 
 205   0.0000       0.345699         9.4069 
 206   0.0000       0.347497         9.4559 
 207   0.0000       0.351003         9.5513 
 208   0.0000       0.356027         9.6880 
 209   0.0000       0.359392         9.7795 
 210   0.0000       0.366765         9.9802 
 211   0.0000       0.373218        10.1558 
 212   0.0000       0.375613        10.2209 
 213   0.0000       0.383662        10.4400 
 214   0.0000       0.385844        10.4993 
 215   0.0000       0.399646        10.8749 
 216   0.0000       0.401642        10.9292 
 217   0.0000       0.408338        11.1114 
 218   0.0000       0.410314        11.1652 
 219   0.0000       0.421588        11.4720 
 220   0.0000       0.435556        11.8521 
 221   0.0000       0.437349        11.9009 
 222   0.0000       0.443633        12.0719 
 223   0.0000       0.447472        12.1763 
 224   0.0000       0.451735        12.2923 
 225   0.0000       0.456763        12.4292 
 226   0.0000       0.464090        12.6285 
 227   0.0000       0.468431        12.7466 
 228   0.0000       0.479548        13.0492 
 229   0.0000       0.488516        13.2932 
 230   0.0000       0.500224        13.6118 
 231   0.0000       0.500743        13.6259 
 232   0.0000       0.503970        13.7137 
 233   0.0000       0.504925        13.7397 
 234   0.0000       0.510409        13.8889 
 235   0.0000       0.512118        13.9354 
 236   0.0000       0.516601        14.0574 
 237   0.0000       0.518101        14.0982 
 238   0.0000       0.519065        14.1245 
 239   0.0000       0.523996        14.2587 
 240   0.0000       0.527040        14.3415 
 241   0.0000       0.529482        14.4079 
 242   0.0000       0.536698        14.6043 
 243   0.0000       0.538994        14.6668 
 244   0.0000       0.543775        14.7969 
 245   0.0000       0.554511        15.0890 
 246   0.0000       0.557085        15.1591 
 247   0.0000       0.559502        15.2248 
 248   0.0000       0.570456        15.5229 
 249   0.0000       0.577484        15.7141 
 250   0.0000       0.581451        15.8221 
 251   0.0000       0.591017        16.0824 
 252   0.0000       0.666677        18.1412 
 253   0.0000       0.670326        18.2405 
 254   0.0000       0.681761        18.5517 
 255   0.0000       0.689993        18.7757 
 256   0.0000       0.698905        19.0182 
 257   0.0000       0.710922        19.3452 
 258   0.0000       0.713749        19.4221 
 259   0.0000       0.720527        19.6065 
 260   0.0000       0.725261        19.7353 
 261   0.0000       0.727294        19.7907 
 262   0.0000       0.737348        20.0643 
 263   0.0000       0.748896        20.3785 
 264   0.0000       0.753564        20.5055 
 265   0.0000       0.769147        20.9296 
 266   0.0000       0.780597        21.2411 
 267   0.0000       0.795978        21.6597 
 268   0.0000       0.813795        22.1445 
 269   0.0000       0.817488        22.2450 
 270   0.0000       0.831148        22.6167 
 271   0.0000       0.833912        22.6919 
 272   0.0000       0.837887        22.8001 
 273   0.0000       0.869953        23.6726 
 274   0.0000       0.883025        24.0283 
 275   0.0000       0.897717        24.4281 
 276   0.0000       0.919719        25.0268 
 277   0.0000       0.943618        25.6772 
 278   0.0000       0.945284        25.7225 
 279   0.0000       0.946069        25.7438 
 280   0.0000       0.954833        25.9823 
 281   0.0000       0.957361        26.0511 
 282   0.0000       0.982701        26.7406 
 283   0.0000       0.983697        26.7678 
 284   0.0000       1.003577        27.3087 
 285   0.0000       1.005387        27.3580 
 286   0.0000       1.049222        28.5508 
 287   0.0000       1.078079        29.3360 
 288   0.0000       1.182911        32.1886 
 289   0.0000       1.210089        32.9282 
 290   0.0000       1.234120        33.5821 
 291   0.0000       1.259852        34.2823 
 292   0.0000       1.274073        34.6693 
 293   0.0000       1.279635        34.8207 
 294   0.0000       1.290256        35.1096 
 295   0.0000       1.293555        35.1994 
 296   0.0000       1.319568        35.9073 
 297   0.0000       1.322425        35.9850 
 298   0.0000       1.326554        36.0974 
 299   0.0000       1.334923        36.3251 
 300   0.0000       1.351084        36.7649 
 301   0.0000       1.351460        36.7751 
 302   0.0000       1.357130        36.9294 
 303   0.0000       1.375829        37.4382 
 304   0.0000       1.388130        37.7729 
 305   0.0000       1.390997        37.8509 
 306   0.0000       1.396600        38.0034 
 307   0.0000       1.403984        38.2043 
 308   0.0000       1.406363        38.2691 
 309   0.0000       1.429713        38.9045 
 310   0.0000       1.430485        38.9255 
 311   0.0000       1.445198        39.3258 
 312   0.0000       1.459796        39.7231 
 313   0.0000       1.461924        39.7810 
 314   0.0000       1.462320        39.7917 
 315   0.0000       1.467148        39.9231 
 316   0.0000       1.479220        40.2516 
 317   0.0000       1.480136        40.2765 
 318   0.0000       1.488995        40.5176 
 319   0.0000       1.492098        40.6021 
 320   0.0000       1.495961        40.7072 
 321   0.0000       1.501018        40.8448 
 322   0.0000       1.501808        40.8663 
 323   0.0000       1.503506        40.9125 
 324   0.0000       1.505921        40.9782 
 325   0.0000       1.509101        41.0647 
 326   0.0000       1.515482        41.2384 
 327   0.0000       1.519214        41.3399 
 328   0.0000       1.523487        41.4562 
 329   0.0000       1.523574        41.4585 
 330   0.0000       1.529298        41.6143 
 331   0.0000       1.529595        41.6224 
 332   0.0000       1.535245        41.7762 
 333   0.0000       1.535850        41.7926 
 334   0.0000       1.537721        41.8435 
 335   0.0000       1.540489        41.9188 
 336   0.0000       1.542054        41.9614 
 337   0.0000       1.543101        41.9899 
 338   0.0000       1.547326        42.1049 
 339   0.0000       1.549787        42.1718 
 340   0.0000       1.550658        42.1955 
 341   0.0000       1.550697        42.1966 
 342   0.0000       1.553001        42.2593 
 343   0.0000       1.556096        42.3435 
 344   0.0000       1.558436        42.4072 
 345   0.0000       1.558997        42.4225 
 346   0.0000       1.561274        42.4844 
 347   0.0000       1.563491        42.5448 
 348   0.0000       1.564803        42.5805 
 349   0.0000       1.565128        42.5893 
 350   0.0000       1.566426        42.6246 
 351   0.0000       1.567985        42.6670 
 352   0.0000       1.568507        42.6813 
 353   0.0000       1.569472        42.7075 
 354   0.0000       1.571121        42.7524 
 355   0.0000       1.572958        42.8024 
 356   0.0000       1.577558        42.9275 
 357   0.0000       1.578058        42.9411 
 358   0.0000       1.579104        42.9696 
 359   0.0000       1.579217        42.9727 
 360   0.0000       1.579530        42.9812 
 361   0.0000       1.585122        43.1334 
 362   0.0000       1.587727        43.2043 
 363   0.0000       1.588129        43.2152 
 364   0.0000       1.590243        43.2727 
 365   0.0000       1.590860        43.2895 
 366   0.0000       1.591793        43.3149 
 367   0.0000       1.597325        43.4654 
 368   0.0000       1.598231        43.4901 
 369   0.0000       1.600951        43.5641 
 370   0.0000       1.605949        43.7001 
 371   0.0000       1.607777        43.7498 
 372   0.0000       1.608326        43.7648 
 373   0.0000       1.612420        43.8762 
 374   0.0000       1.613908        43.9167 
 375   0.0000       1.616289        43.9815 
 376   0.0000       1.616936        43.9991 
 377   0.0000       1.622644        44.1544 
 378   0.0000       1.624360        44.2011 
 379   0.0000       1.627924        44.2981 
 380   0.0000       1.628642        44.3176 
 381   0.0000       1.629916        44.3523 
 382   0.0000       1.633483        44.4493 
 383   0.0000       1.638354        44.5819 
 384   0.0000       1.641645        44.6714 
 385   0.0000       1.642193        44.6864 
 386   0.0000       1.644521        44.7497 
 387   0.0000       1.647405        44.8282 
 388   0.0000       1.651391        44.9366 
 389   0.0000       1.655880        45.0588 
 390   0.0000       1.660128        45.1744 
 391   0.0000       1.662983        45.2521 
 392   0.0000       1.664764        45.3005 
 393   0.0000       1.668661        45.4066 
 394   0.0000       1.672406        45.5085 
 395   0.0000       1.675881        45.6030 
 396   0.0000       1.679328        45.6968 
 397   0.0000       1.688177        45.9376 
 398   0.0000       1.688244        45.9395 
 399   0.0000       1.690655        46.0051 
 400   0.0000       1.695528        46.1377 
 401   0.0000       1.698947        46.2307 
 402   0.0000       1.699423        46.2437 
 403   0.0000       1.707938        46.4753 
 404   0.0000       1.712474        46.5988 
 405   0.0000       1.721877        46.8547 
 406   0.0000       1.722188        46.8631 
 407   0.0000       1.738248        47.3001 
 408   0.0000       1.748377        47.5758 
 409   0.0000       1.752762        47.6951 
 410   0.0000       1.754833        47.7514 
 411   0.0000       1.761218        47.9252 
 412   0.0000       1.783619        48.5347 
 413   0.0000       1.785859        48.5957 
 414   0.0000       1.788529        48.6684 
 415   0.0000       1.811490        49.2932 
 416   0.0000       1.821783        49.5732 
 417   0.0000       1.822543        49.5939 
 418   0.0000       1.829497        49.7831 
 419   0.0000       1.830914        49.8217 
 420   0.0000       1.847141        50.2633 
 421   0.0000       1.851779        50.3895 
 422   0.0000       1.856332        50.5134 
 423   0.0000       1.864723        50.7417 
 424   0.0000       1.870606        50.9018 
 425   0.0000       1.896087        51.5952 
 426   0.0000       1.897062        51.6217 
 427   0.0000       1.909863        51.9700 
 428   0.0000       1.913456        52.0678 
 429   0.0000       1.924585        52.3706 
 430   0.0000       1.959985        53.3339 
 431   0.0000       1.986695        54.0607 
 432   0.0000       1.992042        54.2062 
 433   0.0000       1.999589        54.4116 
 434   0.0000       2.090706        56.8910 
 435   0.0000       2.182639        59.3926 
 436   0.0000       2.199003        59.8379 
 437   0.0000       2.250143        61.2295 
 438   0.0000       2.355689        64.1015 
 439   0.0000       2.376073        64.6562 
 440   0.0000       2.424739        65.9805 
 441   0.0000       2.491054        67.7850 
 442   0.0000       2.518821        68.5406 
 443   0.0000       2.547774        69.3284 
 444   0.0000       2.550904        69.4136 
 445   0.0000       2.554830        69.5205 
 446   0.0000       2.559785        69.6553 
 447   0.0000       2.589807        70.4722 
 448   0.0000       2.593383        70.5695 
 449   0.0000       2.626379        71.4674 
 450   0.0000       2.664150        72.4952 
 451   0.0000       2.730671        74.3053 
 452   0.0000       3.429418        93.3192 
 453   0.0000       3.683064       100.2213 
 454   0.0000       3.749042       102.0166 
 455   0.0000       3.763524       102.4107 
 456   0.0000       3.820622       103.9644 
 457   0.0000       3.827884       104.1620 
 458   0.0000       3.988369       108.5290 
 459   0.0000       3.990378       108.5837 
 460   0.0000       3.993640       108.6725 
 461   0.0000       3.998029       108.7919 
 462   0.0000       4.005634       108.9988 
 463   0.0000       4.013312       109.2078 
 464   0.0000       4.023122       109.4747 
 465   0.0000      23.985325       652.6739 
 466   0.0000      24.275568       660.5718 
 467   0.0000      24.373332       663.2321 
 468   0.0000      24.505937       666.8404 
 469   0.0000      24.824681       675.5139 
 470   0.0000      24.923015       678.1897 
 471   0.0000      25.013347       680.6478 
 472   0.0000      25.124499       683.6724 
 473   0.0000      25.502057       693.9463 
 474   0.0000      25.631717       697.4745 
 475   0.0000      25.692626       699.1319 
 476   0.0000      25.773294       701.3270 
 477   0.0000      25.931520       705.6325 
 478   0.0000      26.050269       708.8639 
 479   0.0000      26.065165       709.2692 
 480   0.0000      26.101251       710.2511 
 481   0.0000      26.245503       714.1764 
 482   0.0000      26.573685       723.1067 
 483   0.0000      26.679353       725.9821 
 484   0.0000      26.747881       727.8469 
 485   0.0000      26.755775       728.0616 
 486   0.0000      26.854282       730.7422 
 487   0.0000      27.026250       735.4217 
 488   0.0000      27.178798       739.5727 
 489   0.0000      27.319384       743.3982 
 490   0.0000      27.518862       748.8263 
 491   0.0000      27.733185       754.6583 
 492   0.0000      28.076303       763.9950 
 493   0.0000      28.256096       768.8875 
 494   0.0000      28.344455       771.2918 
 495   0.0000      28.681594       780.4658 
 496   0.0000      28.811188       783.9923 
 497   0.0000      29.608085       805.6769 
 498   0.0000      30.758845       836.9907 
 499   0.0000      31.132475       847.1577 
 500   0.0000      32.400111       881.6518 
 501   0.0000      44.364386      1207.2163 
 502   0.0000      44.504941      1211.0410 
 503   0.0000      44.532300      1211.7855 
 504   0.0000      44.585236      1213.2260 
 505   0.0000      44.602291      1213.6900 
 506   0.0000      44.612061      1213.9559 
 507   0.0000      44.617981      1214.1170 
 508   0.0000      44.629564      1214.4322 
 509   0.0000      44.640236      1214.7226 
 510   0.0000      44.646268      1214.8867 
 511   0.0000      44.658630      1215.2231 
 512   0.0000      44.696567      1216.2554 
 513   0.0000     205.240747      5584.8847 
 514   0.0000     205.300362      5586.5068 
 515   0.0000     205.308346      5586.7241 
 516   0.0000     205.324824      5587.1725 
 517   0.0000     205.344136      5587.6980 
 518   0.0000     205.346551      5587.7637 
 519   0.0000     205.348535      5587.8177 
 520   0.0000     205.353317      5587.9479 
 521   0.0000     205.357594      5588.0642 
 522   0.0000     205.357992      5588.0751 
 523   0.0000     205.363199      5588.2167 
 524   0.0000     205.378122      5588.6228 

                 SPIN DOWN ORBITALS
  NO   OCC          E(Eh)            E(eV) 
   0   1.0000    -255.637589     -6956.2525 
   1   1.0000     -29.858875      -812.5013 
   2   1.0000     -25.710873      -699.6284 
   3   1.0000     -25.707539      -699.5377 
   4   1.0000     -25.704910      -699.4662 
   5   1.0000      -4.122538      -112.1800 
   6   1.0000      -4.122426      -112.1769 
   7   1.0000      -4.120845      -112.1339 
   8   1.0000      -4.120361      -112.1207 
   9   1.0000      -4.119562      -112.0990 
  10   1.0000      -4.119298      -112.0918 
  11   1.0000      -4.115858      -111.9982 
  12   1.0000      -4.115810      -111.9969 
  13   1.0000      -4.114712      -111.9670 
  14   1.0000      -4.109764      -111.8324 
  15   1.0000      -4.109747      -111.8319 
  16   1.0000      -4.109707      -111.8308 
  17   1.0000      -3.346106       -91.0522 
  18   1.0000      -2.312092       -62.9152 
  19   1.0000      -2.311924       -62.9106 
  20   1.0000      -2.310409       -62.8694 
  21   1.0000      -2.309900       -62.8556 
  22   1.0000      -2.309598       -62.8474 
  23   1.0000      -2.308307       -62.8122 
  24   1.0000      -2.308223       -62.8099 
  25   1.0000      -2.307856       -62.8000 
  26   1.0000      -2.307191       -62.7818 
  27   1.0000      -2.307023       -62.7773 
  28   1.0000      -2.306788       -62.7709 
  29   1.0000      -2.306607       -62.7660 
  30   1.0000      -2.305631       -62.7394 
  31   1.0000      -2.305194       -62.7275 
  32   1.0000      -2.304665       -62.7131 
  33   1.0000      -2.304345       -62.7044 
  34   1.0000      -2.304143       -62.6989 
  35   1.0000      -2.303668       -62.6860 
  36   1.0000      -2.301824       -62.6358 
  37   1.0000      -2.301547       -62.6283 
  38   1.0000      -2.301045       -62.6146 
  39   1.0000      -2.300802       -62.6080 
  40   1.0000      -2.300206       -62.5918 
  41   1.0000      -2.299501       -62.5726 
  42   1.0000      -2.297909       -62.5293 
  43   1.0000      -2.297672       -62.5228 
  44   1.0000      -2.297057       -62.5061 
  45   1.0000      -2.296615       -62.4941 
  46   1.0000      -2.296316       -62.4859 
  47   1.0000      -2.296241       -62.4839 
  48   1.0000      -2.295020       -62.4507 
  49   1.0000      -2.294395       -62.4337 
  50   1.0000      -2.293709       -62.4150 
  51   1.0000      -2.293589       -62.4117 
  52   1.0000      -2.292678       -62.3869 
  53   1.0000      -2.292540       -62.3832 
  54   1.0000      -2.116715       -57.5987 
  55   1.0000      -2.114192       -57.5301 
  56   1.0000      -2.109335       -57.3979 
  57   1.0000      -0.439147       -11.9498 
  58   1.0000      -0.391593       -10.6558 
  59   1.0000      -0.391548       -10.6546 
  60   1.0000      -0.386531       -10.5180 
  61   1.0000      -0.377679       -10.2772 
  62   1.0000      -0.376034       -10.2324 
  63   1.0000      -0.370220       -10.0742 
  64   1.0000      -0.370083       -10.0705 
  65   1.0000      -0.362524        -9.8648 
  66   1.0000      -0.357371        -9.7246 
  67   1.0000      -0.357167        -9.7190 
  68   1.0000      -0.356881        -9.7112 
  69   1.0000      -0.354540        -9.6475 
  70   1.0000      -0.352652        -9.5962 
  71   1.0000      -0.350969        -9.5503 
  72   1.0000      -0.344307        -9.3691 
  73   1.0000      -0.341725        -9.2988 
  74   1.0000      -0.341251        -9.2859 
  75   1.0000      -0.340674        -9.2702 
  76   1.0000      -0.339641        -9.2421 
  77   1.0000      -0.335633        -9.1330 
  78   1.0000      -0.333328        -9.0703 
  79   1.0000      -0.329519        -8.9667 
  80   1.0000      -0.324632        -8.8337 
  81   1.0000      -0.322085        -8.7644 
  82   1.0000      -0.320186        -8.7127 
  83   1.0000      -0.318771        -8.6742 
  84   1.0000      -0.311863        -8.4862 
  85   1.0000      -0.309844        -8.4313 
  86   1.0000      -0.309757        -8.4289 
  87   1.0000      -0.307110        -8.3569 
  88   1.0000      -0.301278        -8.1982 
  89   1.0000      -0.300622        -8.1803 
  90   1.0000      -0.294759        -8.0208 
  91   1.0000      -0.293081        -7.9751 
  92   1.0000      -0.292624        -7.9627 
  93   1.0000      -0.289140        -7.8679 
  94   1.0000      -0.287342        -7.8190 
  95   1.0000      -0.286519        -7.7966 
  96   1.0000      -0.285012        -7.7556 
  97   1.0000      -0.281627        -7.6635 
  98   1.0000      -0.279083        -7.5942 
  99   1.0000      -0.277741        -7.5577 
 100   1.0000      -0.277277        -7.5451 
 101   1.0000      -0.276261        -7.5174 
 102   1.0000      -0.275208        -7.4888 
 103   1.0000      -0.274041        -7.4570 
 104   1.0000      -0.272611        -7.4181 
 105   1.0000      -0.270734        -7.3670 
 106   1.0000      -0.267730        -7.2853 
 107   1.0000      -0.265955        -7.2370 
 108   1.0000      -0.265846        -7.2340 
 109   1.0000      -0.262508        -7.1432 
 110   1.0000      -0.261070        -7.1041 
 111   1.0000      -0.259652        -7.0655 
 112   1.0000      -0.259269        -7.0551 
 113   1.0000      -0.256603        -6.9825 
 114   1.0000      -0.254851        -6.9348 
 115   1.0000      -0.254596        -6.9279 
 116   1.0000      -0.249963        -6.8018 
 117   1.0000      -0.248479        -6.7615 
 118   1.0000      -0.248314        -6.7570 
 119   1.0000      -0.245413        -6.6780 
 120   1.0000      -0.240710        -6.5501 
 121   1.0000      -0.218709        -5.9514 
 122   1.0000      -0.199469        -5.4278 
 123   1.0000      -0.193792        -5.2733 
 124   1.0000      -0.184376        -5.0171 
 125   0.0000      -0.192688        -5.2433 
 126   0.0000      -0.153510        -4.1772 
 127   0.0000      -0.144218        -3.9244 
 128   0.0000      -0.142860        -3.8874 
 129   0.0000      -0.140745        -3.8299 
 130   0.0000      -0.124320        -3.3829 
 131   0.0000      -0.120881        -3.2893 
 132   0.0000      -0.107951        -2.9375 
 133   0.0000      -0.103725        -2.8225 
 134   0.0000      -0.100065        -2.7229 
 135   0.0000      -0.055320        -1.5053 
 136   0.0000      -0.050042        -1.3617 
 137   0.0000      -0.049294        -1.3414 
 138   0.0000      -0.047601        -1.2953 
 139   0.0000      -0.038109        -1.0370 
 140   0.0000      -0.037250        -1.0136 
 141   0.0000      -0.025258        -0.6873 
 142   0.0000      -0.021215        -0.5773 
 143   0.0000      -0.000730        -0.0199 
 144   0.0000       0.006126         0.1667 
 145   0.0000       0.021344         0.5808 
 146   0.0000       0.021454         0.5838 
 147   0.0000       0.049379         1.3437 
 148   0.0000       0.054049         1.4708 
 149   0.0000       0.057588         1.5670 
 150   0.0000       0.058240         1.5848 
 151   0.0000       0.061613         1.6766 
 152   0.0000       0.068776         1.8715 
 153   0.0000       0.069128         1.8811 
 154   0.0000       0.073029         1.9872 
 155   0.0000       0.074891         2.0379 
 156   0.0000       0.076162         2.0725 
 157   0.0000       0.079625         2.1667 
 158   0.0000       0.086954         2.3661 
 159   0.0000       0.088456         2.4070 
 160   0.0000       0.100808         2.7431 
 161   0.0000       0.107643         2.9291 
 162   0.0000       0.110680         3.0118 
 163   0.0000       0.113056         3.0764 
 164   0.0000       0.116796         3.1782 
 165   0.0000       0.133997         3.6462 
 166   0.0000       0.136076         3.7028 
 167   0.0000       0.146843         3.9958 
 168   0.0000       0.156085         4.2473 
 169   0.0000       0.157071         4.2741 
 170   0.0000       0.164833         4.4853 
 171   0.0000       0.165642         4.5073 
 172   0.0000       0.173431         4.7193 
 173   0.0000       0.189916         5.1679 
 174   0.0000       0.193143         5.2557 
 175   0.0000       0.194011         5.2793 
 176   0.0000       0.194902         5.3035 
 177   0.0000       0.199458         5.4275 
 178   0.0000       0.203245         5.5306 
 179   0.0000       0.219731         5.9792 
 180   0.0000       0.225122         6.1259 
 181   0.0000       0.227174         6.1817 
 182   0.0000       0.233414         6.3515 
 183   0.0000       0.238227         6.4825 
 184   0.0000       0.239025         6.5042 
 185   0.0000       0.242241         6.5917 
 186   0.0000       0.242460         6.5977 
 187   0.0000       0.248786         6.7698 
 188   0.0000       0.249901         6.8002 
 189   0.0000       0.257861         7.0168 
 190   0.0000       0.259223         7.0538 
 191   0.0000       0.263693         7.1755 
 192   0.0000       0.272602         7.4179 
 193   0.0000       0.279196         7.5973 
 194   0.0000       0.282437         7.6855 
 195   0.0000       0.286257         7.7894 
 196   0.0000       0.305062         8.3012 
 197   0.0000       0.308584         8.3970 
 198   0.0000       0.310512         8.4495 
 199   0.0000       0.315930         8.5969 
 200   0.0000       0.319977         8.7070 
 201   0.0000       0.322037         8.7631 
 202   0.0000       0.331798         9.0287 
 203   0.0000       0.336891         9.1673 
 204   0.0000       0.339924         9.2498 
 205   0.0000       0.346868         9.4388 
 206   0.0000       0.349115         9.4999 
 207   0.0000       0.352503         9.5921 
 208   0.0000       0.357412         9.7257 
 209   0.0000       0.360921         9.8212 
 210   0.0000       0.367856        10.0099 
 211   0.0000       0.376029        10.2323 
 212   0.0000       0.377746        10.2790 
 213   0.0000       0.386002        10.5037 
 214   0.0000       0.387628        10.5479 
 215   0.0000       0.401984        10.9385 
 216   0.0000       0.404135        10.9971 
 217   0.0000       0.411197        11.1892 
 218   0.0000       0.414240        11.2720 
 219   0.0000       0.422983        11.5100 
 220   0.0000       0.437038        11.8924 
 221   0.0000       0.439268        11.9531 
 222   0.0000       0.445232        12.1154 
 223   0.0000       0.448968        12.2170 
 224   0.0000       0.452771        12.3205 
 225   0.0000       0.457985        12.4624 
 226   0.0000       0.465753        12.6738 
 227   0.0000       0.470936        12.8148 
 228   0.0000       0.480081        13.0637 
 229   0.0000       0.488779        13.3003 
 230   0.0000       0.503066        13.6891 
 231   0.0000       0.504636        13.7319 
 232   0.0000       0.506000        13.7690 
 233   0.0000       0.507657        13.8140 
 234   0.0000       0.511338        13.9142 
 235   0.0000       0.514525        14.0009 
 236   0.0000       0.519326        14.1316 
 237   0.0000       0.520889        14.1741 
 238   0.0000       0.522175        14.2091 
 239   0.0000       0.525156        14.2902 
 240   0.0000       0.529123        14.3982 
 241   0.0000       0.530586        14.4380 
 242   0.0000       0.537845        14.6355 
 243   0.0000       0.540970        14.7205 
 244   0.0000       0.548103        14.9146 
 245   0.0000       0.555410        15.1135 
 246   0.0000       0.560320        15.2471 
 247   0.0000       0.567118        15.4321 
 248   0.0000       0.572296        15.5730 
 249   0.0000       0.583676        15.8826 
 250   0.0000       0.584963        15.9177 
 251   0.0000       0.591835        16.1046 
 252   0.0000       0.671561        18.2741 
 253   0.0000       0.676264        18.4021 
 254   0.0000       0.686532        18.6815 
 255   0.0000       0.691372        18.8132 
 256   0.0000       0.700146        19.0519 
 257   0.0000       0.716583        19.4992 
 258   0.0000       0.720883        19.6162 
 259   0.0000       0.722078        19.6487 
 260   0.0000       0.730738        19.8844 
 261   0.0000       0.733529        19.9603 
 262   0.0000       0.740026        20.1371 
 263   0.0000       0.753961        20.5163 
 264   0.0000       0.756936        20.5973 
 265   0.0000       0.774561        21.0769 
 266   0.0000       0.784202        21.3392 
 267   0.0000       0.798960        21.7408 
 268   0.0000       0.814646        22.1677 
 269   0.0000       0.817403        22.2427 
 270   0.0000       0.832130        22.6434 
 271   0.0000       0.835060        22.7231 
 272   0.0000       0.839439        22.8423 
 273   0.0000       0.874126        23.7862 
 274   0.0000       0.884859        24.0782 
 275   0.0000       0.899072        24.4650 
 276   0.0000       0.925674        25.1889 
 277   0.0000       0.947079        25.7713 
 278   0.0000       0.953825        25.9549 
 279   0.0000       0.960438        26.1348 
 280   0.0000       0.961717        26.1697 
 281   0.0000       0.968221        26.3466 
 282   0.0000       0.993612        27.0376 
 283   0.0000       1.003041        27.2941 
 284   0.0000       1.023542        27.8520 
 285   0.0000       1.027998        27.9733 
 286   0.0000       1.057825        28.7849 
 287   0.0000       1.082197        29.4481 
 288   0.0000       1.184020        32.2188 
 289   0.0000       1.210585        32.9417 
 290   0.0000       1.235180        33.6110 
 291   0.0000       1.260852        34.3095 
 292   0.0000       1.275068        34.6964 
 293   0.0000       1.280149        34.8346 
 294   0.0000       1.291444        35.1420 
 295   0.0000       1.294482        35.2246 
 296   0.0000       1.320513        35.9330 
 297   0.0000       1.322263        35.9806 
 298   0.0000       1.327298        36.1176 
 299   0.0000       1.337720        36.4012 
 300   0.0000       1.353533        36.8315 
 301   0.0000       1.354858        36.8676 
 302   0.0000       1.357799        36.9476 
 303   0.0000       1.378801        37.5191 
 304   0.0000       1.390836        37.8466 
[...]
      pz      :     2.146386  p :     6.491789
      px      :     2.146917
      py      :     2.198486
      dz2     :     1.993313  d :     9.912084
      dxz     :     1.963077
      dyz     :     1.993212
      dx2y2   :     1.973924
      dxy     :     1.988557
      f0      :     0.000760  f :     0.005492
      f+1     :     0.000859
      f-1     :     0.000943
      f+2     :     0.000789
      f-2     :     0.000615
      f+3     :     0.000927
      f-3     :     0.000601
  1 Aus       :     2.507010  s :     2.507010
      pz      :     2.111157  p :     6.501238
      px      :     2.193801
      py      :     2.196279
      dz2     :     1.966434  d :     9.909236
      dxz     :     1.982723
      dyz     :     1.991977
      dx2y2   :     1.986945
      dxy     :     1.981156
      f0      :     0.000804  f :     0.005533
      f+1     :     0.000834
      f-1     :     0.000795
      f+2     :     0.000721
      f-2     :     0.001018
      f+3     :     0.000835
      f-3     :     0.000526
  2 Aus       :     2.604850  s :     2.604850
      pz      :     2.164576  p :     6.477449
      px      :     2.174422
      py      :     2.138452
      dz2     :     1.991487  d :     9.888138
      dxz     :     1.986383
      dyz     :     1.947551
      dx2y2   :     1.972909
      dxy     :     1.989808
      f0      :     0.000940  f :     0.004814
      f+1     :     0.000628
      f-1     :     0.000730
      f+2     :     0.000578
      f-2     :     0.000524
      f+3     :     0.000808
      f-3     :     0.000606
  3 Aus       :     2.608392  s :     2.608392
      pz      :     2.171564  p :     6.476527
      px      :     2.145110
      py      :     2.159854
      dz2     :     1.963531  d :     9.887170
      dxz     :     1.990354
      dyz     :     1.985487
      dx2y2   :     1.993443
      dxy     :     1.954355
      f0      :     0.000433  f :     0.004788
      f+1     :     0.000658
      f-1     :     0.000750
      f+2     :     0.000750
      f-2     :     0.000569
      f+3     :     0.000697
      f-3     :     0.000931
  4 Aus       :     2.506740  s :     2.506740
      pz      :     2.187286  p :     6.502558
      px      :     2.127337
      py      :     2.187935
      dz2     :     1.983557  d :     9.909089
      dxz     :     1.985983
      dyz     :     1.981373
      dx2y2   :     1.987812
      dxy     :     1.970364
      f0      :     0.000762  f :     0.005543
      f+1     :     0.000714
      f-1     :     0.000763
      f+2     :     0.000697
      f-2     :     0.000905
      f+3     :     0.000709
      f-3     :     0.000993
  5 Aus       :     2.755402  s :     2.755402
      pz      :     2.080357  p :     6.254124
      px      :     2.084140
      py      :     2.089627
      dz2     :     1.985655  d :     9.882414
      dxz     :     1.966827
      dyz     :     1.974780
      dx2y2   :     1.982830
      dxy     :     1.972322
      f0      :     0.000498  f :     0.004463
      f+1     :     0.000314
      f-1     :     0.000619
      f+2     :     0.000599
      f-2     :     0.000899
      f+3     :     0.000847
      f-3     :     0.000688
  6 Aus       :     2.584279  s :     2.584279
      pz      :     2.177146  p :     6.459127
      px      :     2.183651
      py      :     2.098331
      dz2     :     1.981860  d :     9.882247
      dxz     :     1.978928
      dyz     :     1.972718
      dx2y2   :     1.959813
      dxy     :     1.988928
      f0      :     0.001009  f :     0.005444
      f+1     :     0.000653
      f-1     :     0.000690
      f+2     :     0.000688
      f-2     :     0.000862
      f+3     :     0.000716
      f-3     :     0.000826
  7 Aus       :     2.606997  s :     2.606997
      pz      :     2.150612  p :     6.523716
      px      :     2.155386
      py      :     2.217717
      dz2     :     1.979948  d :     9.866137
      dxz     :     1.996675
      dyz     :     1.945049
      dx2y2   :     1.963035
      dxy     :     1.981430
      f0      :     0.000854  f :     0.005944
      f+1     :     0.000505
      f-1     :     0.000855
      f+2     :     0.000935
      f-2     :     0.000978
      f+3     :     0.000886
      f-3     :     0.000930
  8 Aus       :     2.582477  s :     2.582477
      pz      :     2.099609  p :     6.451958
      px      :     2.112668
      py      :     2.239682
      dz2     :     1.945017  d :     9.867636
      dxz     :     1.982981
      dyz     :     1.991930
      dx2y2   :     1.977317
      dxy     :     1.970391
      f0      :     0.000828  f :     0.005252
      f+1     :     0.000656
      f-1     :     0.000859
      f+2     :     0.000676
      f-2     :     0.000956
      f+3     :     0.000631
      f-3     :     0.000647
  9 Aus       :     2.500273  s :     2.500273
      pz      :     2.184954  p :     6.582203
      px      :     2.213763
      py      :     2.183487
      dz2     :     1.999104  d :     9.917263
      dxz     :     1.987856
      dyz     :     1.970190
      dx2y2   :     1.973673
      dxy     :     1.986439
      f0      :     0.000932  f :     0.006131
      f+1     :     0.000581
      f-1     :     0.000711
      f+2     :     0.000675
      f-2     :     0.001288
      f+3     :     0.001034
      f-3     :     0.000910
 10 Aus       :     2.582155  s :     2.582155
      pz      :     2.116793  p :     6.453691
      px      :     2.124574
      py      :     2.212324
      dz2     :     1.971516  d :     9.867096
      dxz     :     1.986244
      dyz     :     1.977109
      dx2y2   :     1.968732
      dxy     :     1.963495
      f0      :     0.000602  f :     0.005263
      f+1     :     0.000533
      f-1     :     0.000614
      f+2     :     0.000715
      f-2     :     0.000846
      f+3     :     0.000860
      f-3     :     0.001093
 11 Aus       :     2.610740  s :     2.610740
      pz      :     2.125838  p :     6.522483
      px      :     2.121488
      py      :     2.275158
      dz2     :     1.968767  d :     9.865249
      dxz     :     1.993673
      dyz     :     1.979694
      dx2y2   :     1.959284
      dxy     :     1.963831
      f0      :     0.000535  f :     0.005926
      f+1     :     0.000594
      f-1     :     0.000926
      f+2     :     0.000763
      f-2     :     0.000654
      f+3     :     0.001182
      f-3     :     0.001272
 12 Fes       :     6.274966  s :     6.274966
      pz      :     4.210162  p :    12.619016
      px      :     4.206610
      py      :     4.202245
      dz2     :     1.449239  d :     7.744336
      dxz     :     1.815806
      dyz     :     1.511026
      dx2y2   :     1.489693
      dxy     :     1.478572
      f0      :     0.000097  f :     0.000596
      f+1     :     0.000101
      f-1     :     0.000073
      f+2     :     0.000098
      f-2     :     0.000056
      f+3     :     0.000062
      f-3     :     0.000109

SPIN
  0 Aus       :    -0.015455  s :    -0.015455
      pz      :    -0.020171  p :    -0.096425
      px      :    -0.020754
      py      :    -0.055500
      dz2     :    -0.003786  d :    -0.018449
      dxz     :    -0.002431
      dyz     :    -0.004065
      dx2y2   :    -0.000599
      dxy     :    -0.007568
      f0      :    -0.000023  f :    -0.000175
      f+1     :    -0.000056
      f-1     :    -0.000019
      f+2     :    -0.000053
      f-2     :    -0.000002
      f+3     :    -0.000011
      f-3     :    -0.000011
  1 Aus       :    -0.078454  s :    -0.078454
      pz      :    -0.011019  p :    -0.037613
      px      :    -0.011801
      py      :    -0.014793
      dz2     :     0.006605  d :    -0.014095
      dxz     :     0.002769
      dyz     :    -0.000535
      dx2y2   :    -0.003404
      dxy     :    -0.019530
      f0      :     0.000006  f :     0.000016
      f+1     :     0.000058
      f-1     :     0.000014
      f+2     :    -0.000008
      f-2     :    -0.000021
      f+3     :    -0.000022
      f-3     :    -0.000012
  2 Aus       :    -0.001349  s :    -0.001349
      pz      :    -0.014671  p :    -0.030321
      px      :    -0.014937
      py      :    -0.000712
      dz2     :    -0.007579  d :    -0.018826
      dxz     :    -0.011520
      dyz     :     0.011325
      dx2y2   :    -0.005163
      dxy     :    -0.005888
      f0      :    -0.000028  f :    -0.000048
      f+1     :    -0.000015
      f-1     :     0.000013
      f+2     :     0.000043
      f-2     :    -0.000004
      f+3     :    -0.000042
      f-3     :    -0.000015
  3 Aus       :     0.003660  s :     0.003660
      pz      :    -0.017557  p :    -0.029417
      px      :    -0.008043
      py      :    -0.003817
      dz2     :    -0.008181  d :    -0.019694
      dxz     :    -0.009089
      dyz     :    -0.005988
      dx2y2   :    -0.006039
      dxy     :     0.009603
      f0      :    -0.000002  f :    -0.000050
      f+1     :     0.000003
      f-1     :    -0.000028
      f+2     :    -0.000036
      f-2     :    -0.000002
      f+3     :    -0.000004
      f-3     :     0.000018
  4 Aus       :    -0.078615  s :    -0.078615
      pz      :    -0.020256  p :    -0.036362
      px      :    -0.008354
      py      :    -0.007752
      dz2     :    -0.005316  d :    -0.014392
      dxz     :    -0.004165
      dyz     :    -0.012912
      dx2y2   :     0.002409
      dxy     :     0.005593
      f0      :    -0.000006  f :     0.000017
      f+1     :    -0.000017
      f-1     :    -0.000028
      f+2     :     0.000002
      f-2     :     0.000011
      f+3     :     0.000000
      f-3     :     0.000053
  5 Aus       :     0.033126  s :     0.033126
      pz      :    -0.004503  p :    -0.005118
      px      :    -0.002237
      py      :     0.001623
      dz2     :     0.000384  d :    -0.024302
      dxz     :    -0.008462
      dyz     :    -0.007496
      dx2y2   :    -0.003605
      dxy     :    -0.005124
      f0      :    -0.000014  f :    -0.000090
      f+1     :     0.000000
      f-1     :     0.000008
      f+2     :    -0.000007
      f-2     :    -0.000063
      f+3     :     0.000003
      f-3     :    -0.000019
  6 Aus       :    -0.075374  s :    -0.075374
      pz      :    -0.034854  p :    -0.067667
      px      :    -0.033588
      py      :     0.000775
      dz2     :     0.001253  d :    -0.006219
      dxz     :    -0.004997
      dyz     :    -0.002764
      dx2y2   :     0.007378
      dxy     :    -0.007089
      f0      :    -0.000005  f :    -0.000020
      f+1     :    -0.000019
      f-1     :    -0.000021
      f+2     :     0.000022
      f-2     :    -0.000003
      f+3     :     0.000003
      f-3     :     0.000002
  7 Aus       :     0.003753  s :     0.003753
      pz      :    -0.009320  p :    -0.023916
      px      :    -0.016677
      py      :     0.002080
      dz2     :     0.000636  d :    -0.008832
      dxz     :    -0.013281
      dyz     :     0.016322
      dx2y2   :    -0.009998
      dxy     :    -0.002511
      f0      :    -0.000008  f :     0.000011
      f+1     :    -0.000014
      f-1     :     0.000038
      f+2     :     0.000045
      f-2     :    -0.000014
      f+3     :    -0.000005
      f-3     :    -0.000031
  8 Aus       :    -0.084357  s :    -0.084357
      pz      :    -0.006579  p :    -0.049459
      px      :    -0.023672
      py      :    -0.019208
      dz2     :     0.017169  d :     0.001627
      dxz     :    -0.005834
      dyz     :    -0.000706
      dx2y2   :     0.001314
      dxy     :    -0.010317
      f0      :     0.000075  f :     0.000154
      f+1     :     0.000038
      f-1     :     0.000068
      f+2     :    -0.000006
      f-2     :    -0.000024
      f+3     :     0.000000
      f-3     :     0.000004
  9 Aus       :    -0.081034  s :    -0.081034
      pz      :    -0.024645  p :    -0.041034
      px      :    -0.023673
      py      :     0.007283
      dz2     :     0.002121  d :     0.011539
      dxz     :    -0.004834
      dyz     :     0.005956
      dx2y2   :     0.006315
      dxy     :     0.001982
      f0      :     0.000003  f :     0.000031
      f+1     :    -0.000011
      f-1     :    -0.000012
      f+2     :     0.000031
      f-2     :     0.000004
      f+3     :    -0.000002
      f-3     :     0.000018
 10 Aus       :    -0.083963  s :    -0.083963
      pz      :    -0.031167  p :    -0.047247
      px      :    -0.004117
      py      :    -0.011964
      dz2     :     0.002699  d :     0.001174
      dxz     :    -0.011342
      dyz     :    -0.007154
      dx2y2   :     0.008060
      dxy     :     0.008910
      f0      :    -0.000004  f :     0.000155
      f+1     :     0.000010
      f-1     :     0.000006
      f+2     :    -0.000008
      f-2     :    -0.000002
      f+3     :     0.000024
      f-3     :     0.000128
 11 Aus       :     0.007915  s :     0.007915
      pz      :    -0.019164  p :    -0.022851
      px      :    -0.003328
      py      :    -0.000359
      dz2     :    -0.005358  d :    -0.009265
      dxz     :    -0.010310
      dyz     :    -0.005776
      dx2y2   :     0.002503
      dxy     :     0.009676
      f0      :     0.000000  f :     0.000007
      f+1     :     0.000002
      f-1     :    -0.000010
      f+2     :    -0.000019
      f-2     :    -0.000014
      f+3     :     0.000020
      f-3     :     0.000028
 12 Fes       :     0.010613  s :     0.010613
      pz      :     0.002780  p :     0.010059
      px      :     0.002515
      py      :     0.004764
      dz2     :     0.694278  d :     3.036602
      dxz     :     0.286900
      dyz     :     0.660267
      dx2y2   :     0.706404
      dxy     :     0.688753
      f0      :     0.000000  f :     0.000027
      f+1     :     0.000003
      f-1     :     0.000005
      f+2     :     0.000009
      f-2     :    -0.000000
      f+3     :     0.000004
      f-3     :     0.000006


                      *****************************
                      * MAYER POPULATION ANALYSIS *
                      *****************************

  NA   - Mulliken gross atomic population
  ZA   - Total nuclear charge
  QA   - Mulliken gross atomic charge
  VA   - Mayer's total valence
  BVA  - Mayer's bonded valence
  FA   - Mayer's free valence

  ATOM       NA         ZA         QA         VA         BVA        FA
  0 Au    18.6794    19.0000     0.3206     1.5413     1.5345     0.0067
  1 Au    18.7164    19.0000     0.2836     1.5348     1.5040     0.0309
  2 Au    18.8603    19.0000     0.1397     1.5449     1.5359     0.0091
  3 Au    18.8654    19.0000     0.1346     1.5435     1.5344     0.0091
  4 Au    18.7169    19.0000     0.2831     1.5377     1.5069     0.0309
  5 Au    18.6478    19.0000     0.3522     1.4048     1.3997     0.0050
  6 Au    18.7358    19.0000     0.2642     1.5324     1.4972     0.0352
  7 Au    18.9946    19.0000     0.0054     1.7182     1.7092     0.0089
  8 Au    18.6928    19.0000     0.3072     1.4969     1.4601     0.0368
  9 Au    18.9868    19.0000     0.0132     1.9105     1.8672     0.0433
 10 Au    18.6931    19.0000     0.3069     1.4997     1.4633     0.0365
 11 Au    18.9988    19.0000     0.0012     1.7131     1.7035     0.0095
 12 Fe    28.4121    26.0000    -2.4121     8.2015     5.7456     2.4560

  Mayer bond orders larger than 0.100000
B(  0-Au,  1-Au) :   0.1550 B(  0-Au,  2-Au) :   0.1843 B(  0-Au,  3-Au) :   0.1830 
B(  0-Au,  4-Au) :   0.1534 B(  0-Au,  9-Au) :   0.2636 B(  0-Au, 12-Fe) :   0.4082 
B(  1-Au,  2-Au) :   0.1972 B(  1-Au,  9-Au) :   0.1465 B(  1-Au, 10-Au) :   0.1102 
B(  1-Au, 11-Au) :   0.1648 B(  1-Au, 12-Fe) :   0.5638 B(  2-Au,  3-Au) :   0.1002 
B(  2-Au,  6-Au) :   0.2278 B(  2-Au, 10-Au) :   0.1007 B(  2-Au, 12-Fe) :   0.5084 
B(  3-Au,  4-Au) :   0.2040 B(  3-Au,  6-Au) :   0.2218 B(  3-Au, 12-Fe) :   0.5067 
B(  4-Au,  7-Au) :   0.1620 B(  4-Au,  8-Au) :   0.1095 B(  4-Au,  9-Au) :   0.1488 
B(  4-Au, 12-Fe) :   0.5619 B(  5-Au,  7-Au) :   0.3463 B(  5-Au,  9-Au) :   0.3711 
B(  5-Au, 11-Au) :   0.3468 B(  6-Au,  8-Au) :   0.1743 B(  6-Au, 10-Au) :   0.1758 
B(  6-Au, 12-Fe) :   0.4871 B(  7-Au,  8-Au) :   0.3026 B(  7-Au,  9-Au) :   0.1480 
B(  7-Au, 12-Fe) :   0.4992 B(  8-Au, 12-Fe) :   0.5564 B(  9-Au, 11-Au) :   0.1410 
B(  9-Au, 12-Fe) :   0.5143 B( 10-Au, 11-Au) :   0.3028 B( 10-Au, 12-Fe) :   0.5557 
B( 11-Au, 12-Fe) :   0.4967 

-------
TIMINGS
-------

Total SCF time: 0 days 0 hours 3 min 11 sec 

Total time                  ....     191.486 sec
Sum of individual times     ....     189.146 sec  ( 98.8%)

Fock matrix formation       ....     179.005 sec  ( 93.5%)
  Split-RI-J                ....      32.944 sec  ( 18.4% of F)
  XC integration            ....     145.070 sec  ( 81.0% of F)
    Basis function eval.    ....       9.192 sec  (  6.3% of XC)
    Density eval.           ....      72.725 sec  ( 50.1% of XC)
    XC-Functional eval.     ....       4.938 sec  (  3.4% of XC)
    XC-Potential eval.      ....      56.200 sec  ( 38.7% of XC)
Diagonalization             ....       7.699 sec  (  4.0%)
Density matrix formation    ....       0.331 sec  (  0.2%)
Population analysis         ....       0.194 sec  (  0.1%)
Initial guess               ....       0.295 sec  (  0.2%)
Orbital Transformation      ....       0.000 sec  (  0.0%)
Orbital Orthonormalization  ....       0.256 sec  (  0.1%)
DIIS solution               ....       0.000 sec  (  0.0%)
Grid generation             ....       1.622 sec  (  0.8%)

Maximum memory used throughout the entire SCF-calculation: 82.7 MB

-------------------------   --------------------
FINAL SINGLE POINT ENERGY     -2893.834810231282
-------------------------   --------------------


                            ***************************************
                            *     ORCA property calculations      *
                            ***************************************

                                    ---------------------
                                    Active property flags
                                    ---------------------
   (+) Dipole Moment


------------------------------------------------------------------------------
                       ORCA ELECTRIC PROPERTIES CALCULATION
------------------------------------------------------------------------------

Dipole Moment Calculation                       ... on
Quadrupole Moment Calculation                   ... off
Polarizability Calculation                      ... off
GBWName                                         ... scan_job2.gbw
Electron density                                ... scan_job2.scfp
The origin for moment calculation is the CENTER OF MASS  = (17.424821, 13.084697 16.163314)

-------------
DIPOLE MOMENT
-------------
                                X             Y             Z
Electronic contribution:      1.61915     -12.38425       4.26336
Nuclear contribution   :     -1.48228      12.14439      -4.07619
                        -----------------------------------------
Total Dipole Moment    :      0.13687      -0.23986       0.18718
                        -----------------------------------------
Magnitude (a.u.)       :      0.33362
Magnitude (Debye)      :      0.84799



--------------------
Rotational spectrum 
--------------------
 
Rotational constants in cm-1:     0.001661     0.001253     0.001135 
Rotational constants in MHz :    49.798106    37.551520    34.016742 

 Dipole components along the rotational axes: 
x,y,z [a.u.] :    -0.175522    -0.002024     0.283705 
x,y,z [Debye]:    -0.446140    -0.005144     0.721121 

 

Timings for individual modules:

Sum of individual times         ...      201.268 sec (=   3.354 min)
GTO integral calculation        ...        9.577 sec (=   0.160 min)   4.8 %
SCF iterations                  ...      191.691 sec (=   3.195 min)  95.2 %



                             ****ORCA TERMINATED NORMALLY****
TOTAL RUN TIME: 0 days 0 hours 8 minutes 25 seconds 890 msec
