
                                 *****************
                                 * O   R   C   A *
                                 *****************

                                            #,                                       
                                            ###                                      
                                            ####                                     
                                            #####                                    
                                            ######                                   
                                           ########,                                 
                                     ,,################,,,,,                         
                               ,,#################################,,                 
                          ,,##########################################,,             
                       ,#########################################, ''#####,          
                    ,#############################################,,   '####,        
                  ,##################################################,,,,####,       
                ,###########''''           ''''###############################       
              ,#####''   ,,,,##########,,,,          '''####'''          '####       
            ,##' ,,,,###########################,,,                        '##       
           ' ,,###''''                  '''############,,,                           
         ,,##''                                '''############,,,,        ,,,,,,###''
      ,#''                                            '''#######################'''  
     '                                                          ''''####''''         
             ,#######,   #######,   ,#######,      ##                                
            ,#'     '#,  ##    ##  ,#'     '#,    #''#        ######   ,####,        
            ##       ##  ##   ,#'  ##            #'  '#       #        #'  '#        
            ##       ##  #######   ##           ,######,      #####,   #    #        
            '#,     ,#'  ##    ##  '#,     ,#' ,#      #,         ##   #,  ,#        
             '#######'   ##     ##  '#######'  #'      '#     #####' # '####'        



                  #######################################################
                  #                        -***-                        #
                  #          Department of theory and spectroscopy      #
                  #    Directorship and core code : Frank Neese         #
                  #        Max Planck Institute fuer Kohlenforschung    #
                  #                Kaiser Wilhelm Platz 1               #
                  #                 D-45470 Muelheim/Ruhr               #
                  #                      Germany                        #
                  #                                                     #
                  #                  All rights reserved                #
                  #                        -***-                        #
                  #######################################################


                         Program Version 5.0.3 -  RELEASE  -


 With contributions from (in alphabetic order):
   Daniel Aravena         : Magnetic Suceptibility
   Michael Atanasov       : Ab Initio Ligand Field Theory (pilot matlab implementation)
   Alexander A. Auer      : GIAO ZORA, VPT2 properties, NMR spectrum
   Ute Becker             : Parallelization
   Giovanni Bistoni       : ED, misc. LED, open-shell LED, HFLD
   Martin Brehm           : Molecular dynamics
   Dmytro Bykov           : SCF Hessian
   Vijay G. Chilkuri      : MRCI spin determinant printing, contributions to CSF-ICE
   Dipayan Datta          : RHF DLPNO-CCSD density
   Achintya Kumar Dutta   : EOM-CC, STEOM-CC
   Dmitry Ganyushin       : Spin-Orbit,Spin-Spin,Magnetic field MRCI
   Miquel Garcia          : C-PCM and meta-GGA Hessian, CC/C-PCM, Gaussian charge scheme
   Yang Guo               : DLPNO-NEVPT2, F12-NEVPT2, CIM, IAO-localization
   Andreas Hansen         : Spin unrestricted coupled pair/coupled cluster methods
   Benjamin Helmich-Paris : MC-RPA, TRAH-SCF, COSX integrals
   Lee Huntington         : MR-EOM, pCC
   Robert Izsak           : Overlap fitted RIJCOSX, COSX-SCS-MP3, EOM
   Marcus Kettner         : VPT2
   Christian Kollmar      : KDIIS, OOCD, Brueckner-CCSD(T), CCSD density, CASPT2, CASPT2-K
   Simone Kossmann        : Meta GGA functionals, TD-DFT gradient, OOMP2, MP2 Hessian
   Martin Krupicka        : Initial AUTO-CI
   Lucas Lang             : DCDCAS
   Marvin Lechner         : AUTO-CI (C++ implementation), FIC-MRCC
   Dagmar Lenk            : GEPOL surface, SMD
   Dimitrios Liakos       : Extrapolation schemes; Compound Job, initial MDCI parallelization
   Dimitrios Manganas     : Further ROCIS development; embedding schemes
   Dimitrios Pantazis     : SARC Basis sets
   Anastasios Papadopoulos: AUTO-CI, single reference methods and gradients
   Taras Petrenko         : DFT Hessian,TD-DFT gradient, ASA, ECA, R-Raman, ABS, FL, XAS/XES, NRVS
   Peter Pinski           : DLPNO-MP2, DLPNO-MP2 Gradient
   Christoph Reimann      : Effective Core Potentials
   Marius Retegan         : Local ZFS, SOC
   Christoph Riplinger    : Optimizer, TS searches, QM/MM, DLPNO-CCSD(T), (RO)-DLPNO pert. Triples
   Tobias Risthaus        : Range-separated hybrids, TD-DFT gradient, RPA, STAB
   Michael Roemelt        : Original ROCIS implementation
   Masaaki Saitow         : Open-shell DLPNO-CCSD energy and density
   Barbara Sandhoefer     : DKH picture change effects
   Avijit Sen             : IP-ROCIS
   Kantharuban Sivalingam : CASSCF convergence, NEVPT2, FIC-MRCI
   Bernardo de Souza      : ESD, SOC TD-DFT
   Georgi Stoychev        : AutoAux, RI-MP2 NMR, DLPNO-MP2 response
   Willem Van den Heuvel  : Paramagnetic NMR
   Boris Wezisla          : Elementary symmetry handling
   Frank Wennmohs         : Technical directorship


 We gratefully acknowledge several colleagues who have allowed us to
 interface, adapt or use parts of their codes:
   Stefan Grimme, W. Hujo, H. Kruse, P. Pracht,  : VdW corrections, initial TS optimization,
                  C. Bannwarth, S. Ehlert          DFT functionals, gCP, sTDA/sTD-DF
   Ed Valeev, F. Pavosevic, A. Kumar             : LibInt (2-el integral package), F12 methods
   Garnet Chan, S. Sharma, J. Yang, R. Olivares  : DMRG
   Ulf Ekstrom                                   : XCFun DFT Library
   Mihaly Kallay                                 : mrcc  (arbitrary order and MRCC methods)
   Jiri Pittner, Ondrej Demel                    : Mk-CCSD
   Frank Weinhold                                : gennbo (NPA and NBO analysis)
   Christopher J. Cramer and Donald G. Truhlar   : smd solvation model
   Lars Goerigk                                  : TD-DFT with DH, B97 family of functionals
   V. Asgeirsson, H. Jonsson                     : NEB implementation
   FAccTs GmbH                                   : IRC, NEB, NEB-TS, DLPNO-Multilevel, CI-OPT
                                                   MM, QMMM, 2- and 3-layer-ONIOM, Crystal-QMMM,
                                                   LR-CPCM, SF, NACMEs, symmetry and pop. for TD-DFT,
                                                   nearIR, NL-DFT gradient (VV10), updates on ESD,
                                                   ML-optimized integration grids
   S Lehtola, MJT Oliveira, MAL Marques          : LibXC Library
   Liviu Ungur et al                             : ANISO software


 Your calculation uses the libint2 library for the computation of 2-el integrals
 For citations please refer to: http://libint.valeyev.net

 Your ORCA version has been built with support for libXC version: 5.1.0
 For citations please refer to: https://tddft.org/programs/libxc/

 This ORCA versions uses:
   CBLAS   interface :  Fast vector & matrix operations
   LAPACKE interface :  Fast linear algebra routines
   SCALAPACK package :  Parallel linear algebra routines
   Shared memory     :  Shared parallel matrices
   BLAS/LAPACK       :  OpenBLAS 0.3.15  USE64BITINT DYNAMIC_ARCH NO_AFFINITY Sandybridge SINGLE_THREADED
        Core in use  :  Sandybridge
   Copyright (c) 2011-2014, The OpenBLAS Project




***************************************
The coordinates will be read from file: pbe.xyz
***************************************


================================================================================

cite the ECPs for Au [Def2-ECP] as follows:
Ce-Yb(ecp-28): M. Dolg, H. Stoll, H.Preuss, J. Chem. Phys., 1989, 90, 1730-1734.
Y-Cd(ecp-28), Hf-Hg(ecp-46): D. Andrae,U. Haeussermann, M. Dolg, H. Stoll, H. Preuss, Theor. Chim. Acta, 1990, 77, 123-141.
In-Sb(ecp-28), Tl-Bi(ecp-46): B. Metz, H. Stoll, M. Dolg, J. Chem. Phys., 2000, 113, 2563-2569.
Te-Xe(ecp-28), Po-Rn(ecp-46): K. A. Peterson, D. Figgen, E. Goll, H. Stoll, M. Dolg, J. Chem. Phys., 2003, 119, 11113-11123.
Rb(ecp-28), Cs(ecp-46): T. Leininger, A. Nicklass, W. Kuechle, H. Stoll, M. Dolg, A. Bergner, Chem. Phys. Lett., 1996, 255, 274-280.
Sr(ecp-28), Ba(ecp-46): M. Kaupp, P. V. Schleyer, H. Stoll and H. Preuss, J. Chem. Phys., 1991, 94, 1360-1366.
La(ecp-46): M. Dolg, H. Stoll, A. Savin, H. Preuss, Theor. Chim. Acta, 1989, 75, 173-194.
Lu(ecp-28): X. Cao, M. Dolg, J. Chem. Phys., 2001, 115, 7348-7355.

ECP parameters for Au [Def2-ECP] have been obtained from:
TURBOMOLE (7.0.2)

----- Orbital basis set information -----
Your calculation utilizes the basis: def2-TZVP
   F. Weigend and R. Ahlrichs, Phys. Chem. Chem. Phys. 7, 3297 (2005).

----- AuxJ basis set information -----
Your calculation utilizes the auxiliary basis: def2/J
   F. Weigend, Phys. Chem. Chem. Phys. 8, 1057 (2006).

================================================================================
                                        WARNINGS
                       Please study these warnings very carefully!
================================================================================

Using LibXC functional ID 497 : Re-regularized SCAN exchange by Furness et al
[ 1]  J. W. Furness, A. D. Kaplan, J. Ning, J. P. Perdew, and J. Sun, J. Phys. Chem. Lett. 11, 8208 (2020)
[ 2]  J. W. Furness, A. D. Kaplan, J. Ning, J. P. Perdew, and J. Sun, J. Phys. Chem. Lett. 11, 9248 (2020)
Using LibXC functional ID 498 : Re-regularized SCAN correlation by Furness et al
[ 1]  J. W. Furness, A. D. Kaplan, J. Ning, J. P. Perdew, and J. Sun, J. Phys. Chem. Lett. 11, 8208 (2020)
[ 2]  J. W. Furness, A. D. Kaplan, J. Ning, J. P. Perdew, and J. Sun, J. Phys. Chem. Lett. 11, 9248 (2020)
Using LibXC functional ID 497 : Re-regularized SCAN exchange by Furness et al
[ 1]  J. W. Furness, A. D. Kaplan, J. Ning, J. P. Perdew, and J. Sun, J. Phys. Chem. Lett. 11, 8208 (2020)
[ 2]  J. W. Furness, A. D. Kaplan, J. Ning, J. P. Perdew, and J. Sun, J. Phys. Chem. Lett. 11, 9248 (2020)
Using LibXC functional ID 498 : Re-regularized SCAN correlation by Furness et al
[ 1]  J. W. Furness, A. D. Kaplan, J. Ning, J. P. Perdew, and J. Sun, J. Phys. Chem. Lett. 11, 8208 (2020)
[ 2]  J. W. Furness, A. D. Kaplan, J. Ning, J. P. Perdew, and J. Sun, J. Phys. Chem. Lett. 11, 9248 (2020)

WARNING: your system is open-shell and RHF/RKS was chosen
  ===> : WILL SWITCH to UHF/UKS


INFO   : the flag for use of the SHARK integral package has been found!



***************************************
The coordinates will be read from file: pbe.xyz
***************************************


================================================================================

cite the ECPs for Au [Def2-ECP] as follows:
Ce-Yb(ecp-28): M. Dolg, H. Stoll, H.Preuss, J. Chem. Phys., 1989, 90, 1730-1734.
Y-Cd(ecp-28), Hf-Hg(ecp-46): D. Andrae,U. Haeussermann, M. Dolg, H. Stoll, H. Preuss, Theor. Chim. Acta, 1990, 77, 123-141.
In-Sb(ecp-28), Tl-Bi(ecp-46): B. Metz, H. Stoll, M. Dolg, J. Chem. Phys., 2000, 113, 2563-2569.
Te-Xe(ecp-28), Po-Rn(ecp-46): K. A. Peterson, D. Figgen, E. Goll, H. Stoll, M. Dolg, J. Chem. Phys., 2003, 119, 11113-11123.
Rb(ecp-28), Cs(ecp-46): T. Leininger, A. Nicklass, W. Kuechle, H. Stoll, M. Dolg, A. Bergner, Chem. Phys. Lett., 1996, 255, 274-280.
Sr(ecp-28), Ba(ecp-46): M. Kaupp, P. V. Schleyer, H. Stoll and H. Preuss, J. Chem. Phys., 1991, 94, 1360-1366.
La(ecp-46): M. Dolg, H. Stoll, A. Savin, H. Preuss, Theor. Chim. Acta, 1989, 75, 173-194.
Lu(ecp-28): X. Cao, M. Dolg, J. Chem. Phys., 2001, 115, 7348-7355.

ECP parameters for Au [Def2-ECP] have been obtained from:
TURBOMOLE (7.0.2)

----- Orbital basis set information -----
Your calculation utilizes the basis: def2-TZVP
   F. Weigend and R. Ahlrichs, Phys. Chem. Chem. Phys. 7, 3297 (2005).

----- AuxJ basis set information -----
Your calculation utilizes the auxiliary basis: def2/J
   F. Weigend, Phys. Chem. Chem. Phys. 8, 1057 (2006).

================================================================================
                                        WARNINGS
                       Please study these warnings very carefully!
================================================================================

Using LibXC functional ID 497 : Re-regularized SCAN exchange by Furness et al
[ 1]  J. W. Furness, A. D. Kaplan, J. Ning, J. P. Perdew, and J. Sun, J. Phys. Chem. Lett. 11, 8208 (2020)
[ 2]  J. W. Furness, A. D. Kaplan, J. Ning, J. P. Perdew, and J. Sun, J. Phys. Chem. Lett. 11, 9248 (2020)
Using LibXC functional ID 498 : Re-regularized SCAN correlation by Furness et al
[ 1]  J. W. Furness, A. D. Kaplan, J. Ning, J. P. Perdew, and J. Sun, J. Phys. Chem. Lett. 11, 8208 (2020)
[ 2]  J. W. Furness, A. D. Kaplan, J. Ning, J. P. Perdew, and J. Sun, J. Phys. Chem. Lett. 11, 9248 (2020)
Using LibXC functional ID 497 : Re-regularized SCAN exchange by Furness et al
[ 1]  J. W. Furness, A. D. Kaplan, J. Ning, J. P. Perdew, and J. Sun, J. Phys. Chem. Lett. 11, 8208 (2020)
[ 2]  J. W. Furness, A. D. Kaplan, J. Ning, J. P. Perdew, and J. Sun, J. Phys. Chem. Lett. 11, 9248 (2020)
Using LibXC functional ID 498 : Re-regularized SCAN correlation by Furness et al
[ 1]  J. W. Furness, A. D. Kaplan, J. Ning, J. P. Perdew, and J. Sun, J. Phys. Chem. Lett. 11, 8208 (2020)
[ 2]  J. W. Furness, A. D. Kaplan, J. Ning, J. P. Perdew, and J. Sun, J. Phys. Chem. Lett. 11, 9248 (2020)

INFO   : the flag for use of the SHARK integral package has been found!

================================================================================
                                       INPUT FILE
================================================================================
NAME = scan.inp
|  1> !R2SCAN def2-TZVP VERYSLOWCONV
|  2> !KDIIS
|  3> %scf
|  4>   AutoTRAHIter 200
|  5>   maxiter 400
|  6> end
|  7> 
|  8> %pal nprocs 6 end 
|  9> 
| 10> *xyzfile 0 5 pbe.xyz
| 11> 
| 12> $new_job
| 13> 
| 14> !R2SCAN def2-TZVP VERYSLOWCONV
| 15> !KDIIS
| 16> %scf
| 17>   AutoTRAHIter 200
| 18>   maxiter 400
| 19> end
| 20> 
| 21> 
| 22> %pal nprocs 6 end 
| 23> 
| 24> *xyzfile 0 3 pbe.xyz
| 25> 
| 26> 
| 27> 
| 28> 
| 29> 
| 30>                          ****END OF INPUT****
================================================================================


                 $$$$$$$$$$$$$$$$$$$$$$$$$$$$$$$$$$$$$$$$$$$$$$ 
                 $ THERE ARE  2 JOBS TO BE PROCESSED THIS RUN $
                 $$$$$$$$$$$$$$$$$$$$$$$$$$$$$$$$$$$$$$$$$$$$$$ 




                 $$$$$$$$$$$$$$$$  JOB NUMBER  1 $$$$$$$$$$$$$$


                       ****************************
                       * Single Point Calculation *
                       ****************************

---------------------------------
CARTESIAN COORDINATES (ANGSTROEM)
---------------------------------
  Au     7.154456    5.719346   10.201053
  Au     5.411668    6.525784    8.158818
  Au     8.060921    6.764405    7.208150
  Au     6.855018    8.619266    9.161391
  Au     7.100215    4.182979    7.902725
  Au    11.919587    9.210122    9.488346
  Au    11.613728    6.402348    9.643917
  Au     7.827984    7.805347   11.804689
  Au    10.527083    8.175639   11.644060
  Au    10.383421    8.101746    7.457311
  Au     9.608414    4.802014    8.831469
  Au     9.182435    9.905404    9.728240
  Fe     9.154651    7.297531    9.568339

----------------------------
CARTESIAN COORDINATES (A.U.)
----------------------------
  NO LB      ZA    FRAG     MASS         X           Y           Z
   0 Au   19.0000*   0   196.966   13.519963   10.807998   19.277197
   1 Au   19.0000*   0   196.966   10.226570   12.331944   15.417932
   2 Au   19.0000*   0   196.966   15.232934   12.782872   13.621429
   3 Au   19.0000*   0   196.966   12.954107   16.288052   17.312520
   4 Au   19.0000*   0   196.966   13.417463    7.904685   14.933986
   5 Au   19.0000*   0   196.966   22.524756   17.404608   17.930375
   6 Au   19.0000*   0   196.966   21.946766   12.098685   18.224363
   7 Au   19.0000*   0   196.966   14.792746   14.749967   22.307630
   8 Au   19.0000*   0   196.966   19.893303   15.449719   22.004085
   9 Au   19.0000*   0   196.966   19.621821   15.310081   14.092275
  10 Au   19.0000*   0   196.966   18.157271    9.074491   16.689058
  11 Au   19.0000*   0   196.966   17.352287   18.718501   18.383710
  12 Fe   26.0000    0    55.850   17.299784   13.790336   18.081541
* core charge reduced due to ECP

--------------------------------
INTERNAL COORDINATES (ANGSTROEM)
--------------------------------
 Au     0   0   0     0.000000000000     0.00000000     0.00000000
 Au     1   0   0     2.803279957109     0.00000000     0.00000000
 Au     2   1   0     2.824757531582    71.72444858     0.00000000
 Au     2   1   3     2.733327760627    67.96499276   291.23857063
 Au     1   2   3     2.765082068138    62.74870245   295.09246029
 Au     3   2   1     5.105891442239   126.79411729   308.13483218
 Au     6   3   2     2.828664439634    57.81763219    99.78920047
 Au     1   2   3     2.716005415767   111.30723030    90.98462325
 Au     8   1   2     2.729111826239   108.34362341   241.74770620
 Au     3   2   1     2.691573239551   145.09327472   292.02623339
 Au     7   6   3     2.691175638334   130.86172312   352.30750600
 Au     4   2   1     2.718885376983   152.97428603    59.49890399
 Fe    10   3   2     2.571590256131    60.54783457    45.76691220

---------------------------
INTERNAL COORDINATES (A.U.)
---------------------------
 Au     0   0   0     0.000000000000     0.00000000     0.00000000
 Au     1   0   0     5.297431395646     0.00000000     0.00000000
 Au     2   1   0     5.338018129422    71.72444858     0.00000000
 Au     2   1   3     5.165240901829    67.96499276   291.23857063
 Au     1   2   3     5.225247846597    62.74870245   295.09246029
 Au     3   2   1     9.648736495363   126.79411729   308.13483218
 Au     6   3   2     5.345401115670    57.81763219    99.78920047
 Au     1   2   3     5.132506414047   111.30723030    90.98462325
 Au     8   1   2     5.157273940437   108.34362341   241.74770620
 Au     3   2   1     5.086336292143   145.09327472   292.02623339
 Au     7   6   3     5.085584934732   130.86172312   352.30750600
 Au     4   2   1     5.137948752022   152.97428603    59.49890399
 Fe    10   3   2     4.859601312749    60.54783457    45.76691220

---------------------
BASIS SET INFORMATION
---------------------
There are 2 groups of distinct atoms

 Group   1 Type Au  : 8s7p6d1f contracted to 6s4p3d1f pattern {311111/4111/411/1}
 Group   2 Type Fe  : 17s11p7d1f contracted to 6s4p4d1f pattern {842111/6311/4111/1}

Atom   0Au   basis set group =>   1
Atom   1Au   basis set group =>   1
Atom   2Au   basis set group =>   1
Atom   3Au   basis set group =>   1
Atom   4Au   basis set group =>   1
Atom   5Au   basis set group =>   1
Atom   6Au   basis set group =>   1
Atom   7Au   basis set group =>   1
Atom   8Au   basis set group =>   1
Atom   9Au   basis set group =>   1
Atom  10Au   basis set group =>   1
Atom  11Au   basis set group =>   1
Atom  12Fe   basis set group =>   2
---------------------------------
AUXILIARY/J BASIS SET INFORMATION
---------------------------------
There are 2 groups of distinct atoms

 Group   1 Type Au  : 11s5p5d3f3g contracted to 8s5p5d2f3g pattern {41111111/11111/11111/21/111}
 Group   2 Type Fe  : 19s5p5d3f3g contracted to 8s5p5d2f3g pattern {121111111/11111/11111/21/111}

Atom   0Au   basis set group =>   1
Atom   1Au   basis set group =>   1
Atom   2Au   basis set group =>   1
Atom   3Au   basis set group =>   1
Atom   4Au   basis set group =>   1
Atom   5Au   basis set group =>   1
Atom   6Au   basis set group =>   1
Atom   7Au   basis set group =>   1
Atom   8Au   basis set group =>   1
Atom   9Au   basis set group =>   1
Atom  10Au   basis set group =>   1
Atom  11Au   basis set group =>   1
Atom  12Fe   basis set group =>   2
-------------------------
ECP PARAMETER INFORMATION
-------------------------

 Group 1, Type Au ECP Def2-ECP (replacing 60 core electrons, lmax=3)

Atom   0Au   ECP group =>   1
Atom   1Au   ECP group =>   1
Atom   2Au   ECP group =>   1
Atom   3Au   ECP group =>   1
Atom   4Au   ECP group =>   1
Atom   5Au   ECP group =>   1
Atom   6Au   ECP group =>   1
Atom   7Au   ECP group =>   1
Atom   8Au   ECP group =>   1
Atom   9Au   ECP group =>   1
Atom  10Au   ECP group =>   1
Atom  11Au   ECP group =>   1



           ************************************************************
           *        Program running with 6 parallel MPI-processes     *
           *              working on a common directory               *
           ************************************************************
------------------------------------------------------------------------------
                           ORCA GTO INTEGRAL CALCULATION
                           -- RI-GTO INTEGRALS CHOSEN --
------------------------------------------------------------------------------
------------------------------------------------------------------------------
                   ___                                                        
                  /   \      - P O W E R E D   B Y -                         
                 /     \                                                     
                 |  |  |   _    _      __       _____    __    __             
                 |  |  |  | |  | |    /  \     |  _  \  |  |  /  |          
                  \  \/   | |  | |   /    \    | | | |  |  | /  /          
                 / \  \   | |__| |  /  /\  \   | |_| |  |  |/  /          
                |  |  |   |  __  | /  /__\  \  |    /   |      \           
                |  |  |   | |  | | |   __   |  |    \   |  |\   \          
                \     /   | |  | | |  |  |  |  | |\  \  |  | \   \       
                 \___/    |_|  |_| |__|  |__|  |_| \__\ |__|  \__/        
                                                                              
                      - O R C A' S   B I G   F R I E N D -                    
                                      &                                       
                       - I N T E G R A L  F E E D E R -                       
                                                                              
 v1 FN, 2020, v2 2021                                                         
------------------------------------------------------------------------------


Reading SHARK input file scan.SHARKINP.tmp ... ok
----------------------
SHARK INTEGRAL PACKAGE
----------------------

Number of atoms                             ...     13
Number of basis functions                   ...    525
Number of shells                            ...    183
Maximum angular momentum                    ...      3
Integral batch strategy                     ... SHARK/LIBINT Hybrid
RI-J (if used) integral strategy            ... SPLIT-RIJ (Revised 2003 algorithm where possible)
Printlevel                                  ...      1
Contraction scheme used                     ... SEGMENTED contraction
Coulomb Range Separation                    ... NOT USED
Exchange Range Separation                   ... NOT USED
Finite Nucleus Model                        ... NOT USED
Auxiliary Coulomb fitting basis             ... AVAILABLE
   # of basis functions in Aux-J            ...   1157
   # of shells in Aux-J                     ...    299
   Maximum angular momentum in Aux-J        ...      4
Auxiliary J/K fitting basis                 ... NOT available
Auxiliary Correlation fitting basis         ... NOT available
Auxiliary 'external' fitting basis          ... NOT available
Integral threshold                          ...     1.000000e-10
Primitive cut-off                           ...     1.000000e-11
Primitive pair pre-selection threshold      ...     1.000000e-11

Calculating pre-screening integrals         ... done (  0.2 sec) Dimension = 183
Organizing shell pair data                  ... done (  0.5 sec)
Shell pair information
Total number of shell pairs                 ...     16836
Shell pairs after pre-screening             ...     13607
Total number of primitive shell pairs       ...     45389
Primitive shell pairs kept                  ...     26801
          la=0 lb=0:   2139 shell pairs
          la=1 lb=0:   3115 shell pairs
          la=1 lb=1:   1172 shell pairs
          la=2 lb=0:   2695 shell pairs
          la=2 lb=1:   1896 shell pairs
          la=2 lb=2:    782 shell pairs
          la=3 lb=0:    720 shell pairs
          la=3 lb=1:    545 shell pairs
          la=3 lb=2:    466 shell pairs
          la=3 lb=3:     77 shell pairs

Calculating one electron integrals          ... done (  0.0 sec)
Calculating ECP integrals                   ... done ( 15.8 sec)
Calculating RI/J V-Matrix + Cholesky decomp.... done (  0.1 sec)
Calculating Nuclear repulsion               ... done (  0.0 sec) ENN=   4401.000801410417 Eh

SHARK setup successfully completed in  17.1 seconds

Maximum memory used throughout the entire GTOINT-calculation: 30.6 MB


           ************************************************************
           *        Program running with 6 parallel MPI-processes     *
           *              working on a common directory               *
           ************************************************************
-------------------------------------------------------------------------------
                                 ORCA SCF
-------------------------------------------------------------------------------

------------
SCF SETTINGS
------------
Hamiltonian:
 Density Functional     Method          .... DFT(GTOs)
  Functional kind                       .... Exchange
  Functional name                       .... Re-regularized SCAN exchange by Furness et al
  Functional family                     .... MGGA
  Functional refs                              
    [ 0] J. W. Furness, A. D. Kaplan, J. Ning, J. P. Perdew, and J. Sun, J. Phys. Chem. Lett. 11, 8208 (2020)
    [ 1] J. W. Furness, A. D. Kaplan, J. Ning, J. P. Perdew, and J. Sun, J. Phys. Chem. Lett. 11, 9248 (2020)
  Functional external parameters         .... 8
 Parameter  0 :         c1 parameter
 Parameter  1 :         c2 parameter
 Parameter  2 :          d parameter
 Parameter  3 :         k1 parameter
 Parameter  4 :       taur parameter
 Parameter  5 :     alphar parameter
 Parameter  6 :        eta parameter
 Parameter  7 :        dp2 parameter
  Functional kind                       .... Correlation
  Functional name                       .... Re-regularized SCAN correlation by Furness et al
  Functional family                     .... MGGA
  Functional refs                              
    [ 0] J. W. Furness, A. D. Kaplan, J. Ning, J. P. Perdew, and J. Sun, J. Phys. Chem. Lett. 11, 8208 (2020)
    [ 1] J. W. Furness, A. D. Kaplan, J. Ning, J. P. Perdew, and J. Sun, J. Phys. Chem. Lett. 11, 9248 (2020)
  Functional external parameters         .... 0
 Gradients option       PostSCFGGA      .... off
   Density functional embedding theory  .... OFF
   NL short-range parameter             .... 12.300000
 RI-approximation to the Coulomb term is turned on
   Number of AuxJ basis functions       .... 1157


General Settings:
 Integral files         IntName         .... scan
 Hartree-Fock type      HFTyp           .... UHF
 Total Charge           Charge          ....    0
 Multiplicity           Mult            ....    5
 Number of Electrons    NEL             ....  254
 Basis Dimension        Dim             ....  525
 Nuclear Repulsion      ENuc            ....   4401.0008014104 Eh

Convergence Acceleration:
 DIIS                   CNVDIIS         .... off
 Trust-Rad. Augm. Hess. CNVTRAH         .... auto
   Auto Start mean grad. ratio tolernc. ....  1.125000
   Auto Start start iteration           ....   200
   Auto Start num. interpolation iter.  ....    10
   Max. Number of Micro iterations      ....    16
   Max. Number of Macro iterations      .... Maxiter - #DIIS iter
   Number of Davidson start vectors     ....     2
   Converg. threshold I  (grad. norm)   ....   5.000e-05
   Converg. threshold II (energy diff.) ....   1.000e-06
   Grad. Scal. Fac. for Micro threshold ....   0.100
   Minimum threshold for Micro iter.    ....   0.010
   NR start threshold (gradient norm)   ....   0.001
   Initial trust radius                 ....   0.400
   Minimum AH scaling param. (alpha)    ....   1.000
   Maximum AH scaling param. (alpha)    .... 1000.000
   Orbital update algorithm             .... Taylor
   White noise on init. David. guess    .... on
   Maximum white noise                  ....   0.010
   Quad. conv. algorithm                .... NR
 SOSCF                  CNVSOSCF        .... off
 Level Shifting         CNVShift        .... off
 Zerner damping         CNVZerner       .... off
 Static damping         CNVDamp         .... off
 Fernandez-Rico         CNVRico         .... off

SCF Procedure:
 Maximum # iterations   MaxIter         ....   400
 SCF integral mode      SCFMode         .... Direct
   Integral package                     .... SHARK and LIBINT hybrid scheme
 Reset frequency        DirectResetFreq ....    20
 Integral Threshold     Thresh          ....  1.000e-10 Eh
 Primitive CutOff       TCut            ....  1.000e-11 Eh

Convergence Tolerance:
 Convergence Check Mode ConvCheckMode   .... All-Criteria
 Convergence forced     ConvForced      .... 0
 Energy Change          TolE            ....  1.000e-06 Eh
 Max Density Change     TolMaxP         ....  1.000e-05
 RMS Density Change     TolRMSP         ....  1.000e-06


Diagonalization of the overlap matrix:
Smallest eigenvalue                        ... 4.160e-04
Time for diagonalization                   ...    0.104 sec
Threshold for overlap eigenvalues          ... 1.000e-08
Number of eigenvalues below threshold      ... 0
Time for construction of square roots      ...    0.071 sec
Total time needed                          ...    0.177 sec

Time for model grid setup =    0.850 sec

------------------------------
INITIAL GUESS: MODEL POTENTIAL
------------------------------
Loading Hartree-Fock densities                     ... done
  calling /home/ehlert/src/miniconda3/envs/orca500/Programs/ORCA501/orca scan_atom79.inp > scan_atom79.out in order to generate an atomic fitting density for atom 0 (Au with ECP) on-the-fly... 
    atom 0 (Au), assumed electronic state with S=2: 1s2 2s2 2p6 3s2 3p6 4s2 3d10 4p6 5s2 4d10 5p6 6s1 4f14 5d10           ... done
Calculating cut-offs                               ... done
Initializing the effective Hamiltonian             ... done
Setting up the integral package (SHARK)            ... done
Starting the Coulomb interaction                   ... done (   0.8 sec)
Reading the grid                                   ... done
Mapping shells                                     ... done
Starting the XC term evaluation                    ... done (   0.8 sec)
  promolecular density results
     # of electrons  =    974.012752631
     EX              =  -4443.972805038
     EC              =    -59.273276305
     EX+EC           =  -4503.246081342
Transforming the Hamiltonian                       ... done (   0.1 sec)
Diagonalizing the Hamiltonian                      ... done (   0.1 sec)
Back transforming the eigenvectors                 ... done (   0.0 sec)
Now organizing SCF variables                       ... done
                      ------------------
                      INITIAL GUESS DONE (   3.7 sec)
                      ------------------
-------------------
DFT GRID GENERATION
-------------------

General Integration Accuracy     IntAcc      ... 4.388
Radial Grid Type                 RadialGrid  ... OptM3 with GC (2021)
Angular Grid (max. ang.)         AngularGrid ... 4 (Lebedev-302)
Angular grid pruning method      GridPruning ... 4 (adaptive)
Weight generation scheme         WeightScheme... Becke
Basis function cutoff            BFCut       ... 1.0000e-10
Integration weight cutoff        WCut        ... 1.0000e-14
Angular grids for H and He will be reduced by one unit
Partially contracted basis set               ... off
Rotationally invariant grid construction     ... off

Total number of grid points                  ...   144690
Total number of batches                      ...     2269
Average number of points per batch           ...       63
Average number of grid points per atom       ...    11130
Time for grid setup =    2.542 sec

--------------
SCF ITERATIONS
--------------
ITER       Energy         Delta-E        Max-DP      RMS-DP      [F,P]   Gradient Norm
               ***  Starting incremental Fock matrix formation  ***
                             ****Resetting KDIIS****
                             ****Turning on KDIIS(Cayley)****
  0  -2890.8171460624   0.000000000000 0.45879372  0.00214493  0.3551778   0.251357163
  1  -2892.7327023131  -1.915556250704 0.70338676  0.00218592  0.3179986   0.170996000
  2  -2893.2945312699  -0.561828956789 0.11998795  0.00135591  0.2515790   0.128217999
  3  -2893.5666144135  -0.272083143667 0.15821002  0.00170223  0.1471137   0.076800918
  4  -2893.6643507005  -0.097736286923 0.05534013  0.00068014  0.0394961   0.024213735
  5  -2893.7187609639  -0.054410263477 0.27331913  0.00090598  0.0248240   0.009043144
  6  -2893.7505158063  -0.031754842320 0.05611394  0.00071017  0.0313048   0.009627340
  7  -2893.7746404654  -0.024124659164 0.01771399  0.00025261  0.0158448   0.006754370
  8  -2893.7822822796  -0.007641814184 0.01723839  0.00019860  0.0091642   0.004838553
  9  -2893.7879876063  -0.005705326695 0.01716298  0.00022508  0.0114426   0.003539379
 10  -2893.7940483690  -0.006060762666 0.03759609  0.00027157  0.0083747   0.003203039
 11  -2893.8000887412  -0.006040372264 0.01542897  0.00016993  0.0104157   0.002213917
 12  -2893.8031651700  -0.003076428799 0.01446169  0.00008403  0.0064527   0.001792968
 13  -2893.8039174894  -0.000752319314 0.01361056  0.00011973  0.0045580   0.002202894
 14  -2893.8056321745  -0.001714685185 0.00633196  0.00008191  0.0064058   0.001759541
 15  -2893.8066117193  -0.000979544766 0.00310688  0.00004530  0.0036980   0.001053520
 16  -2893.8069327997  -0.000321080385 0.00988472  0.00003673  0.0038559   0.001240004
 17  -2893.8071867071  -0.000253907416 0.00340503  0.00002657  0.0039357   0.000940853
 18  -2893.8075572485  -0.000370541413 0.00046565  0.00000411  0.0039868   0.000686371
 19  -2893.8076175971  -0.000060348613 0.00396425  0.00002402  0.0040161   0.000684814
               *** Restarting incremental Fock matrix formation ***
                             ****Resetting KDIIS****
 20  -2893.8073532883   0.000264308868 0.00066630  0.00000718  0.0036363   0.000936508
 21  -2893.8074391636  -0.000085875319 0.00130581  0.00001181  0.0038138   0.000747762
 22  -2893.8076067497  -0.000167586117 0.00244893  0.00002139  0.0038976   0.000707074
 23  -2893.8079141347  -0.000307385018 0.01727210  0.00014243  0.0040833   0.000682769
 24  -2893.8059661001   0.001948034603 0.00631716  0.00006057  0.0030315   0.000713408
 25  -2893.8053689307   0.000597169369 0.01404324  0.00014368  0.0033433   0.000867833
 26  -2893.8042930015   0.001075929226 0.00447921  0.00005450  0.0043106   0.001259419
 27  -2893.8046130008  -0.000319999283 0.00635254  0.00004946  0.0024414   0.000798135
 28  -2893.8044630307   0.000149970086 0.01228035  0.00012913  0.0027711   0.000943671
 29  -2893.8042248325   0.000238198265 0.00674790  0.00005781  0.0033750   0.001089812
 30  -2893.8044621979  -0.000237365496 0.00981351  0.00004693  0.0015500   0.000874531
 31  -2893.8045498428  -0.000087644896 0.00382580  0.00003686  0.0013942   0.000824897
 32  -2893.8046312004  -0.000081357540 0.00196803  0.00002229  0.0015171   0.000914859
 33  -2893.8047361179  -0.000104917550 0.00231818  0.00002185  0.0012691   0.000398244
 34  -2893.8048329527  -0.000096834757 0.00159747  0.00001516  0.0013245   0.000430660
 35  -2893.8048970796  -0.000064126930 0.00115450  0.00001130  0.0013310   0.000341752
 36  -2893.8049622130  -0.000065133361 0.00172476  0.00001796  0.0012833   0.000301395
 37  -2893.8050584632  -0.000096250216 0.00121574  0.00002157  0.0012702   0.000291073
 38  -2893.8051741541  -0.000115690906 0.00028296  0.00000464  0.0013106   0.000278721
 39  -2893.8051479119   0.000026242222 0.00044648  0.00000765  0.0013062   0.000275130
               *** Restarting incremental Fock matrix formation ***
                             ****Resetting KDIIS****
 40  -2893.8051893051  -0.000041393221 0.00014248  0.00000247  0.0013270   0.000274748
 41  -2893.8052034423  -0.000014137158 0.00029531  0.00000516  0.0013319   0.000272619
 42  -2893.8052312477  -0.000027805471 0.00013756  0.00000174  0.0013450   0.000272388
 43  -2893.8052254076   0.000005840166 0.00455226  0.00007682  0.0013450   0.000278686
 44  -2893.8048408663   0.000384541308 0.00323871  0.00004538  0.0013040   0.000265536
 45  -2893.8046788966   0.000161969645 0.00473313  0.00007601  0.0013060   0.000410006
 46  -2893.8043799813   0.000298915319 0.00096936  0.00001301  0.0013797   0.000334342
 47  -2893.8044420452  -0.000062063912 0.00854702  0.00013803  0.0011974   0.000524212
 48  -2893.8041648798   0.000277165394 0.00417071  0.00006618  0.0012740   0.000415899
 49  -2893.8040476918   0.000117188035 0.00149243  0.00002356  0.0012463   0.000296945
 50  -2893.8041288909  -0.000081199123 0.00512670  0.00007864  0.0011788   0.000356481
 51  -2893.8041129750   0.000015915941 0.00167462  0.00002155  0.0011415   0.000191676
 52  -2893.8041676148  -0.000054639862 0.00165221  0.00002778  0.0010799   0.000246486
 53  -2893.8042076308  -0.000040015947 0.00172407  0.00002828  0.0010265   0.000169456
 54  -2893.8042749471  -0.000067316348 0.00154746  0.00002375  0.0009475   0.000184884
 55  -2893.8043312825  -0.000056335423 0.00077691  0.00001329  0.0009012   0.000173217
 56  -2893.8043596784  -0.000028395858 0.00077027  0.00000981  0.0008400   0.000158275
 57  -2893.8043769698  -0.000017291362 0.00093908  0.00001454  0.0008254   0.000151028
 58  -2893.8044128085  -0.000035838751 0.00020072  0.00000352  0.0008145   0.000152472
                           ***RMSP convergence achieved***
 59  -2893.8044068425   0.000005966017 0.00003222  0.00000049  0.0008072   0.000146924
               *** Restarting incremental Fock matrix formation ***
                             ****Resetting KDIIS****
 60  -2893.8044055015   0.000001340983 0.00008807  0.00000133  0.0008054   0.000147108
 61  -2893.8044082302  -0.000002728642 0.00018416  0.00000278  0.0008101   0.000145795
 62  -2893.8044148458  -0.000006615632 0.00012574  0.00000195  0.0008173   0.000145562
 63  -2893.8044197075  -0.000004861726 0.00254889  0.00003836  0.0008224   0.000147094
 64  -2893.8043280664   0.000091641084 0.00100072  0.00000573  0.0008750   0.000145083
 65  -2893.8043207426   0.000007323853 0.00091220  0.00001288  0.0008808   0.000154488
 66  -2893.8042963547   0.000024387888 0.00025618  0.00000449  0.0008913   0.000147729
 67  -2893.8042876802   0.000008674439 0.00257193  0.00002504  0.0009213   0.000173907
 68  -2893.8043394888  -0.000051808596 0.00184783  0.00002883  0.0008262   0.000206931
 69  -2893.8042888962   0.000050592630 0.00158511  0.00002116  0.0008601   0.000162121
 70  -2893.8043296417  -0.000040745526 0.00203538  0.00002042  0.0008370   0.000186584
 71  -2893.8043655300  -0.000035888245 0.00081361  0.00001112  0.0007671   0.000135948
 72  -2893.8043776511  -0.000012121135 0.00085505  0.00000852  0.0007660   0.000149178
 73  -2893.8044002966  -0.000022645475 0.00116468  0.00001209  0.0007200   0.000140460
 74  -2893.8044262146  -0.000025918048 0.00071518  0.00000682  0.0006941   0.000127243
 75  -2893.8044118776   0.000014337027 0.00040179  0.00000457  0.0007214   0.000130396
 76  -2893.8044010451   0.000010832504 0.00095072  0.00001163  0.0007363   0.000128198
 77  -2893.8044271788  -0.000026133651 0.00025961  0.00000299  0.0007012   0.000130816
 78  -2893.8044297588  -0.000002580078 0.00023510  0.00000321  0.0006960   0.000134973
 79  -2893.8044254176   0.000004341229 0.00294250  0.00004123  0.0006975   0.000135164
               *** Restarting incremental Fock matrix formation ***
                             ****Resetting KDIIS****
 80  -2893.8043631156   0.000062302036 0.00009470  0.00000112  0.0007648   0.000136034
 81  -2893.8043658896  -0.000002774020 0.00020794  0.00000238  0.0007630   0.000129712
 82  -2893.8043713152  -0.000005425561 0.00018886  0.00000223  0.0007584   0.000127891
 83  -2893.8043754147  -0.000004099538 0.00142220  0.00001747  0.0007596   0.000128969
 84  -2893.8043389196   0.000036495066 0.00094187  0.00001155  0.0007893   0.000139567
 85  -2893.8043139598   0.000024959845 0.00040559  0.00000395  0.0008219   0.000124390
                          ***Energy convergence achieved***
 86  -2893.8043142533  -0.000000293518 0.00029337  0.00000389  0.0008237   0.000128558
 87  -2893.8043110645   0.000003188823 0.00075267  0.00000842  0.0008196   0.000126533
 88  -2893.8043190362  -0.000007971739 0.00105463  0.00001185  0.0008088   0.000147567
 89  -2893.8043231605  -0.000004124298 0.00079091  0.00000893  0.0008165   0.000122624
 90  -2893.8043434306  -0.000020270101 0.00068044  0.00000771  0.0007757   0.000119147
 91  -2893.8043563391  -0.000012908452 0.00082835  0.00000944  0.0007730   0.000121037
 92  -2893.8043755050  -0.000019165952 0.00222972  0.00002580  0.0007453   0.000117055
 93  -2893.8044260524  -0.000050547350 0.00050067  0.00000606  0.0006812   0.000113888
 94  -2893.8044385224  -0.000012470019 0.00011723  0.00000166  0.0006643   0.000106762
                          ***Energy convergence achieved***
 95  -2893.8044389010  -0.000000378624 0.00011139  0.00000153  0.0006637   0.000107001
 96  -2893.8044360626   0.000002838438 0.00038077  0.00000419  0.0006686   0.000107230
 97  -2893.8044449357  -0.000008873151 0.00036435  0.00000399  0.0006548   0.000109189
 98  -2893.8044530867  -0.000008151011 0.00020522  0.00000255  0.0006439   0.000109276
 99  -2893.8044491180   0.000003968779 0.00037183  0.00000549  0.0006484   0.000110400
               *** Restarting incremental Fock matrix formation ***
                             ****Resetting KDIIS****
                           ***RMSP convergence achieved***
100  -2893.8044434687   0.000005649255 0.00006789  0.00000091  0.0006585   0.000107752
101  -2893.8044454539  -0.000001985240 0.00013734  0.00000193  0.0006559   0.000106933
102  -2893.8044491179  -0.000003663935 0.00012076  0.00000168  0.0006521   0.000106707
103  -2893.8044518956  -0.000002777679 0.00135781  0.00002043  0.0006520   0.000107657
104  -2893.8044151642   0.000036731314 0.00118490  0.00000485  0.0006894   0.000105989
105  -2893.8044180149  -0.000002850686 0.00043120  0.00000677  0.0006850   0.000116133
106  -2893.8044071156   0.000010899354 0.00041840  0.00000367  0.0006949   0.000109877
107  -2893.8044133297  -0.000006214073 0.00487204  0.00004539  0.0006718   0.000134457
108  -2893.8044779966  -0.000064666923 0.00187284  0.00002512  0.0005571   0.000156549
109  -2893.8044436952   0.000034301360 0.00240110  0.00002486  0.0006372   0.000131435
110  -2893.8044844871  -0.000040791877 0.00293919  0.00002585  0.0005432   0.000142792
111  -2893.8045224039  -0.000037916815 0.00029558  0.00000476  0.0004889   0.000096523
112  -2893.8045261523  -0.000003748400 0.00012467  0.00000202  0.0004882   0.000098405
113  -2893.8045241559   0.000001996447 0.00171705  0.00001598  0.0004955   0.000101615
114  -2893.8045497342  -0.000025578384 0.00090574  0.00000799  0.0004753   0.000090403
115  -2893.8045378657   0.000011868583 0.00066391  0.00000699  0.0004762   0.000093361
116  -2893.8045279568   0.000009908908 0.00086501  0.00000952  0.0004808   0.000091436
117  -2893.8045425088  -0.000014552098 0.00031424  0.00000297  0.0004755   0.000094520
118  -2893.8045471587  -0.000004649898 0.00018906  0.00000167  0.0004746   0.000094520
119  -2893.8045492308  -0.000002072042 0.00080159  0.00000722  0.0004741   0.000094746
               *** Restarting incremental Fock matrix formation ***
                             ****Resetting KDIIS****
                           ***RMSP convergence achieved***
120  -2893.8045380495   0.000011181320 0.00006271  0.00000087  0.0004738   0.000096801
121  -2893.8045393268  -0.000001277366 0.00013064  0.00000183  0.0004754   0.000092942
122  -2893.8045417236  -0.000002396806 0.00017609  0.00000256  0.0004785   0.000091807
123  -2893.8045446263  -0.000002902664 0.00275219  0.00003967  0.0004837   0.000092997
124  -2893.8044907870   0.000053839311 0.00038143  0.00000647  0.0005323   0.000099619
125  -2893.8044841542   0.000006632807 0.00077900  0.00000456  0.0005468   0.000087493
126  -2893.8044859802  -0.000001826000 0.00020775  0.00000260  0.0005419   0.000087709
127  -2893.8044883727  -0.000002392549 0.00172645  0.00001753  0.0005402   0.000088208
128  -2893.8045137243  -0.000025351543 0.00060415  0.00000832  0.0004785   0.000116591
129  -2893.8045093363   0.000004387979 0.00076811  0.00000901  0.0005106   0.000096032
130  -2893.8045232005  -0.000013864208 0.00033788  0.00000492  0.0004882   0.000093114
131  -2893.8045279043  -0.000004703771 0.00032691  0.00000399  0.0004761   0.000090733
132  -2893.8045335983  -0.000005694045 0.00010075  0.00000150  0.0004826   0.000081887
                          ***Energy convergence achieved***
133  -2893.8045331218   0.000000476531 0.00068937  0.00000917  0.0004834   0.000080436
134  -2893.8045454221  -0.000012300270 0.00022430  0.00000331  0.0005024   0.000080438
135  -2893.8045420912   0.000003330875 0.00073319  0.00001036  0.0004952   0.000083674
136  -2893.8045277516   0.000014339589 0.00024089  0.00000405  0.0004758   0.000080615
137  -2893.8045231038   0.000004647763 0.00020933  0.00000340  0.0004824   0.000080267
                          ***Energy convergence achieved***
138  -2893.8045234320  -0.000000328208 0.00037444  0.00000469  0.0004817   0.000085552
139  -2893.8045170195   0.000006412592 0.00078734  0.00001220  0.0004909   0.000082979
               *** Restarting incremental Fock matrix formation ***
                             ****Resetting KDIIS****
                           ***RMSP convergence achieved***
140  -2893.8045082070   0.000008812483 0.00005972  0.00000074  0.0004985   0.000087763
141  -2893.8045094117  -0.000001204710 0.00012384  0.00000153  0.0004980   0.000081891
142  -2893.8045111699  -0.000001758269 0.00025849  0.00000307  0.0004965   0.000080404
143  -2893.8045154225  -0.000004252586 0.00091286  0.00001122  0.0004897   0.000078482
144  -2893.8045297840  -0.000014361436 0.00011934  0.00000154  0.0004689   0.000077812
145  -2893.8045318221  -0.000002038098 0.00037418  0.00000506  0.0004658   0.000077496
146  -2893.8045254027   0.000006419390 0.00016302  0.00000292  0.0004753   0.000077642
147  -2893.8045213735   0.000004029162 0.00101274  0.00000961  0.0004784   0.000082146
148  -2893.8045370602  -0.000015686696 0.00086527  0.00000823  0.0004390   0.000116783
149  -2893.8045234789   0.000013581326 0.00035005  0.00000593  0.0004822   0.000082185
150  -2893.8045170810   0.000006397921 0.00084798  0.00000719  0.0004846   0.000085017
151  -2893.8045249604  -0.000007879450 0.00030264  0.00000554  0.0004633   0.000097406
152  -2893.8045294225  -0.000004462120 0.00067940  0.00000559  0.0004617   0.000088095
153  -2893.8045358743  -0.000006451745 0.00160410  0.00001404  0.0004515   0.000092437
154  -2893.8045426279  -0.000006753578 0.00116402  0.00001063  0.0004386   0.000128527
                          ***Energy convergence achieved***
155  -2893.8045420516   0.000000576286 0.00082129  0.00000778  0.0004228   0.000095323
156  -2893.8045502282  -0.000008176612 0.00176497  0.00001620  0.0004226   0.000090911
157  -2893.8045655809  -0.000015352675 0.00066801  0.00000602  0.0004282   0.000087563
158  -2893.8045614022   0.000004178702 0.00077854  0.00000835  0.0004297   0.000091851
159  -2893.8045681103  -0.000006708163 0.00169533  0.00001679  0.0004378   0.000081702
               *** Restarting incremental Fock matrix formation ***
                             ****Resetting KDIIS****
                           ***RMSP convergence achieved***
160  -2893.8045871362  -0.000019025869 0.00004126  0.00000070  0.0004490   0.000079295
                          ***Energy convergence achieved***
161  -2893.8045867822   0.000000353947 0.00008350  0.00000136  0.0004515   0.000069358
162  -2893.8045880751  -0.000001292839 0.00010988  0.00000163  0.0004546   0.000068617
163  -2893.8045895985  -0.000001523388 0.00230062  0.00003910  0.0004583   0.000068330
164  -2893.8045510446   0.000038553868 0.00042322  0.00000613  0.0004006   0.000069776
165  -2893.8045459120   0.000005132597 0.00048538  0.00000523  0.0004085   0.000066568
166  -2893.8045437181   0.000002193950 0.00041322  0.00000571  0.0004110   0.000066360
167  -2893.8045392094   0.000004508689 0.00192847  0.00001436  0.0004198   0.000071678
168  -2893.8045553659  -0.000016156539 0.00265148  0.00003845  0.0003684   0.000105575
169  -2893.8045274915   0.000027874418 0.00192751  0.00002146  0.0004409   0.000071889
170  -2893.8045358330  -0.000008341469 0.00118742  0.00001383  0.0004165   0.000080280
171  -2893.8045431544  -0.000007321476 0.00110209  0.00000857  0.0004112   0.000070247
172  -2893.8045499785  -0.000006824076 0.00206587  0.00001633  0.0003967   0.000073689
173  -2893.8045631190  -0.000013140475 0.00220334  0.00002410  0.0003675   0.000075451
174  -2893.8045816318  -0.000018512867 0.00191721  0.00002053  0.0003317   0.000098983
175  -2893.8045645668   0.000017065034 0.00175976  0.00001374  0.0003664   0.000066682
176  -2893.8045772020  -0.000012635151 0.00052670  0.00000422  0.0003459   0.000058956
177  -2893.8045735857   0.000003616274 0.00034137  0.00000271  0.0003479   0.000053048
178  -2893.8045759686  -0.000002382920 0.00064039  0.00000508  0.0003433   0.000049718
179  -2893.8045801489  -0.000004180335 0.00026705  0.00000227  0.0003366   0.000049374
               *** Restarting incremental Fock matrix formation ***
                             ****Resetting KDIIS****
                           ***RMSP convergence achieved***
180  -2893.8045779425   0.000002206443 0.00005106  0.00000040  0.0003429   0.000050132
                          ***Energy convergence achieved***
181  -2893.8045786428  -0.000000700292 0.00009854  0.00000083  0.0003413   0.000048921
182  -2893.8045793600  -0.000000717251 0.00010942  0.00000094  0.0003401   0.000048704
183  -2893.8045801302  -0.000000770130 0.00096528  0.00000884  0.0003389   0.000048754
184  -2893.8045737007   0.000006429430 0.00025665  0.00000251  0.0003483   0.000049601
185  -2893.8045718154   0.000001885374 0.00053934  0.00000311  0.0003494   0.000048610
186  -2893.8045705427   0.000001272676 0.00016973  0.00000240  0.0003518   0.000048822
                          ***Energy convergence achieved***
187  -2893.8045702594   0.000000283341 0.00141779  0.00001213  0.0003474   0.000051349
188  -2893.8045764974  -0.000006237995 0.00114899  0.00001107  0.0003332   0.000064187
189  -2893.8045718519   0.000004645475 0.00114622  0.00001064  0.0003351   0.000055457
190  -2893.8045781769  -0.000006325069 0.00091973  0.00000880  0.0003177   0.000057609
191  -2893.8045844476  -0.000006270606 0.00036064  0.00000340  0.0003019   0.000049447
192  -2893.8045862232  -0.000001775683 0.00015369  0.00000249  0.0002965   0.000050034
193  -2893.8045847593   0.000001463959 0.00087969  0.00000867  0.0003062   0.000053962
194  -2893.8045912994  -0.000006540134 0.00052639  0.00000477  0.0002886   0.000044041
195  -2893.8045880410   0.000003258421 0.00015135  0.00000139  0.0002980   0.000045164
                          ***Energy convergence achieved***
196  -2893.8045871649   0.000000876118 0.00032067  0.00000270  0.0002997   0.000044465
197  -2893.8045895082  -0.000002343347 0.00038927  0.00000347  0.0002960   0.000045939
                           ***RMSP convergence achieved***
198  -2893.8045925153  -0.000003007117 0.00006187  0.00000087  0.0002876   0.000048570
                          ***Energy convergence achieved***
199  -2893.8045922880   0.000000227381 0.00026032  0.00000258  0.0002897   0.000047098
               *** Restarting incremental Fock matrix formation ***
                             ****Resetting KDIIS****
                           ***RMSP convergence achieved***

 WARNING: the maximum gradient error descreased on average only by a factor   1.0
          during the last 200 iterations

                      *** Initiating the TRAH-SCF procedure ***

                    *** KDIIS BlockDiag ( 0.176 sec) ***

TRAH GRID
---------

General Integration Accuracy     IntAcc      ... 3.467
Radial Grid Type                 RadialGrid  ... OptM3 with GC (2021)
Angular Grid (max. ang.)         AngularGrid ... 1 (Lebedev-50)
Angular grid pruning method      GridPruning ... 4 (adaptive)
Weight generation scheme         WeightScheme... Becke
Basis function cutoff            BFCut       ... 1.0000e-10
Integration weight cutoff        WCut        ... 1.0000e-14
Angular grids for H and He will be reduced by one unit
Partially contracted basis set               ... off
Rotationally invariant grid construction     ... off

Total number of grid points                  ...    62449
Total number of batches                      ...      981
Average number of points per batch           ...       63
Average number of grid points per atom       ...     4804

 --------------------------------------------------------------------------------------------
   Iter.        energy            ||Error||_2        Shift      TRadius  Mac/Mic        Rej.
 --------------------------------------------------------------------------------------------
WARNING: 3 diagonal Hessian elements are negative!
    0      -2893.804590796435     7.341903e-04                     0.400 (TRAH MAcro)   No
WARNING : small    HOMO - LUMO gap : (op = alpha) 0.005977
WARNING : negative HOMO - LUMO gap : (op =  beta) -0.026471
    0     dE    -1.248702e-07     2.150040e-03    -1.2487e-07      0.000 (TRAH MIcro)
    0     dE    -1.328674e-05     5.252393e-03    -1.3272e-05      0.033 (TRAH MIcro)
    0     dE    -2.903529e-05     6.113320e-03    -2.8908e-05      0.066 (TRAH MIcro)
    0     dE    -5.118030e-05     9.709896e-03    -5.0592e-05      0.108 (TRAH MIcro)
    0     dE    -1.496400e-04     1.220187e-02    -1.3946e-04      0.270 (TRAH MIcro)
    0     dE    -2.964192e-04     1.257001e-02    -5.2863e-04      0.400 (TRAH MIcro)
    0     dE    -3.927703e-04     8.761376e-03    -1.1275e-03      0.400 (TRAH MIcro)
    0     dE    -4.083626e-04     6.378551e-03    -1.6575e-03      0.363 (TRAH MIcro)
    0     dE    -4.867012e-04     5.889029e-03    -1.7857e-03      0.397 (TRAH MIcro)
    0     dE    -5.036814e-04     4.657950e-03    -1.8631e-03      0.400 (TRAH MIcro)
    0     dE    -5.159257e-04     3.434552e-03    -1.9425e-03      0.400 (TRAH MIcro)
    0     dE    -5.242145e-04     3.698713e-03    -1.9919e-03      0.400 (TRAH MIcro)
    0     dE    -5.407544e-04     5.856248e-03    -2.0867e-03      0.400 (TRAH MIcro)
    0     dE    -5.940095e-04     8.841923e-03    -2.4019e-03      0.400 (TRAH MIcro)
 ---------------------------------
          TRAH Step control 
 ---------------------------------
  predicted energy change = -0.000594
  actual energy  change   = 0.000224
  energy change ratio     = -0.377651
  old trust radius        = 0.400000
  new trust radius        = 0.280000
  reject step?            =  1
    1      -2893.804590796435     0.000000e+00                     0.280 (TRAH MAcro)  Yes
WARNING: 3 diagonal Hessian elements are negative!
    2      -2893.804590796432     7.341903e-04                           (NR   MAcro)
WARNING : small    HOMO - LUMO gap : (op = alpha) 0.005977
WARNING : negative HOMO - LUMO gap : (op =  beta) -0.026471
    2     dE    -1.340844e-05     4.071550e-03                           (NR   MIcro)
    2     dE    -3.108384e-05     6.266277e-03                           (NR   MIcro)
    2     dE    -4.871814e-05     6.594416e-03                           (NR   MIcro)
    2     dE    -1.375240e-04     1.156530e-02                           (NR   MIcro)
    2     dE    -3.109827e-04     1.855777e-02                           (NR   MIcro)
    2     dE    -1.024080e-03     4.332203e-02                           (NR   MIcro)
    2     dE     1.716466e-03     6.151625e-02                           (NR   MIcro)
    2     dE     6.144938e-04     1.786438e-02                           (NR   MIcro)
    2     dE     4.784041e-04     1.182990e-02                           (NR   MIcro)
    2     dE     3.952544e-04     6.243400e-03                           (NR   MIcro)
    2     dE     3.721824e-04     4.906813e-03                           (NR   MIcro)
    2     dE     3.467003e-04     6.629093e-03                           (NR   MIcro)
    2     dE     2.889014e-04     8.633565e-03                           (NR   MIcro)
    2     dE     2.238006e-04     8.386488e-03                           (NR   MIcro)
    2     dE     1.414316e-04     9.105487e-03                           (NR   MIcro)
WARNING: 3 diagonal Hessian elements are negative!
    3      -2893.803975888039     1.426728e-02                     0.280 (TRAH MAcro)   No
WARNING : small    HOMO - LUMO gap : (op = alpha) 0.006543
WARNING : negative HOMO - LUMO gap : (op =  beta) -0.025102
    3     dE    -3.522199e-05     1.609154e-02    -3.5222e-05      0.002 (TRAH MIcro)
    3     dE    -2.700694e-04     1.422825e-02    -2.6871e-04      0.071 (TRAH MIcro)
    3     dE    -4.168055e-04     1.809896e-02    -4.1094e-04      0.119 (TRAH MIcro)
    3     dE    -5.395826e-04     1.834557e-02    -5.2598e-04      0.161 (TRAH MIcro)
    3     dE    -8.462642e-04     1.874132e-02    -7.8751e-04      0.273 (TRAH MIcro)
    3     dE    -1.063241e-03     1.106217e-02    -3.8130e-03      0.280 (TRAH MIcro)
    3     dE    -1.125238e-03     7.065887e-03    -4.7835e-03      0.280 (TRAH MIcro)
    3     dE    -1.158972e-03     4.188043e-03    -5.3506e-03      0.280 (TRAH MIcro)
    3     dE    -1.112269e-03     2.851171e-03    -6.0665e-03      0.262 (TRAH MIcro)
    3     dE    -1.115152e-03     3.102142e-03    -6.1019e-03      0.261 (TRAH MIcro)
    3     dE    -1.184398e-03     3.670183e-03    -5.4169e-03      0.280 (TRAH MIcro)
    3     dE    -1.195596e-03     4.503156e-03    -5.3721e-03      0.280 (TRAH MIcro)
    3     dE    -1.220068e-03     5.380881e-03    -5.4731e-03      0.280 (TRAH MIcro)
    3     dE    -1.243583e-03     5.843273e-03    -5.6163e-03      0.280 (TRAH MIcro)
WARNING: 3 diagonal Hessian elements are negative!
    4      -2893.804734988344     1.207109e-02                     0.280 (TRAH MAcro)   No
WARNING : small    HOMO - LUMO gap : (op = alpha) 0.005956
WARNING : negative HOMO - LUMO gap : (op =  beta) -0.023250
    4     dE    -1.260862e-05     3.955748e-02    -1.2609e-05      0.001 (TRAH MIcro)
    4     dE    -4.454161e-05     1.976006e-02    -4.4538e-05      0.009 (TRAH MIcro)
    4     dE    -1.039527e-04     7.635503e-03    -1.0385e-04      0.032 (TRAH MIcro)
    4     dE    -1.410668e-04     9.490484e-03    -1.4072e-04      0.049 (TRAH MIcro)
    4     dE    -1.739274e-04     8.866581e-03    -1.7302e-04      0.072 (TRAH MIcro)
    4     dE    -2.410029e-04     1.089926e-02    -2.3707e-04      0.129 (TRAH MIcro)
    4     dE    -3.251372e-04     1.099106e-02    -3.1315e-04      0.196 (TRAH MIcro)
    4     dE    -4.013600e-04     1.053303e-02    -3.7720e-04      0.253 (TRAH MIcro)
    4     dE    -4.843882e-04     9.830853e-03    -9.5815e-04      0.280 (TRAH MIcro)
    4     dE    -5.335434e-04     9.930904e-03    -1.5063e-03      0.280 (TRAH MIcro)
    4     dE    -6.275796e-04     1.362984e-02    -2.4951e-03      0.280 (TRAH MIcro)
    4     dE    -8.058698e-04     1.778214e-02    -4.5195e-03      0.280 (TRAH MIcro)
    4     dE    -8.541390e-04     1.935129e-02    -9.4231e-03      0.221 (TRAH MIcro)
    4     dE    -1.652485e-03     2.410746e-02    -1.4793e-02      0.280 (TRAH MIcro)
WARNING: 3 diagonal Hessian elements are negative!
    5      -2893.805928943848     2.727968e-02                     0.280 (TRAH MAcro)   No
WARNING : small    HOMO - LUMO gap : (op = alpha) 0.005991
WARNING : negative HOMO - LUMO gap : (op =  beta) -0.022420
    5     dE    -2.028273e-05     6.328779e-02    -2.0283e-05      0.001 (TRAH MIcro)
    5     dE    -2.212502e-04     2.587810e-02    -2.2115e-04      0.021 (TRAH MIcro)
    5     dE    -3.479211e-04     1.866484e-02    -3.4736e-04      0.040 (TRAH MIcro)
    5     dE    -5.098107e-04     2.554149e-02    -5.0635e-04      0.083 (TRAH MIcro)
    5     dE    -7.468547e-04     2.613776e-02    -7.2739e-04      0.164 (TRAH MIcro)
    5     dE    -1.149124e-03     2.686615e-02    -1.0709e-03      0.270 (TRAH MIcro)
    5     dE    -1.484933e-03     2.727354e-02    -4.9027e-03      0.280 (TRAH MIcro)
    5     dE    -1.938526e-03     3.583179e-02    -8.2135e-03      0.280 (TRAH MIcro)
    5     dE    -3.277184e-03     4.239909e-02    -1.7835e-02      0.280 (TRAH MIcro)
    5     dE    -4.460740e-03     3.030542e-02    -3.1419e-02      0.278 (TRAH MIcro)
    5     dE    -4.742944e-03     2.316710e-02    -4.6948e-02      0.244 (TRAH MIcro)
    5     dE    -5.524856e-03     1.542166e-02    -5.0664e-02      0.260 (TRAH MIcro)
    5     dE    -5.818912e-03     7.913712e-03    -5.1885e-02      0.266 (TRAH MIcro)
    5     dE    -5.883691e-03     5.539328e-03    -5.2299e-02      0.266 (TRAH MIcro)
WARNING: 2 diagonal Hessian elements are negative!
    6      -2893.811303171024     3.514365e-02                     0.336 (TRAH MAcro)   No
WARNING : small    HOMO - LUMO gap : (op = alpha) 0.004668
WARNING : negative HOMO - LUMO gap : (op =  beta) -0.003349
    6     dE    -2.788865e-04     4.023426e-02    -2.7887e-04      0.008 (TRAH MIcro)
    6     dE    -2.748494e-03     4.613955e-02    -8.8342e-03      0.336 (TRAH MIcro)
    6     dE    -3.163889e-03     2.757876e-02    -1.5180e-02      0.306 (TRAH MIcro)
    6     dE    -3.655969e-03     2.860972e-02    -1.7225e-02      0.312 (TRAH MIcro)
    6     dE    -4.361929e-03     3.100302e-02    -1.9572e-02      0.329 (TRAH MIcro)
    6     dE    -4.691457e-03     3.039406e-02    -2.1680e-02      0.319 (TRAH MIcro)
    6     dE    -5.615567e-03     4.514518e-02    -2.6216e-02      0.315 (TRAH MIcro)
    6     dE    -7.997094e-03     4.354218e-02    -3.5591e-02      0.336 (TRAH MIcro)
    6     dE    -9.059197e-03     2.780431e-02    -4.2692e-02      0.336 (TRAH MIcro)
    6     dE    -9.603824e-03     1.763241e-02    -4.6456e-02      0.336 (TRAH MIcro)
    6     dE    -9.790165e-03     1.180254e-02    -4.7582e-02      0.336 (TRAH MIcro)
    6     dE    -9.863395e-03     6.341059e-03    -4.7813e-02      0.336 (TRAH MIcro)
    6     dE    -9.883810e-03     3.287078e-03    -4.8094e-02      0.336 (TRAH MIcro)
    7      -2893.820741105502     2.632565e-02                     0.403 (TRAH MAcro)   No
WARNING : small    HOMO - LUMO gap : (op = alpha) 0.004236
WARNING : small    HOMO - LUMO gap : (op =  beta) 0.006496
    7     dE    -1.828207e-04     8.132260e-02    -1.8281e-04      0.007 (TRAH MIcro)
    7     dE    -5.174146e-03     4.615576e-01    -4.6240e-03      0.345 (TRAH MIcro)
    7     dE    -1.143718e-02     6.197312e-02    -3.3887e-02      0.403 (TRAH MIcro)
    7     dE    -1.219512e-02     2.324734e-02    -3.7470e-02      0.403 (TRAH MIcro)
    7     dE    -1.258782e-02     1.232464e-02    -3.9748e-02      0.403 (TRAH MIcro)
    7     dE    -1.265577e-02     5.852991e-03    -4.0188e-02      0.403 (TRAH MIcro)
    7     dE    -1.266995e-02     3.114727e-03    -4.0332e-02      0.403 (TRAH MIcro)
    7     dE    -1.267453e-02     1.782803e-03    -4.0394e-02      0.403 (TRAH MIcro)
    8      -2893.831926533820     2.262974e-02                     0.484 (TRAH MAcro)   No
WARNING : small    HOMO - LUMO gap : (op = alpha) 0.003972
    8     dE    -1.024874e-04     7.465181e-02    -1.0249e-04      0.005 (TRAH MIcro)
    8     dE    -2.311915e-03     1.319418e-01    -2.2356e-03      0.185 (TRAH MIcro)
    8     dE    -6.844147e-03     4.195492e-02    -5.5470e-03      0.484 (TRAH MIcro)
    8     dE    -7.660670e-03     3.388952e-02    -8.1292e-03      0.484 (TRAH MIcro)
    8     dE    -8.200656e-03     1.794150e-02    -1.0072e-02      0.484 (TRAH MIcro)
    8     dE    -8.369328e-03     1.060772e-02    -1.0920e-02      0.484 (TRAH MIcro)
    8     dE    -8.405660e-03     7.839466e-03    -1.1088e-02      0.484 (TRAH MIcro)
    8     dE    -8.418929e-03     2.778775e-03    -1.1198e-02      0.484 (TRAH MIcro)
    8     dE    -8.422985e-03     2.157242e-03    -1.1220e-02      0.484 (TRAH MIcro)
    9      -2893.836807354053     7.444126e-02                     0.484 (TRAH MAcro)   No
WARNING : small    HOMO - LUMO gap : (op = alpha) 0.003382
    9     dE    -1.008745e-03     1.169316e-01    -1.0086e-03      0.014 (TRAH MIcro)
    9     dE    -1.596477e-03     1.922448e-02    -1.5943e-03      0.037 (TRAH MIcro)
    9     dE    -1.735496e-03     9.691845e-03    -1.7304e-03      0.054 (TRAH MIcro)
    9     dE    -1.794080e-03     5.815589e-03    -1.7844e-03      0.074 (TRAH MIcro)
   10      -2893.838815463713     5.811773e-03                     0.581 (TRAH MAcro)   No
WARNING : small    HOMO - LUMO gap : (op = alpha) 0.003222
   10     dE    -7.479521e-06     1.716029e-02    -7.4795e-06      0.001 (TRAH MIcro)
   10     dE    -2.247971e-05     9.159513e-03    -2.2472e-05      0.019 (TRAH MIcro)
   10     dE    -3.658481e-05     4.793512e-03    -3.6532e-05      0.038 (TRAH MIcro)
   10     dE    -5.354660e-05     7.246952e-03    -5.3333e-05      0.063 (TRAH MIcro)
   10     dE    -6.308907e-05     2.373069e-03    -6.2610e-05      0.087 (TRAH MIcro)
   10     dE    -6.819605e-05     2.337997e-03    -6.7494e-05      0.102 (TRAH MIcro)
   10     dE    -7.151904e-05     1.640709e-03    -7.0578e-05      0.115 (TRAH MIcro)
   10     dE    -7.270074e-05     9.907590e-04    -7.1675e-05      0.120 (TRAH MIcro)
   10     dE    -7.339797e-05     8.667562e-04    -7.2281e-05      0.124 (TRAH MIcro)
   10     dE    -7.371660e-05     6.142161e-04    -7.2562e-05      0.126 (TRAH MIcro)
   10     dE    -7.395148e-05     5.347567e-04    -7.2733e-05      0.129 (TRAH MIcro)
   11      -2893.838883881377     2.104660e-03                     0.697 (TRAH MAcro)   No
WARNING : small    HOMO - LUMO gap : (op = alpha) 0.003626
   11     dE    -3.472245e-07     1.042386e-02    -3.4723e-07      0.000 (TRAH MIcro)
   11     dE    -1.889800e-06     2.675021e-03    -1.8898e-06      0.003 (TRAH MIcro)
   11     dE    -2.642629e-06     8.283759e-04    -2.6426e-06      0.004 (TRAH MIcro)
   11     dE    -3.344585e-06     1.363874e-03    -3.3445e-06      0.004 (TRAH MIcro)
   11     dE    -4.022484e-06     9.402112e-04    -4.0222e-06      0.008 (TRAH MIcro)
   11     dE    -4.322535e-06     3.972568e-04    -4.3221e-06      0.009 (TRAH MIcro)
   11     dE    -4.406953e-06     2.626423e-04    -4.4065e-06      0.010 (TRAH MIcro)
   11     dE    -4.452232e-06     2.207217e-04    -4.4517e-06      0.011 (TRAH MIcro)
   11     dE    -4.464563e-06     1.198580e-04    -4.4640e-06      0.011 (TRAH MIcro)
   12      -2893.838887201358     1.551926e-04                           (NR   MAcro)
WARNING : small    HOMO - LUMO gap : (op = alpha) 0.003349
   12     dE    -1.538021e-08     1.835790e-04                           (NR   MIcro)
   12     dE    -4.163402e-08     1.767321e-04                           (NR   MIcro)
   12     dE    -6.840308e-08     1.509448e-04                           (NR   MIcro)
   12     dE    -7.591547e-08     1.042244e-04                           (NR   MIcro)
   12     dE    -7.950470e-08     6.198310e-05                           (NR   MIcro)
   12     dE    -8.095857e-08     3.519720e-05                           (NR   MIcro)
   12     dE    -8.159560e-08     2.293747e-05                           (NR   MIcro)
   12     dE    -8.187470e-08     1.813869e-05                           (NR   MIcro)
   12     dE    -8.203609e-08     1.194262e-05                           (NR   MIcro)
   12     dE    -8.209255e-08     7.961137e-06                           (NR   MIcro)
   12     dE    -8.213196e-08     5.982290e-06                           (NR   MIcro)
   12     dE    -8.215602e-08     5.209705e-06                           (NR   MIcro)
   12     dE    -8.216904e-08     3.937086e-06                           (NR   MIcro)
   13      -2893.838887991030     2.033648e-05                           (NR   MAcro)
WARNING : small    HOMO - LUMO gap : (op = alpha) 0.003356

               *****************************************************
               *                     SUCCESS                       *
               *           SCF CONVERGED AFTER 351 CYCLES          *
               *****************************************************


----------------
TOTAL SCF ENERGY
----------------

Total Energy       :        -2893.83888799 Eh          -78745.35948 eV

Components:
Nuclear Repulsion  :         4401.00080141 Eh          119757.32015 eV
Electronic Energy  :        -7294.83968940 Eh         -198502.67963 eV
One Electron Energy:       -13404.68033186 Eh         -364759.89586 eV
Two Electron Energy:         6109.84064245 Eh          166257.21623 eV

Virial components:
Potential Energy   :        -4706.21569354 Eh         -128062.63960 eV
Kinetic Energy     :         1812.37680555 Eh           49317.28012 eV
Virial Ratio       :            2.59670929


DFT components:
N(Alpha)           :      128.999991348604 electrons
N(Beta)            :      124.999991207987 electrons
N(Total)           :      253.999982556590 electrons
E(X)               :     -200.212346874245 Eh       
E(C)               :      -10.560063797873 Eh       
E(XC)              :     -210.772410672118 Eh       
DFET-embed. en.    :        0.000000000000 Eh       

---------------
SCF CONVERGENCE
---------------

  Last Energy change         ...   -7.8967e-07  Tolerance :   1.0000e-06
  Last Orbital Gradient      ...    2.0336e-05  Tolerance :   5.0000e-05
  Last Orbital Rotation      ...    2.2421e-03

             **** THE GBW FILE WAS UPDATED (scan.gbw) ****
             **** DENSITY scan.scfp WAS UPDATED ****
             **** ENERGY FILE WAS UPDATED (scan.en.tmp) ****
----------------------
UHF SPIN CONTAMINATION
----------------------

Warning: in a DFT calculation there is little theoretical justification to 
         calculate <S**2> as in Hartree-Fock theory. We will do it anyways
         but you should keep in mind that the values have only limited relevance

Expectation value of <S**2>     :     6.403515
Ideal value S*(S+1) for S=2.0   :     6.000000
Deviation                       :     0.403515

             **** THE GBW FILE WAS UPDATED (scan.gbw) ****
             **** DENSITY scan.scfp WAS UPDATED ****
----------------
ORBITAL ENERGIES
----------------
                 SPIN UP ORBITALS
  NO   OCC          E(Eh)            E(eV) 
   0   1.0000    -255.657473     -6956.7935 
   1   1.0000     -29.963875      -815.3585 
   2   1.0000     -25.795074      -701.9197 
   3   1.0000     -25.794333      -701.8995 
   4   1.0000     -25.790931      -701.8069 
   5   1.0000      -4.124033      -112.2206 
   6   1.0000      -4.121765      -112.1589 
   7   1.0000      -4.120713      -112.1303 
   8   1.0000      -4.118603      -112.0729 
   9   1.0000      -4.117805      -112.0512 
  10   1.0000      -4.117721      -112.0489 
  11   1.0000      -4.117048      -112.0306 
  12   1.0000      -4.115242      -111.9814 
  13   1.0000      -4.113377      -111.9307 
  14   1.0000      -4.109472      -111.8244 
  15   1.0000      -4.104253      -111.6824 
  16   1.0000      -4.103861      -111.6717 
  17   1.0000      -3.543861       -96.4334 
  18   1.0000      -2.315296       -63.0024 
  19   1.0000      -2.314208       -62.9728 
  20   1.0000      -2.313536       -62.9545 
  21   1.0000      -2.311529       -62.8999 
  22   1.0000      -2.310839       -62.8811 
  23   1.0000      -2.309389       -62.8417 
  24   1.0000      -2.308895       -62.8282 
  25   1.0000      -2.308106       -62.8068 
  26   1.0000      -2.307724       -62.7964 
  27   1.0000      -2.307384       -62.7871 
  28   1.0000      -2.306458       -62.7619 
  29   1.0000      -2.306217       -62.7554 
  30   1.0000      -2.305651       -62.7400 
  31   1.0000      -2.305516       -62.7363 
  32   1.0000      -2.304980       -62.7217 
  33   1.0000      -2.304628       -62.7121 
  34   1.0000      -2.303824       -62.6902 
  35   1.0000      -2.303633       -62.6850 
  36   1.0000      -2.302377       -62.6509 
  37   1.0000      -2.301908       -62.6381 
  38   1.0000      -2.301515       -62.6274 
  39   1.0000      -2.301197       -62.6188 
  40   1.0000      -2.300730       -62.6060 
  41   1.0000      -2.299587       -62.5749 
  42   1.0000      -2.299534       -62.5735 
  43   1.0000      -2.299019       -62.5595 
  44   1.0000      -2.298073       -62.5338 
  45   1.0000      -2.298056       -62.5333 
  46   1.0000      -2.297018       -62.5050 
  47   1.0000      -2.295303       -62.4584 
  48   1.0000      -2.294705       -62.4421 
  49   1.0000      -2.293138       -62.3995 
  50   1.0000      -2.293078       -62.3978 
  51   1.0000      -2.291403       -62.3522 
  52   1.0000      -2.290025       -62.3148 
  53   1.0000      -2.289777       -62.3080 
  54   1.0000      -2.289606       -62.3033 
  55   1.0000      -2.289305       -62.2951 
  56   1.0000      -2.287244       -62.2391 
  57   1.0000      -0.436357       -11.8739 
  58   1.0000      -0.398339       -10.8394 
  59   1.0000      -0.394852       -10.7445 
  60   1.0000      -0.392146       -10.6708 
  61   1.0000      -0.385343       -10.4857 
  62   1.0000      -0.383612       -10.4386 
  63   1.0000      -0.380346       -10.3497 
  64   1.0000      -0.377106       -10.2616 
  65   1.0000      -0.374451       -10.1893 
  66   1.0000      -0.370355       -10.0779 
  67   1.0000      -0.363158        -9.8820 
  68   1.0000      -0.358185        -9.7467 
  69   1.0000      -0.354364        -9.6427 
  70   1.0000      -0.351811        -9.5733 
  71   1.0000      -0.348606        -9.4861 
  72   1.0000      -0.347050        -9.4437 
  73   1.0000      -0.345811        -9.4100 
  74   1.0000      -0.342978        -9.3329 
  75   1.0000      -0.341046        -9.2803 
  76   1.0000      -0.336608        -9.1596 
  77   1.0000      -0.335274        -9.1233 
  78   1.0000      -0.334250        -9.0954 
  79   1.0000      -0.331233        -9.0133 
  80   1.0000      -0.328150        -8.9294 
  81   1.0000      -0.327186        -8.9032 
  82   1.0000      -0.324089        -8.8189 
  83   1.0000      -0.320464        -8.7203 
  84   1.0000      -0.318399        -8.6641 
  85   1.0000      -0.316422        -8.6103 
  86   1.0000      -0.312196        -8.4953 
  87   1.0000      -0.307819        -8.3762 
  88   1.0000      -0.304096        -8.2749 
  89   1.0000      -0.301454        -8.2030 
  90   1.0000      -0.300324        -8.1722 
  91   1.0000      -0.297687        -8.1005 
  92   1.0000      -0.297185        -8.0868 
  93   1.0000      -0.293491        -7.9863 
  94   1.0000      -0.291548        -7.9334 
  95   1.0000      -0.291118        -7.9217 
  96   1.0000      -0.288250        -7.8437 
  97   1.0000      -0.285021        -7.7558 
  98   1.0000      -0.283645        -7.7184 
  99   1.0000      -0.281997        -7.6735 
 100   1.0000      -0.280774        -7.6402 
 101   1.0000      -0.279484        -7.6051 
 102   1.0000      -0.278197        -7.5701 
 103   1.0000      -0.275940        -7.5087 
 104   1.0000      -0.275371        -7.4932 
 105   1.0000      -0.274860        -7.4793 
 106   1.0000      -0.274055        -7.4574 
 107   1.0000      -0.271514        -7.3883 
 108   1.0000      -0.270297        -7.3552 
 109   1.0000      -0.268783        -7.3140 
 110   1.0000      -0.267123        -7.2688 
 111   1.0000      -0.266860        -7.2616 
 112   1.0000      -0.264593        -7.1999 
 113   1.0000      -0.264475        -7.1967 
 114   1.0000      -0.263379        -7.1669 
 115   1.0000      -0.261919        -7.1272 
 116   1.0000      -0.258492        -7.0339 
 117   1.0000      -0.257464        -7.0059 
 118   1.0000      -0.256888        -6.9903 
 119   1.0000      -0.252756        -6.8778 
 120   1.0000      -0.250992        -6.8298 
 121   1.0000      -0.249898        -6.8001 
 122   1.0000      -0.248955        -6.7744 
 123   1.0000      -0.244778        -6.6607 
 124   1.0000      -0.243108        -6.6153 
 125   1.0000      -0.233870        -6.3639 
 126   1.0000      -0.219849        -5.9824 
 127   1.0000      -0.200949        -5.4681 
 128   1.0000      -0.182045        -4.9537 
 129   0.0000      -0.178689        -4.8624 
 130   0.0000      -0.143547        -3.9061 
 131   0.0000      -0.129380        -3.5206 
 132   0.0000      -0.125816        -3.4236 
 133   0.0000      -0.112290        -3.0556 
 134   0.0000      -0.101661        -2.7663 
 135   0.0000      -0.079349        -2.1592 
 136   0.0000      -0.054951        -1.4953 
 137   0.0000      -0.050760        -1.3813 
 138   0.0000      -0.047993        -1.3059 
 139   0.0000      -0.036758        -1.0002 
 140   0.0000      -0.033999        -0.9252 
 141   0.0000      -0.024434        -0.6649 
 142   0.0000      -0.019484        -0.5302 
 143   0.0000      -0.014620        -0.3978 
 144   0.0000      -0.002680        -0.0729 
 145   0.0000       0.020337         0.5534 
 146   0.0000       0.027299         0.7429 
 147   0.0000       0.037962         1.0330 
 148   0.0000       0.048522         1.3204 
 149   0.0000       0.051271         1.3952 
 150   0.0000       0.053625         1.4592 
 151   0.0000       0.057096         1.5537 
 152   0.0000       0.060898         1.6571 
 153   0.0000       0.062926         1.7123 
 154   0.0000       0.069857         1.9009 
 155   0.0000       0.074736         2.0337 
 156   0.0000       0.079655         2.1675 
 157   0.0000       0.082762         2.2521 
 158   0.0000       0.084995         2.3128 
 159   0.0000       0.090169         2.4536 
 160   0.0000       0.097662         2.6575 
 161   0.0000       0.100956         2.7472 
 162   0.0000       0.105730         2.8771 
 163   0.0000       0.111209         3.0261 
 164   0.0000       0.118134         3.2146 
 165   0.0000       0.124564         3.3896 
 166   0.0000       0.128407         3.4941 
 167   0.0000       0.143833         3.9139 
 168   0.0000       0.150077         4.0838 
 169   0.0000       0.156562         4.2603 
 170   0.0000       0.159739         4.3467 
 171   0.0000       0.166350         4.5266 
 172   0.0000       0.169743         4.6189 
[...]
----------------------------------------------------
CHARGE
  0 Aus       :     2.512124  s :     2.512124
      pz      :     2.218519  p :     6.590067
      px      :     2.171004
      py      :     2.200544
      dz2     :     1.984666  d :     9.901960
      dxz     :     1.992598
      dyz     :     1.993314
      dx2y2   :     1.973528
      dxy     :     1.957854
      f0      :     0.000838  f :     0.006566
      f+1     :     0.000716
      f-1     :     0.001273
      f+2     :     0.001195
      f-2     :     0.001068
      f+3     :     0.000652
      f-3     :     0.000825
  1 Aus       :     2.697799  s :     2.697799
      pz      :     2.080529  p :     6.348302
      px      :     2.105333
      py      :     2.162440
      dz2     :     1.986949  d :     9.907624
      dxz     :     1.974121
      dyz     :     1.974174
      dx2y2   :     1.968783
      dxy     :     2.003597
      f0      :     0.000471  f :     0.004372
      f+1     :     0.000665
      f-1     :     0.000424
      f+2     :     0.000608
      f-2     :     0.000712
      f+3     :     0.000884
      f-3     :     0.000608
  2 Aus       :     2.518484  s :     2.518484
      pz      :     2.102549  p :     6.581672
      px      :     2.260226
      py      :     2.218898
      dz2     :     1.958527  d :     9.905275
      dxz     :     1.982263
      dyz     :     1.994965
      dx2y2   :     1.999299
      dxy     :     1.970220
      f0      :     0.000861  f :     0.006331
      f+1     :     0.000883
      f-1     :     0.000694
      f+2     :     0.000792
      f-2     :     0.000927
      f+3     :     0.001110
      f-3     :     0.001065
  3 Aus       :     2.556362  s :     2.556362
      pz      :     2.160714  p :     6.529597
      px      :     2.188442
      py      :     2.180441
      dz2     :     1.973363  d :     9.878586
      dxz     :     1.990220
      dyz     :     1.991006
      dx2y2   :     1.985204
      dxy     :     1.938792
      f0      :     0.000681  f :     0.006025
      f+1     :     0.000806
      f-1     :     0.000636
      f+2     :     0.000594
      f-2     :     0.001102
      f+3     :     0.001046
      f-3     :     0.001161
  4 Aus       :     2.707190  s :     2.707190
      pz      :     2.078909  p :     6.345752
      px      :     2.149376
      py      :     2.117467
      dz2     :     1.972139  d :     9.897745
      dxz     :     1.984018
      dyz     :     1.969522
      dx2y2   :     1.977895
      dxy     :     1.994172
      f0      :     0.000515  f :     0.004374
      f+1     :     0.000429
      f-1     :     0.000818
      f+2     :     0.000655
      f-2     :     0.000480
      f+3     :     0.000826
      f-3     :     0.000650
  5 Aus       :     2.664181  s :     2.664181
      pz      :     2.137265  p :     6.387048
      px      :     2.116757
      py      :     2.133026
      dz2     :     1.967119  d :     9.910936
      dxz     :     1.984179
      dyz     :     1.979220
      dx2y2   :     1.998041
      dxy     :     1.982378
      f0      :     0.000481  f :     0.004622
      f+1     :     0.000828
      f-1     :     0.000642
      f+2     :     0.000578
      f-2     :     0.000745
      f+3     :     0.000646
      f-3     :     0.000703
  6 Aus       :     2.646413  s :     2.646413
      pz      :     2.125755  p :     6.439668
      px      :     2.103271
      py      :     2.210642
      dz2     :     1.970632  d :     9.852008
      dxz     :     1.985525
      dyz     :     1.983812
      dx2y2   :     1.970674
      dxy     :     1.941366
      f0      :     0.000503  f :     0.005163
      f+1     :     0.000588
      f-1     :     0.000708
      f+2     :     0.000498
      f-2     :     0.000896
      f+3     :     0.000867
      f-3     :     0.001101
  7 Aus       :     2.605559  s :     2.605559
      pz      :     2.108308  p :     6.382891
      px      :     2.147170
      py      :     2.127413
      dz2     :     1.976435  d :     9.870954
      dxz     :     1.969036
      dyz     :     1.978999
      dx2y2   :     1.969279
      dxy     :     1.977206
      f0      :     0.000757  f :     0.005243
      f+1     :     0.001002
      f-1     :     0.000744
      f+2     :     0.000910
      f-2     :     0.000563
      f+3     :     0.000721
      f-3     :     0.000545
  8 Aus       :     2.581957  s :     2.581957
      pz      :     2.131038  p :     6.474152
      px      :     2.200957
      py      :     2.142158
      dz2     :     1.978278  d :     9.888256
      dxz     :     1.964147
      dyz     :     1.994553
      dx2y2   :     1.979939
      dxy     :     1.971339
      f0      :     0.000565  f :     0.005603
      f+1     :     0.001140
      f-1     :     0.000846
      f+2     :     0.000732
      f-2     :     0.001002
      f+3     :     0.000727
      f-3     :     0.000591
  9 Aus       :     2.588344  s :     2.588344
      pz      :     2.130018  p :     6.441426
      px      :     2.171440
      py      :     2.139968
      dz2     :     1.964485  d :     9.876311
      dxz     :     1.959817
      dyz     :     1.995040
      dx2y2   :     1.983896
      dxy     :     1.973073
      f0      :     0.000563  f :     0.005369
      f+1     :     0.000980
      f-1     :     0.000758
      f+2     :     0.000549
      f-2     :     0.001082
      f+3     :     0.000583
      f-3     :     0.000853
 10 Aus       :     2.592443  s :     2.592443
      pz      :     2.107066  p :     6.479053
      px      :     2.249369
      py      :     2.122618
      dz2     :     1.982759  d :     9.861584
      dxz     :     1.978328
      dyz     :     1.978147
      dx2y2   :     1.961278
      dxy     :     1.961071
      f0      :     0.000703  f :     0.005843
      f+1     :     0.000561
      f-1     :     0.000441
      f+2     :     0.000773
      f-2     :     0.000999
      f+3     :     0.001121
      f-3     :     0.001244
 11 Aus       :     2.617962  s :     2.617962
      pz      :     2.136977  p :     6.459961
      px      :     2.228010
      py      :     2.094974
      dz2     :     1.972775  d :     9.863802
      dxz     :     1.981085
      dyz     :     1.998222
      dx2y2   :     1.925186
      dxy     :     1.986534
      f0      :     0.000462  f :     0.005019
      f+1     :     0.000657
      f-1     :     0.000619
      f+2     :     0.000539
      f-2     :     0.000711
      f+3     :     0.000980
      f-3     :     0.001052
 12 Fes       :     6.297305  s :     6.297305
      pz      :     4.222812  p :    12.645300
      px      :     4.205911
      py      :     4.216577
      dz2     :     1.471315  d :     7.628699
      dxz     :     1.707497
      dyz     :     1.401099
      dx2y2   :     1.420108
      dxy     :     1.628680
      f0      :     0.000080  f :     0.000721
      f+1     :     0.000148
      f-1     :     0.000098
      f+2     :     0.000084
      f-2     :     0.000101
      f+3     :     0.000079
      f-3     :     0.000132

SPIN
  0 Aus       :    -0.081043  s :    -0.081043
      pz      :    -0.021146  p :    -0.021600
      px      :    -0.003513
      py      :     0.003060
      dz2     :    -0.004844  d :     0.018311
      dxz     :     0.005422
      dyz     :    -0.001151
      dx2y2   :     0.009862
      dxy     :     0.009021
      f0      :     0.000006  f :     0.000158
      f+1     :     0.000034
      f-1     :     0.000025
      f+2     :     0.000026
      f-2     :    -0.000009
      f+3     :     0.000054
      f-3     :     0.000023
  1 Aus       :     0.012431  s :     0.012431
      pz      :    -0.016233  p :    -0.015805
      px      :    -0.000189
      py      :     0.000617
      dz2     :    -0.005274  d :    -0.028284
      dxz     :    -0.017068
      dyz     :    -0.002074
      dx2y2   :    -0.002474
      dxy     :    -0.001394
      f0      :    -0.000008  f :    -0.000084
      f+1     :    -0.000018
      f-1     :    -0.000007
      f+2     :    -0.000026
      f-2     :    -0.000014
      f+3     :    -0.000009
      f-3     :    -0.000001
  2 Aus       :    -0.068633  s :    -0.068633
      pz      :    -0.013559  p :    -0.025345
      px      :    -0.007787
      py      :    -0.003999
      dz2     :     0.011302  d :     0.008711
      dxz     :     0.008220
      dyz     :     0.001403
      dx2y2   :     0.001268
      dxy     :    -0.013482
      f0      :    -0.000002  f :     0.000102
      f+1     :     0.000102
      f-1     :     0.000024
      f+2     :     0.000010
      f-2     :    -0.000013
      f+3     :    -0.000001
      f-3     :    -0.000018
  3 Aus       :    -0.058162  s :    -0.058162
      pz      :    -0.009231  p :    -0.022377
      px      :     0.009664
      py      :    -0.022810
      dz2     :    -0.006411  d :    -0.010245
      dxz     :    -0.001862
      dyz     :    -0.015608
      dx2y2   :     0.003746
      dxy     :     0.009890
      f0      :     0.000009  f :     0.000034
      f+1     :    -0.000009
      f-1     :    -0.000002
      f+2     :    -0.000029
      f-2     :    -0.000030
      f+3     :     0.000023
      f-3     :     0.000073
  4 Aus       :     0.017922  s :     0.017922
      pz      :    -0.018960  p :    -0.014952
      px      :     0.000769
      py      :     0.003239
      dz2     :    -0.006898  d :    -0.024795
      dxz     :    -0.001776
      dyz     :    -0.013253
      dx2y2   :    -0.002854
      dxy     :    -0.000015
      f0      :    -0.000001  f :    -0.000087
      f+1     :     0.000003
      f-1     :    -0.000044
      f+2     :    -0.000017
      f-2     :    -0.000004
      f+3     :    -0.000014
      f-3     :    -0.000010
  5 Aus       :    -0.036474  s :    -0.036474
      pz      :    -0.034624  p :    -0.038902
      px      :    -0.002506
      py      :    -0.001772
      dz2     :    -0.001187  d :    -0.029703
      dxz     :    -0.014719
      dyz     :    -0.011768
      dx2y2   :    -0.001260
      dxy     :    -0.000769
      f0      :    -0.000014  f :    -0.000090
      f+1     :    -0.000013
      f-1     :     0.000000
      f+2     :    -0.000006
      f-2     :    -0.000049
      f+3     :    -0.000003
      f-3     :    -0.000005
  6 Aus       :    -0.023045  s :    -0.023045
      pz      :    -0.016896  p :    -0.034322
      px      :     0.002831
      py      :    -0.020257
      dz2     :    -0.003445  d :     0.000211
      dxz     :     0.002837
      dyz     :    -0.018344
      dx2y2   :     0.008116
      dxy     :     0.011047
      f0      :    -0.000001  f :     0.000181
      f+1     :     0.000026
      f-1     :     0.000005
      f+2     :     0.000009
      f-2     :    -0.000031
      f+3     :     0.000058
      f-3     :     0.000114
  7 Aus       :    -0.049962  s :    -0.049962
      pz      :    -0.019055  p :    -0.082736
      px      :    -0.032771
      py      :    -0.030910
      dz2     :    -0.000664  d :    -0.033373
      dxz     :     0.005715
      dyz     :    -0.014189
      dx2y2   :    -0.025533
      dxy     :     0.001296
      f0      :    -0.000030  f :    -0.000124
      f+1     :    -0.000044
      f-1     :    -0.000017
      f+2     :    -0.000056
      f-2     :     0.000036
      f+3     :    -0.000007
      f-3     :    -0.000006
  8 Aus       :    -0.098331  s :    -0.098331
      pz      :    -0.021714  p :    -0.025604
      px      :    -0.001698
      py      :    -0.002192
      dz2     :     0.005346  d :     0.000050
      dxz     :     0.007169
      dyz     :    -0.001235
      dx2y2   :    -0.005838
      dxy     :    -0.005393
      f0      :     0.000021  f :     0.000052
      f+1     :     0.000021
      f-1     :    -0.000015
      f+2     :     0.000027
      f-2     :     0.000031
      f+3     :    -0.000010
      f-3     :    -0.000022
  9 Aus       :    -0.084258  s :    -0.084258
      pz      :    -0.016924  p :    -0.052379
      px      :    -0.024666
      py      :    -0.010788
      dz2     :     0.012756  d :     0.022624
      dxz     :     0.015223
      dyz     :     0.004777
      dx2y2   :    -0.002708
      dxy     :    -0.007425
      f0      :     0.000039  f :     0.000148
      f+1     :     0.000106
      f-1     :     0.000030
      f+2     :     0.000019
      f-2     :     0.000003
      f+3     :    -0.000003
      f-3     :    -0.000046
 10 Aus       :    -0.043880  s :    -0.043880
      pz      :    -0.009817  p :    -0.018790
      px      :    -0.011729
      py      :     0.002756
      dz2     :     0.001699  d :     0.002625
      dxz     :    -0.017367
      dyz     :     0.003646
      dx2y2   :     0.010946
      dxy     :     0.003702
      f0      :     0.000022  f :     0.000112
      f+1     :    -0.000005
      f-1     :     0.000020
      f+2     :     0.000045
      f-2     :    -0.000047
      f+3     :     0.000055
      f-3     :     0.000021
 11 Aus       :    -0.047627  s :    -0.047627
      pz      :    -0.012920  p :    -0.033064
      px      :    -0.017833
      py      :    -0.002312
      dz2     :    -0.007095  d :     0.000469
      dxz     :    -0.014772
      dyz     :     0.000018
      dx2y2   :     0.019304
      dxy     :     0.003014
      f0      :     0.000006  f :     0.000126
      f+1     :     0.000002
      f-1     :     0.000006
      f+2     :     0.000010
      f-2     :    -0.000041
      f+3     :     0.000004
      f-3     :     0.000139
 12 Fes       :     0.012078  s :     0.012078
      pz      :     0.007155  p :     0.015449
      px      :     0.003168
      py      :     0.005126
      dz2     :     0.617069  d :     2.992255
      dxz     :     0.400725
      dyz     :     0.686573
      dx2y2   :     0.781599
      dxy     :     0.506289
      f0      :     0.000005  f :     0.000025
      f+1     :     0.000005
      f-1     :     0.000005
      f+2     :    -0.000005
      f-2     :     0.000013
      f+3     :    -0.000002
      f-3     :     0.000004


                      *****************************
                      * MAYER POPULATION ANALYSIS *
                      *****************************

  NA   - Mulliken gross atomic population
  ZA   - Total nuclear charge
  QA   - Mulliken gross atomic charge
  VA   - Mayer's total valence
  BVA  - Mayer's bonded valence
  FA   - Mayer's free valence

  ATOM       NA         ZA         QA         VA         BVA        FA
  0 Au    18.9170    19.0000     0.0830     1.8524     1.8131     0.0394
  1 Au    18.7737    19.0000     0.2263     1.4784     1.4764     0.0020
  2 Au    18.9556    19.0000     0.0444     1.9048     1.8776     0.0272
  3 Au    18.9427    19.0000     0.0573     1.8193     1.7985     0.0208
  4 Au    18.7243    19.0000     0.2757     1.4440     1.4415     0.0025
  5 Au    18.7484    19.0000     0.2516     1.4588     1.4439     0.0149
  6 Au    18.8258    19.0000     0.1742     1.5623     1.5559     0.0064
  7 Au    18.6722    19.0000     0.3278     1.4696     1.4548     0.0148
  8 Au    18.7665    19.0000     0.2335     1.5310     1.4856     0.0455
  9 Au    18.8006    19.0000     0.1994     1.6473     1.6158     0.0315
 10 Au    18.9272    19.0000     0.0728     1.7709     1.7589     0.0120
 11 Au    18.8389    19.0000     0.1611     1.5762     1.5627     0.0136
 12 Fe    28.1071    26.0000    -2.1071     7.7666     5.2696     2.4970

  Mayer bond orders larger than 0.100000
B(  0-Au,  1-Au) :   0.2738 B(  0-Au,  4-Au) :   0.3121 B(  0-Au,  7-Au) :   0.3160 
B(  0-Au, 10-Au) :   0.1303 B(  0-Au, 12-Fe) :   0.5128 B(  1-Au,  2-Au) :   0.2724 
B(  1-Au,  3-Au) :   0.4149 B(  1-Au,  4-Au) :   0.1552 B(  1-Au, 12-Fe) :   0.1023 
B(  2-Au,  3-Au) :   0.1435 B(  2-Au,  4-Au) :   0.2589 B(  2-Au,  9-Au) :   0.3735 
B(  2-Au, 10-Au) :   0.1088 B(  2-Au, 12-Fe) :   0.5179 B(  3-Au,  7-Au) :   0.1085 
B(  3-Au, 11-Au) :   0.2817 B(  3-Au, 12-Fe) :   0.5468 B(  4-Au, 10-Au) :   0.3653 
B(  5-Au,  6-Au) :   0.2325 B(  5-Au,  8-Au) :   0.2495 B(  5-Au,  9-Au) :   0.2711 
B(  5-Au, 11-Au) :   0.2427 B(  5-Au, 12-Fe) :   0.1423 B(  6-Au,  8-Au) :   0.1419 
B(  6-Au, 10-Au) :   0.3040 B(  6-Au, 12-Fe) :   0.5425 B(  7-Au,  8-Au) :   0.2496 
B(  7-Au, 12-Fe) :   0.5298 B(  8-Au, 11-Au) :   0.1304 B(  8-Au, 12-Fe) :   0.5214 
B(  9-Au, 12-Fe) :   0.6002 B( 10-Au, 12-Fe) :   0.6097 B( 11-Au, 12-Fe) :   0.5537 


-------
TIMINGS
-------

Total SCF time: 0 days 0 hours 7 min 17 sec 

Total time                  ....     437.978 sec
Sum of individual times     ....     434.502 sec  ( 99.2%)

Fock matrix formation       ....     415.617 sec  ( 94.9%)
  Split-RI-J                ....      77.562 sec  ( 18.7% of F)
  XC integration            ....     335.840 sec  ( 80.8% of F)
    Basis function eval.    ....      17.667 sec  (  5.3% of XC)
    Density eval.           ....     145.709 sec  ( 43.4% of XC)
    XC-Functional eval.     ....       9.741 sec  (  2.9% of XC)
    XC-Potential eval.      ....      97.219 sec  ( 28.9% of XC)
Diagonalization             ....      15.068 sec  (  3.4%)
Density matrix formation    ....       0.669 sec  (  0.2%)
Population analysis         ....       0.260 sec  (  0.1%)
Initial guess               ....       0.460 sec  (  0.1%)
Orbital Transformation      ....       0.000 sec  (  0.0%)
Orbital Orthonormalization  ....       0.412 sec  (  0.1%)
DIIS solution               ....       0.000 sec  (  0.0%)
Grid generation             ....       2.428 sec  (  0.6%)

Maximum memory used throughout the entire SCF-calculation: 81.7 MB

-------------------------   --------------------
FINAL SINGLE POINT ENERGY     -2893.830358331365
-------------------------   --------------------


                            ***************************************
                            *     ORCA property calculations      *
                            ***************************************

                                    ---------------------
                                    Active property flags
                                    ---------------------
   (+) Dipole Moment


------------------------------------------------------------------------------
                       ORCA ELECTRIC PROPERTIES CALCULATION
------------------------------------------------------------------------------

Dipole Moment Calculation                       ... on
Quadrupole Moment Calculation                   ... off
Polarizability Calculation                      ... off
GBWName                                         ... scan_job2.gbw
Electron density                                ... scan_job2.scfp
The origin for moment calculation is the CENTER OF MASS  = (16.651973, 13.581729 17.529263)

-------------
DIPOLE MOMENT
-------------
                                X             Y             Z
Electronic contribution:    -13.33277      -4.13273     -11.28542
Nuclear contribution   :     13.35302       4.29991      11.38384
                        -----------------------------------------
Total Dipole Moment    :      0.02025       0.16718       0.09843
                        -----------------------------------------
Magnitude (a.u.)       :      0.19506
Magnitude (Debye)      :      0.49580



--------------------
Rotational spectrum 
--------------------
 
Rotational constants in cm-1:     0.001839     0.001117     0.001001 
Rotational constants in MHz :    55.124708    33.476668    30.004995 

 Dipole components along the rotational axes: 
x,y,z [a.u.] :     0.135560    -0.140030    -0.007908 
x,y,z [Debye]:     0.344567    -0.355929    -0.020100 

 

Timings for individual modules:

Sum of individual times         ...      454.389 sec (=   7.573 min)
GTO integral calculation        ...       16.132 sec (=   0.269 min)   3.6 %
SCF iterations                  ...      438.257 sec (=   7.304 min)  96.4 %



                             ****ORCA TERMINATED NORMALLY****
TOTAL RUN TIME: 0 days 0 hours 47 minutes 43 seconds 166 msec
